/*--------------------------------*- C++ -*----------------------------------*\
| =========                 |                                                 |
| \\      /  F ield         | OpenFOAM: The Open Source CFD Toolbox           |
|  \\    /   O peration     | Version:  4.1                                   |
|   \\  /    A nd           | Web:      www.OpenFOAM.org                      |
|    \\/     M anipulation  |                                                 |
\*---------------------------------------------------------------------------*/
FoamFile
{
    version     2.0;
    format      ascii;
    class       surfaceScalarField;
    location    "1";
    object      phi;
}
// * * * * * * * * * * * * * * * * * * * * * * * * * * * * * * * * * * * * * //

dimensions      [0 3 -1 0 0 0 0];

internalField   uniform 0;

boundaryField
{
    leftRightWallsright
    {
        type            cyclicAMI;
        value           uniform 0;
    }
    outlet
    {
        type            calculated;
        value           uniform 0;
    }
    channelWallsright
    {
        type            calculated;
        value           uniform 0;
    }
    destinationFaceright
    {
        type            calculated;
        value           uniform 0;
    }
    sourceFaceright
    {
        type            calculated;
        value           uniform 0;
    }
    sourceFaceleft
    {
        type            calculated;
        value           uniform 0;
    }
    destinationFaceleft
    {
        type            calculated;
        value           uniform 0;
    }
    channelWallsleft
    {
        type            calculated;
        value           uniform 0;
    }
    leftRightWallleft
    {
        type            cyclicAMI;
        value           uniform 0;
    }
    inlet
    {
        type            calculated;
        value           uniform 0;
    }
}


// ************************************************************************* //
