/*--------------------------------*- C++ -*----------------------------------*\
| =========                 |                                                 |
| \\      /  F ield         | OpenFOAM: The Open Source CFD Toolbox           |
|  \\    /   O peration     | Version:  4.1                                   |
|   \\  /    A nd           | Web:      www.OpenFOAM.org                      |
|    \\/     M anipulation  |                                                 |
\*---------------------------------------------------------------------------*/
FoamFile
{
    version     2.0;
    format      ascii;
    class       volScalarField;
    location    "4";
    object      p;
}
// * * * * * * * * * * * * * * * * * * * * * * * * * * * * * * * * * * * * * //

dimensions      [0 2 -2 0 0 0 0];

internalField   nonuniform List<scalar> 
1705
(
1.66874e-29
7.60969e-29
1.31219e-28
1.63975e-28
1.96747e-28
2.54314e-28
3.07282e-28
3.38357e-28
3.69397e-28
4.22723e-28
4.74264e-28
5.03185e-28
5.53333e-28
5.96628e-28
6.21702e-28
6.46773e-28
6.85296e-28
7.2897e-28
7.51387e-28
7.80108e-28
8.21576e-28
8.40829e-28
8.60098e-28
8.72749e-28
9.23823e-28
9.42448e-28
9.61057e-28
9.57022e-28
1.03233e-27
1.05454e-27
1.03405e-27
1.14404e-27
1.173e-27
1.20196e-27
1.16264e-27
1.34219e-27
1.38776e-27
1.33072e-27
1.60666e-27
1.67381e-27
1.72159e-27
1.76361e-27
1.95972e-27
2.23503e-27
-1.997e-26
1.95925e-27
1.61075e-27
1.33464e-27
1.21016e-27
1.10064e-27
1.00593e-27
1.07134e-27
1.21888e-27
-2.13777e-26
-2.56629e-29
-4.88326e-28
-8.70158e-28
-1.08737e-27
-1.28382e-27
-1.45933e-27
-1.46933e-27
-1.39252e-27
-2.35164e-26
-3.10489e-27
-3.61104e-27
-4.01593e-27
-4.24767e-27
-4.44915e-27
-4.6201e-27
-4.61947e-27
-4.52134e-27
-2.36459e-26
-1.17503e-26
-1.20872e-26
-1.23045e-26
-1.23316e-26
-1.22927e-26
-1.21888e-26
-1.19513e-26
-1.16051e-26
-1.79237e-26
-1.5302e-26
-1.42633e-26
-1.23585e-26
-1.14445e-26
-9.86003e-27
-8.21169e-27
-7.49838e-27
-6.33626e-27
-5.08991e-27
-4.54453e-27
-3.68631e-27
-3.20874e-27
-2.49027e-27
-1.69909e-27
-1.34229e-27
-8.19203e-28
-5.12103e-28
-7.95699e-29
4.03878e-28
6.25039e-28
9.28517e-28
1.26998e-27
1.42343e-27
1.62926e-27
1.75617e-27
1.9194e-27
2.10402e-27
2.18664e-27
2.28842e-27
2.35393e-27
2.4301e-27
2.51733e-27
2.55501e-27
2.59415e-27
2.63967e-27
2.65641e-27
2.66815e-27
2.67612e-27
2.67667e-27
3.9605e-30
3.86311e-30
3.36401e-30
2.29767e-30
3.96028e-31
-2.62614e-30
-6.98604e-30
-1.27369e-29
-1.96729e-29
-2.72531e-29
-3.45656e-29
-4.0361e-29
-4.31779e-29
-4.15851e-29
-3.45462e-29
-2.18937e-29
-4.86737e-30
1.33648e-29
2.73256e-29
2.914e-29
8.90736e-30
-4.43211e-29
-1.40886e-28
-2.88247e-28
-4.88376e-28
-7.35295e-28
-1.01346e-27
-1.2976e-27
-1.55406e-27
-1.74293e-27
-1.81959e-27
-1.73615e-27
-1.44735e-27
-9.24352e-28
-1.77376e-28
7.15469e-28
1.59751e-27
2.32904e-27
2.67531e-27
3.96439e-30
3.86947e-30
3.37555e-30
2.31507e-30
4.18212e-31
-2.60175e-30
-6.9634e-30
-1.2721e-29
-1.96693e-29
-2.72664e-29
-3.45989e-29
-4.04132e-29
-4.32424e-29
-4.16481e-29
-3.45854e-29
-2.18785e-29
-4.76103e-30
1.36009e-29
2.7725e-29
2.97222e-29
9.66767e-30
-4.34208e-29
-1.39921e-28
-2.87328e-28
-4.87628e-28
-7.34833e-28
-1.01336e-27
-1.29787e-27
-1.5547e-27
-1.744e-27
-1.82116e-27
-1.73805e-27
-1.44883e-27
-9.23852e-28
-1.72723e-28
7.26039e-28
1.61071e-27
2.34502e-27
2.68385e-27
3.96049e-30
3.8665e-30
3.37677e-30
2.32192e-30
4.31266e-31
-2.58233e-30
-6.93777e-30
-1.26896e-29
-1.96329e-29
-2.72261e-29
-3.45556e-29
-4.03677e-29
-4.31944e-29
-4.15954e-29
-3.45228e-29
-2.1797e-29
-4.6465e-30
1.37681e-29
2.79701e-29
3.00751e-29
1.01616e-29
-4.27507e-29
-1.39038e-28
-2.86191e-28
-4.86187e-28
-7.3302e-28
-1.01109e-27
-1.29505e-27
-1.55128e-27
-1.74003e-27
-1.81672e-27
-1.73288e-27
-1.4419e-27
-9.13456e-28
-1.57009e-28
7.47388e-28
1.63136e-27
2.36043e-27
2.68255e-27
3.9492e-30
3.85543e-30
3.36953e-30
2.32074e-30
4.38215e-31
-2.56468e-30
-6.90635e-30
-1.26412e-29
-1.95645e-29
-2.7136e-29
-3.44439e-29
-4.0237e-29
-4.30503e-29
-4.14457e-29
-3.43766e-29
-2.1662e-29
-4.52562e-30
1.38818e-29
2.80989e-29
3.02629e-29
1.04792e-29
-4.22012e-29
-1.38121e-28
-2.84738e-28
-4.83998e-28
-7.29877e-28
-1.00677e-27
-1.28939e-27
-1.54421e-27
-1.73161e-27
-1.80704e-27
-1.72156e-27
-1.42766e-27
-8.94254e-28
-1.31158e-28
7.78964e-28
1.65927e-27
2.37556e-27
2.67076e-27
3.93089e-30
3.83715e-30
3.35517e-30
2.31327e-30
4.41191e-31
-2.54653e-30
-6.86719e-30
-1.25746e-29
-1.94648e-29
-2.69992e-29
-3.42697e-29
-4.00303e-29
-4.28219e-29
-4.12123e-29
-3.41593e-29
-2.14824e-29
-4.3995e-30
1.39529e-29
2.81385e-29
3.03311e-29
1.06838e-29
-4.16957e-29
-1.3709e-28
-2.829e-28
-4.81026e-28
-7.25425e-28
-1.00052e-27
-1.28109e-27
-1.53379e-27
-1.71918e-27
-1.79268e-27
-1.7048e-27
-1.4069e-27
-8.67108e-28
-9.5963e-29
8.20171e-28
1.69394e-27
2.38996e-27
2.64853e-27
3.90589e-30
3.81225e-30
3.33455e-30
2.30067e-30
4.41578e-31
-2.52644e-30
-6.81906e-30
-1.24894e-29
-1.93341e-29
-2.68177e-29
-3.40371e-29
-3.97536e-29
-4.2517e-29
-4.09042e-29
-3.38795e-29
-2.1264e-29
-4.26889e-30
1.39887e-29
2.81065e-29
3.03092e-29
1.08166e-29
-4.11851e-29
-1.35895e-28
-2.80636e-28
-4.77255e-28
-7.19688e-28
-9.92398e-28
-1.2703e-27
-1.52026e-27
-1.70304e-27
-1.77407e-27
-1.68314e-27
-1.38026e-27
-8.327e-28
-5.21171e-29
8.70362e-28
1.73458e-27
2.40247e-27
2.612e-27
3.87444e-30
3.78112e-30
3.3082e-30
2.28367e-30
4.40227e-31
-2.50353e-30
-6.76126e-30
-1.23852e-29
-1.91731e-29
-2.6593e-29
-3.37487e-29
-3.94109e-29
-4.21408e-29
-4.05269e-29
-3.35424e-29
-2.10107e-29
-4.13432e-30
1.39935e-29
2.80137e-29
3.02154e-29
1.09024e-29
-4.06399e-29
-1.34506e-28
-2.77926e-28
-4.72679e-28
-7.12688e-28
-9.82479e-28
-1.25713e-27
-1.50377e-27
-1.68343e-27
-1.7515e-27
-1.65695e-27
-1.34822e-27
-7.91599e-28
-2.64098e-31
9.28815e-28
1.78019e-27
2.41141e-27
2.56008e-27
3.83673e-30
3.74399e-30
3.27646e-30
2.26268e-30
4.3764e-31
-2.47729e-30
-6.69338e-30
-1.22619e-29
-1.89818e-29
-2.6326e-29
-3.34062e-29
-3.90047e-29
-4.16966e-29
-4.00843e-29
-3.31516e-29
-2.07249e-29
-3.99629e-30
1.39699e-29
2.78667e-29
3.00603e-29
1.09557e-29
-4.00437e-29
-1.32909e-28
-2.7476e-28
-4.67302e-28
-7.0445e-28
-9.70812e-28
-1.24167e-27
-1.48446e-27
-1.66053e-27
-1.72523e-27
-1.62658e-27
-1.3112e-27
-7.4432e-28
5.89484e-29
9.94712e-28
1.8295e-27
2.41459e-27
2.48734e-27
3.79291e-30
3.70103e-30
3.23952e-30
2.23796e-30
4.34106e-31
-2.44745e-30
-6.61526e-30
-1.21195e-29
-1.87608e-29
-2.60175e-29
-3.30109e-29
-3.85367e-29
-4.11864e-29
-3.95785e-29
-3.27093e-29
-2.04083e-29
-3.85523e-30
1.39193e-29
2.7669e-29
2.98499e-29
1.09843e-29
-3.93879e-29
-1.31097e-28
-2.71137e-28
-4.61135e-28
-6.94999e-28
-9.57445e-28
-1.22399e-27
-1.46244e-27
-1.63449e-27
-1.69546e-27
-1.5923e-27
-1.26957e-27
-6.91369e-28
1.24834e-28
1.06712e-27
1.8811e-27
2.4095e-27
2.38975e-27
3.74312e-30
3.65234e-30
3.19751e-30
2.20968e-30
4.29786e-31
-2.41389e-30
-6.52683e-30
-1.19581e-29
-1.85104e-29
-2.56681e-29
-3.25637e-29
-3.80085e-29
-4.0612e-29
-3.90115e-29
-3.22172e-29
-2.0062e-29
-3.71157e-30
1.38423e-29
2.74227e-29
2.95877e-29
1.09924e-29
-3.8669e-29
-1.29069e-28
-2.67062e-28
-4.54191e-28
-6.84366e-28
-9.42427e-28
-1.20417e-27
-1.43781e-27
-1.60546e-27
-1.66239e-27
-1.5544e-27
-1.22373e-27
-6.33273e-28
1.96647e-28
1.145e-27
1.93343e-27
2.39343e-27
2.26521e-27
3.68746e-30
3.59801e-30
3.15053e-30
2.17792e-30
4.24769e-31
-2.37654e-30
-6.42815e-30
-1.17779e-29
-1.82308e-29
-2.52784e-29
-3.20656e-29
-3.74209e-29
-3.99747e-29
-3.83846e-29
-3.16766e-29
-1.96871e-29
-3.56571e-30
1.37394e-29
2.71289e-29
2.92754e-29
1.09818e-29
-3.78864e-29
-1.26826e-28
-2.62543e-28
-4.46488e-28
-6.7258e-28
-9.25809e-28
-1.18228e-27
-1.41068e-27
-1.57358e-27
-1.62622e-27
-1.51314e-27
-1.17406e-27
-5.70592e-28
2.73571e-28
1.2272e-27
1.98482e-27
2.36341e-27
2.10642e-27
3.62602e-30
3.5381e-30
3.09865e-30
2.14276e-30
4.19099e-31
-2.33543e-30
-6.3193e-30
-1.1579e-29
-1.79225e-29
-2.48491e-29
-3.15173e-29
-3.67751e-29
-3.92755e-29
-3.76991e-29
-3.10886e-29
-1.92843e-29
-3.41806e-30
1.36107e-29
2.67884e-29
2.89138e-29
1.09529e-29
-3.70411e-29
-1.24375e-28
-2.57591e-28
-4.38046e-28
-6.59677e-28
-9.07642e-28
-1.15841e-27
-1.38115e-27
-1.53898e-27
-1.58715e-27
-1.46882e-27
-1.12098e-27
-5.03928e-28
3.54716e-28
1.31248e-27
2.03358e-27
2.31658e-27
1.90841e-27
3.55889e-30
3.47269e-30
3.04193e-30
2.10425e-30
4.12798e-31
-2.29058e-30
-6.2004e-30
-1.13619e-29
-1.75859e-29
-2.43806e-29
-3.09197e-29
-3.6072e-29
-3.85156e-29
-3.69559e-29
-3.04541e-29
-1.88545e-29
-3.269e-30
1.34562e-29
2.64015e-29
2.85034e-29
1.09055e-29
-3.61353e-29
-1.21719e-28
-2.52217e-28
-4.28886e-28
-6.45692e-28
-8.87983e-28
-1.13261e-27
-1.34934e-27
-1.50183e-27
-1.54537e-27
-1.42172e-27
-1.06493e-27
-4.33932e-28
4.39123e-28
1.39954e-27
2.07807e-27
2.25024e-27
1.66919e-27
3.48616e-30
3.40185e-30
2.98044e-30
2.06243e-30
4.05874e-31
-2.24205e-30
-6.07161e-30
-1.11267e-29
-1.72215e-29
-2.38737e-29
-3.02735e-29
-3.53126e-29
-3.76962e-29
-3.61564e-29
-2.97743e-29
-1.83985e-29
-3.11893e-30
1.32759e-29
2.59685e-29
2.80445e-29
1.08389e-29
-3.51718e-29
-1.18868e-28
-2.46435e-28
-4.19034e-28
-6.30664e-28
-8.6689e-28
-1.10499e-27
-1.31535e-27
-1.46226e-27
-1.50109e-27
-1.37215e-27
-1.00637e-27
-3.61297e-28
5.25764e-28
1.48701e-27
2.11672e-27
2.16195e-27
1.38127e-27
3.40792e-30
3.32565e-30
2.91423e-30
2.01735e-30
3.98327e-31
-2.18992e-30
-5.93311e-30
-1.08737e-29
-1.68298e-29
-2.33291e-29
-2.95797e-29
-3.44981e-29
-3.68184e-29
-3.53016e-29
-2.90502e-29
-1.79169e-29
-2.96821e-30
1.307e-29
2.54897e-29
2.7537e-29
1.07523e-29
-3.41537e-29
-1.15827e-28
-2.40261e-28
-4.08515e-28
-6.14633e-28
-8.44424e-28
-1.07563e-27
-1.27931e-27
-1.42043e-27
-1.45453e-27
-1.32041e-27
-9.45775e-28
-2.86765e-28
6.13556e-28
1.5735e-27
2.14821e-27
2.04994e-27
1.04374e-27
3.32426e-30
3.24417e-30
2.8434e-30
1.96906e-30
3.90156e-31
-2.13426e-30
-5.7851e-30
-1.06034e-29
-1.64112e-29
-2.27475e-29
-2.88393e-29
-3.36295e-29
-3.58835e-29
-3.43928e-29
-2.82828e-29
-1.74106e-29
-2.81721e-30
1.28383e-29
2.49655e-29
2.69812e-29
1.06447e-29
-3.30845e-29
-1.12605e-28
-2.33709e-28
-3.97354e-28
-5.97643e-28
-8.20647e-28
-1.04462e-27
-1.24132e-27
-1.3765e-27
-1.40588e-27
-1.26683e-27
-8.83657e-28
-2.11116e-28
7.01365e-28
1.65764e-27
2.17146e-27
1.91314e-27
6.50877e-28
3.2353e-30
3.15752e-30
2.768e-30
1.9176e-30
3.81356e-31
-2.07516e-30
-5.62779e-30
-1.03161e-29
-1.59664e-29
-2.21297e-29
-2.80533e-29
-3.27082e-29
-3.48928e-29
-3.34314e-29
-2.74733e-29
-1.68804e-29
-2.6663e-30
1.25811e-29
2.43961e-29
2.63771e-29
1.05151e-29
-3.19678e-29
-1.0921e-28
-2.26795e-28
-3.8558e-28
-5.79737e-28
-7.95626e-28
-1.01204e-27
-1.20152e-27
-1.33062e-27
-1.35538e-27
-1.21172e-27
-8.20537e-28
-1.35169e-28
7.88018e-28
1.73807e-27
2.18577e-27
1.75167e-27
2.01556e-28
3.14114e-30
3.06579e-30
2.68814e-30
1.86303e-30
3.71923e-31
-2.01273e-30
-5.46142e-30
-1.00122e-29
-1.54961e-29
-2.14766e-29
-2.72228e-29
-3.17353e-29
-3.38476e-29
-3.24186e-29
-2.66229e-29
-1.6327e-29
-2.51585e-30
1.22985e-29
2.37821e-29
2.57249e-29
1.03624e-29
-3.08072e-29
-1.05651e-28
-2.19536e-28
-3.73222e-28
-5.60959e-28
-7.69426e-28
-9.77994e-28
-1.16002e-27
-1.28296e-27
-1.30322e-27
-1.15541e-27
-7.56945e-28
-5.97722e-29
8.72313e-28
1.81351e-27
2.19089e-27
1.56705e-27
-3.00585e-28
3.04189e-30
2.96909e-30
2.6039e-30
1.80541e-30
3.61854e-31
-1.94707e-30
-5.28623e-30
-9.69219e-30
-1.50008e-29
-2.07892e-29
-2.6349e-29
-3.07123e-29
-3.27496e-29
-3.1356e-29
-2.57328e-29
-1.57515e-29
-2.36619e-30
1.19905e-29
2.31238e-29
2.5025e-29
1.01859e-29
-2.96064e-29
-1.01936e-28
-2.11949e-28
-3.60307e-28
-5.41356e-28
-7.42115e-28
-9.42572e-28
-1.11695e-27
-1.23367e-27
-1.24962e-27
-1.09821e-27
-6.93423e-28
1.41991e-29
9.53032e-28
1.88271e-27
2.18706e-27
1.36238e-27
-8.53866e-28
2.93769e-30
2.86754e-30
2.51538e-30
1.7448e-30
3.51146e-31
-1.87827e-30
-5.10249e-30
-9.35647e-30
-1.44814e-29
-2.00683e-29
-2.5433e-29
-2.96406e-29
-3.16002e-29
-3.02451e-29
-2.48044e-29
-1.51546e-29
-2.2177e-30
1.16575e-29
2.24218e-29
2.42776e-29
9.98458e-30
-2.83692e-29
-9.80749e-29
-2.04051e-28
-3.46865e-28
-5.20973e-28
-7.13761e-28
-9.05868e-28
-1.07244e-27
-1.18291e-27
-1.19479e-27
-1.04044e-27
-6.30511e-28
8.58533e-29
1.02894e-27
1.94455e-27
2.17507e-27
1.14284e-27
-1.44961e-27
2.82866e-30
2.76127e-30
2.4227e-30
1.68127e-30
3.39796e-31
-1.80647e-30
-4.91046e-30
-9.00556e-30
-1.39384e-29
-1.93151e-29
-2.44763e-29
-2.85217e-29
-3.0401e-29
-2.90874e-29
-2.38389e-29
-1.45374e-29
-2.07071e-30
1.12997e-29
2.16768e-29
2.34833e-29
9.75769e-30
-2.70992e-29
-9.40759e-29
-1.95859e-28
-3.32926e-28
-4.99857e-28
-6.8443e-28
-8.67973e-28
-1.02659e-27
-1.13082e-27
-1.13891e-27
-9.82394e-28
-5.68741e-28
1.5429e-28
1.09883e-27
1.99799e-27
2.1562e-27
9.15795e-28
-2.07224e-27
2.71496e-30
2.65042e-30
2.32597e-30
1.61489e-30
3.27804e-31
-1.73177e-30
-4.71044e-30
-8.63996e-30
-1.33728e-29
-1.85305e-29
-2.34801e-29
-2.73573e-29
-2.91539e-29
-2.78846e-29
-2.28379e-29
-1.39007e-29
-1.92558e-30
1.09173e-29
2.08894e-29
2.26424e-29
9.50453e-30
-2.57999e-29
-8.99479e-29
-1.8739e-28
-3.18518e-28
-4.78053e-28
-6.54191e-28
-8.28981e-28
-9.79534e-28
-1.07755e-27
-1.08217e-27
-9.24353e-28
-5.08633e-28
2.1861e-28
1.16146e-27
2.04206e-27
2.1322e-27
6.90852e-28
-2.70066e-27
2.59674e-30
2.53513e-30
2.22532e-30
1.54575e-30
3.15173e-31
-1.65431e-30
-4.50274e-30
-8.26022e-30
-1.27854e-29
-1.77158e-29
-2.2446e-29
-2.6149e-29
-2.78606e-29
-2.66386e-29
-2.18028e-29
-1.32456e-29
-1.78265e-30
1.05106e-29
2.00604e-29
2.17558e-29
9.22453e-30
-2.44749e-29
-8.56997e-29
-1.78661e-28
-3.03672e-28
-4.55607e-28
-6.23108e-28
-7.88981e-28
-9.31381e-28
-1.02324e-27
-1.02474e-27
-8.66581e-28
-4.50685e-28
2.77927e-28
1.21564e-27
2.07585e-27
2.10513e-27
4.80001e-28
-3.30237e-27
2.47415e-30
2.41556e-30
2.12087e-30
1.47393e-30
3.01903e-31
-1.5742e-30
-4.28765e-30
-7.8669e-30
-1.21769e-29
-1.68722e-29
-2.13753e-29
-2.48985e-29
-2.65229e-29
-2.53511e-29
-2.07352e-29
-1.2573e-29
-1.64227e-30
1.00802e-29
1.91908e-29
2.0824e-29
8.9172e-30
-2.31276e-29
-8.13399e-29
-1.6969e-28
-2.88417e-28
-4.32564e-28
-5.91246e-28
-7.48059e-28
-8.82242e-28
-9.68027e-28
-9.66782e-28
-8.09316e-28
-3.95361e-28
3.31378e-28
1.2602e-27
2.09849e-27
2.0771e-27
2.97083e-28
-3.83126e-27
2.34736e-30
2.29188e-30
2.01278e-30
1.39952e-30
2.88e-31
-1.49159e-30
-4.06553e-30
-7.46057e-30
-1.15483e-29
-1.60007e-29
-2.02698e-29
-2.36077e-29
-2.51429e-29
-2.40239e-29
-1.96366e-29
-1.18842e-29
-1.50479e-30
9.62623e-30
1.82813e-29
1.98479e-29
8.58218e-30
-2.17611e-29
-7.68771e-29
-1.60493e-28
-2.72779e-28
-4.08967e-28
-5.58669e-28
-7.063e-28
-8.32221e-28
-9.12022e-28
-9.08438e-28
-7.52767e-28
-3.43086e-28
3.78144e-28
1.29399e-27
2.10907e-27
2.04994e-27
1.57249e-28
-4.2184e-27
2.21657e-30
2.16425e-30
1.90119e-30
1.32263e-30
2.73468e-31
-1.4066e-30
-3.83669e-30
-7.04185e-30
-1.09006e-29
-1.51028e-29
-1.91308e-29
-2.22784e-29
-2.37225e-29
-2.26592e-29
-1.85086e-29
-1.11801e-29
-1.37055e-30
9.14928e-30
1.7333e-29
1.88286e-29
8.21923e-30
-2.03786e-29
-7.23194e-29
-1.51086e-28
-2.56788e-28
-3.8486e-28
-5.25436e-28
-6.63783e-28
-7.81416e-28
-8.55341e-28
-8.49831e-28
-6.97112e-28
-2.94235e-28
4.17458e-28
1.31591e-27
2.10661e-27
2.0248e-27
7.50843e-29
-4.39392e-27
2.08195e-30
2.03287e-30
1.78626e-30
1.24334e-30
2.58317e-31
-1.31937e-30
-3.60149e-30
-6.61136e-30
-1.02346e-29
-1.41797e-29
-1.79603e-29
-2.09127e-29
-2.22639e-29
-2.12588e-29
-1.73531e-29
-1.04618e-29
-1.23991e-30
8.64977e-30
1.63469e-29
1.77669e-29
7.82825e-30
-1.8983e-29
-6.7675e-29
-1.41485e-28
-2.4047e-28
-3.60283e-28
-4.91606e-28
-6.20585e-28
-7.29921e-28
-7.98087e-28
-7.91069e-28
-6.42494e-28
-2.49121e-28
4.48629e-28
1.32492e-27
2.09e-27
2.00159e-27
6.27854e-29
-4.16888e-27
1.9437e-30
1.89792e-30
1.66814e-30
1.16177e-30
2.42553e-31
-1.23006e-30
-3.3603e-30
-6.16974e-30
-9.5514e-30
-1.32329e-29
-1.67598e-29
-1.95125e-29
-2.07691e-29
-1.98249e-29
-1.61718e-29
-9.73065e-30
-1.11321e-30
8.12821e-30
1.53242e-29
1.6664e-29
7.40923e-30
-1.75771e-29
-6.29516e-29
-1.31706e-28
-2.23851e-28
-3.35276e-28
-4.57234e-28
-5.76779e-28
-6.77821e-28
-7.40353e-28
-7.3224e-28
-5.89016e-28
-2.07991e-28
4.7106e-28
1.32005e-27
2.05794e-27
1.9785e-27
1.24244e-28
-3.53977e-27
1.80202e-30
1.7596e-30
1.54702e-30
1.07803e-30
2.2619e-31
-1.1388e-30
-3.11347e-30
-5.71766e-30
-8.85197e-30
-1.22636e-29
-1.55311e-29
-1.80799e-29
-1.92405e-29
-1.83596e-29
-1.49664e-29
-8.98766e-30
-9.90788e-31
7.58513e-30
1.42661e-29
1.55212e-29
6.96233e-30
-1.61635e-29
-5.81567e-29
-1.21764e-28
-2.06957e-28
-3.09877e-28
-4.22373e-28
-5.32432e-28
-6.25197e-28
-6.8222e-28
-6.73412e-28
-5.36745e-28
-1.71015e-28
4.84266e-28
1.30044e-27
2.00901e-27
1.95163e-27
2.48992e-28
-2.552e-27
1.65713e-30
1.61811e-30
1.42306e-30
9.92232e-31
2.09238e-31
-1.04575e-30
-2.8614e-30
-5.2558e-30
-8.13735e-30
-1.12734e-29
-1.42761e-29
-1.66169e-29
-1.76802e-29
-1.68651e-29
-1.37387e-29
-8.23409e-30
-8.73005e-31
7.0211e-30
1.31737e-29
1.43397e-29
6.48782e-30
-1.47447e-29
-5.32977e-29
-1.11674e-28
-1.89812e-28
-2.84123e-28
-3.87073e-28
-4.87606e-28
-5.7212e-28
-6.2376e-28
-6.14638e-28
-4.85705e-28
-1.3828e-28
4.87898e-28
1.26536e-27
1.94165e-27
1.91531e-27
4.12818e-28
-1.17599e-27
1.50924e-30
1.47368e-30
1.29645e-30
9.04501e-31
1.91711e-31
-9.51049e-31
-2.60446e-30
-4.78486e-30
-7.40864e-30
-1.02637e-29
-1.29966e-29
-1.51259e-29
-1.60907e-29
-1.53437e-29
-1.24908e-29
-7.47115e-30
-7.60202e-31
6.4367e-30
1.20485e-29
1.31209e-29
5.98609e-30
-1.33227e-29
-4.83814e-29
-1.01449e-28
-1.72439e-28
-2.58049e-28
-3.51381e-28
-4.4236e-28
-5.18655e-28
-5.65031e-28
-5.55948e-28
-4.35882e-28
-1.09787e-28
4.81755e-28
1.21428e-27
1.85438e-27
1.86286e-27
5.7503e-28
-2.29742e-28
1.35857e-30
1.32653e-30
1.16738e-30
8.14963e-31
1.73627e-31
-8.54863e-31
-2.34306e-30
-4.30555e-30
-6.66691e-30
-9.23602e-30
-1.16946e-29
-1.3609e-29
-1.44742e-29
-1.37976e-29
-1.12245e-29
-6.7001e-30
-6.52722e-31
5.83257e-30
1.08917e-29
1.18665e-29
5.45766e-30
-1.18998e-29
-4.34145e-29
-9.11025e-29
-1.54862e-28
-2.31687e-28
-3.15341e-28
-3.96746e-28
-4.6486e-28
-5.06086e-28
-4.97358e-28
-3.87222e-28
-8.54441e-29
4.65807e-28
1.14691e-27
1.74586e-27
1.78799e-27
7.08175e-28
3.9404e-28
1.20537e-30
1.17688e-30
1.03605e-30
7.23745e-31
1.55002e-31
-7.57344e-31
-2.07761e-30
-3.81861e-30
-5.91329e-30
-8.19193e-30
-1.0372e-29
-1.20684e-29
-1.28332e-29
-1.22292e-29
-9.94168e-30
-5.9222e-30
-5.50906e-31
5.20936e-30
9.70485e-30
1.05779e-29
4.90318e-30
-1.04778e-29
-3.84035e-29
-8.06482e-29
-1.37101e-28
-2.05068e-28
-2.78992e-28
-3.50815e-28
-4.10787e-28
-4.46965e-28
-4.38866e-28
-3.39634e-28
-6.50736e-29
4.40199e-28
1.06322e-27
1.61517e-27
1.68569e-27
7.96625e-28
7.76284e-28
1.04986e-30
1.02497e-30
9.02655e-31
6.30983e-31
1.35855e-31
-6.58652e-31
-1.8085e-30
-3.32477e-30
-5.14892e-30
-7.13298e-30
-9.03068e-30
-1.05066e-29
-1.11703e-29
-1.06409e-29
-8.64443e-30
-5.13875e-30
-4.55088e-31
4.56776e-30
8.48939e-30
9.25673e-30
4.32339e-30
-9.05846e-30
-3.33543e-29
-7.00984e-29
-1.19177e-28
-1.78223e-28
-2.42374e-28
-3.0461e-28
-3.56481e-28
-3.87699e-28
-3.80457e-28
-2.92993e-28
-4.84091e-29
4.05256e-28
9.63537e-28
1.46189e-27
1.55268e-27
8.32764e-28
9.72056e-28
8.92298e-31
8.71046e-31
7.67408e-31
5.36814e-31
1.16207e-31
-5.58946e-31
-1.53617e-30
-2.82479e-30
-4.37496e-30
-6.06078e-30
-7.6728e-30
-8.9258e-30
-9.48783e-30
-9.03514e-30
-7.33476e-30
-4.35103e-30
-3.65598e-31
3.90847e-30
7.24686e-30
7.90486e-30
3.71917e-30
-7.64326e-30
-2.82729e-29
-5.94651e-29
-1.0111e-28
-1.51178e-28
-2.05522e-28
-2.5817e-28
-3.01981e-28
-3.28314e-28
-3.22103e-28
-2.47142e-28
-3.51025e-29
3.61486e-28
8.48488e-28
1.28623e-27
1.3875e-27
8.14829e-28
1.02502e-27
7.32919e-31
7.15361e-31
6.3052e-31
4.4138e-31
9.608e-32
-4.58389e-31
-1.26103e-30
-2.31944e-30
-3.59259e-30
-4.97695e-30
-6.30037e-30
-7.32846e-30
-7.78843e-30
-7.4143e-30
-6.01469e-30
-3.56035e-30
-2.82757e-31
3.23223e-30
5.97886e-30
6.52406e-30
3.09147e-30
-6.23366e-30
-2.3165e-29
-4.87599e-29
-8.29182e-29
-1.23961e-28
-1.68468e-28
-2.11532e-28
-2.47319e-28
-2.68824e-28
-2.63763e-28
-2.01901e-28
-2.47313e-29
3.09562e-28
7.19066e-28
1.08918e-27
1.19059e-27
7.45316e-28
9.68957e-28
5.71978e-31
5.58172e-31
4.92208e-31
3.44823e-31
7.54972e-32
-3.57143e-31
-9.83509e-31
-1.80949e-30
-2.80299e-30
-3.88313e-30
-4.91547e-30
-5.71697e-30
-6.07467e-30
-5.78091e-30
-4.6863e-30
-2.76804e-30
-2.06876e-31
2.53983e-30
4.68702e-30
5.11623e-30
2.44137e-30
-4.83093e-30
-1.80358e-29
-3.79941e-29
-6.46208e-29
-9.65963e-29
-1.31243e-28
-1.64728e-28
-1.92525e-28
-2.09242e-28
-2.05393e-28
-1.57066e-28
-1.68073e-29
2.50312e-28
5.76586e-28
8.72468e-28
9.6405e-28
6.29953e-28
8.2941e-28
4.09728e-31
3.99748e-31
3.52696e-31
2.47293e-31
5.44835e-32
-2.55374e-31
-7.04049e-31
-1.29573e-30
-2.00737e-30
-2.78099e-30
-3.52019e-30
-4.09379e-30
-4.34916e-30
-4.13746e-30
-3.35165e-30
-1.97541e-30
-1.38254e-31
1.83207e-30
3.37304e-30
3.68332e-30
1.77001e-30
-3.43625e-30
-1.28906e-29
-2.71786e-29
-4.62348e-29
-6.91084e-29
-9.38747e-29
-1.17788e-28
-1.37621e-28
-1.49573e-28
-1.46937e-28
-1.12419e-28
-1.0787e-29
1.847e-28
4.22658e-28
6.38563e-28
7.11556e-28
4.77027e-28
6.30137e-28
2.46425e-31
2.40364e-31
2.12207e-31
1.48939e-31
3.30652e-32
-1.53245e-31
-4.23081e-31
-7.78946e-31
-1.20696e-30
-1.6722e-30
-2.11667e-30
-2.4614e-30
-2.61452e-30
-2.48648e-30
-2.01285e-30
-1.18377e-30
-7.71766e-32
1.10977e-30
2.03865e-30
2.22736e-30
1.07861e-30
-2.05069e-30
-7.73455e-30
-1.6324e-29
-2.77776e-29
-4.15202e-29
-5.63911e-29
-7.07377e-29
-8.26302e-29
-8.98189e-29
-8.83406e-29
-6.77319e-29
-6.08225e-30
1.13799e-28
2.59136e-28
3.9064e-28
4.38037e-28
2.9675e-28
3.90828e-28
8.23235e-32
8.03034e-32
7.09724e-32
4.99125e-32
1.12695e-32
-5.09237e-32
-1.41048e-31
-2.59944e-31
-4.02976e-31
-5.58473e-31
-7.07039e-31
-8.22265e-31
-8.73419e-31
-8.30525e-31
-6.7199e-31
-3.94461e-31
-2.39123e-32
3.73814e-31
6.85636e-31
7.50419e-31
3.68473e-31
-6.75231e-31
-2.57259e-30
-5.44081e-30
-9.2657e-30
-1.38543e-29
-1.88176e-29
-2.36029e-29
-2.7569e-29
-2.99799e-29
-2.95464e-29
-2.27711e-29
-2.07191e-30
3.87694e-29
8.80601e-29
1.32467e-28
1.49436e-28
1.00803e-28
1.31741e-28
-1.10154e-20
-5.95789e-21
-3.65644e-21
-1.34452e-21
-1.56013e-21
-6.15079e-22
-3.23017e-22
-1.70886e-22
-1.06339e-22
-8.62833e-23
-3.30559e-23
-1.69513e-23
-9.62187e-24
-6.43897e-24
-4.4361e-24
-1.6951e-24
-8.3862e-25
-4.47709e-25
-2.42935e-25
-1.10008e-25
5.40269e-26
9.60876e-26
1.13316e-25
1.20595e-25
1.23288e-25
)
;

boundaryField
{
    fixedWallsLeftTop
    {
        type            zeroGradient;
    }
    backFaceLeftTop
    {
        type            zeroGradient;
    }
    frontFaceLeftTop
    {
        type            zeroGradient;
    }
    symmetryWallLeftTop
    {
        type            fixedValue;
        value           uniform 0;
    }
    topToBottom
    {
        type            zeroGradient;
    }
    plug
    {
        type            cyclicAMI;
        value           nonuniform List<scalar> 
40
(
4.22437e-26
4.22717e-26
4.24025e-26
4.2586e-26
4.98648e-26
4.24022e-26
4.21698e-26
4.19858e-26
4.10052e-26
4.09321e-26
4.0869e-26
4.09126e-26
4.1011e-26
4.78306e-26
4.01813e-26
3.98728e-26
3.71918e-26
3.7047e-26
3.6916e-26
3.6799e-26
3.67924e-26
3.68436e-26
4.3186e-26
3.5702e-26
2.96218e-26
2.93519e-26
2.91974e-26
2.90631e-26
2.89491e-26
2.89495e-26
2.9015e-26
3.47213e-26
1.01754e-26
9.95085e-27
9.80596e-27
9.78788e-27
9.81386e-27
9.88312e-27
1.00414e-26
1.02722e-26
)
;
    }
    fixedWallsChannel
    {
        type            zeroGradient;
    }
    inlet
    {
        type            zeroGradient;
    }
    outlet
    {
        type            cyclicAMI;
        value           nonuniform List<scalar> 5(4.34808e-26 4.18034e-26 3.77636e-26 3.00348e-26 9.96635e-27);
    }
    backFaceInletChannel
    {
        type            zeroGradient;
    }
    frontFaceInletChannel
    {
        type            zeroGradient;
    }
}


// ************************************************************************* //
