/*--------------------------------*- C++ -*----------------------------------*\
| =========                 |                                                 |
| \\      /  F ield         | OpenFOAM: The Open Source CFD Toolbox           |
|  \\    /   O peration     | Version:  4.1                                   |
|   \\  /    A nd           | Web:      www.OpenFOAM.org                      |
|    \\/     M anipulation  |                                                 |
\*---------------------------------------------------------------------------*/
FoamFile
{
    version     2.0;
    format      ascii;
    class       surfaceScalarField;
    location    "4";
    object      phi;
}
// * * * * * * * * * * * * * * * * * * * * * * * * * * * * * * * * * * * * * //

dimensions      [0 3 -1 0 0 0 0];

internalField   nonuniform List<scalar> 
3240
(
-6.5912e-25
-6.69076e-25
9.95278e-27
-6.6919e-25
-6.6919e-25
-6.69048e-25
-6.83061e-25
1.39769e-26
-6.83118e-25
-6.83118e-25
-6.82962e-25
-7.02458e-25
1.94216e-26
-7.02451e-25
-7.02295e-25
-7.44951e-25
4.256e-26
-7.44893e-25
-7.44893e-25
-7.44723e-25
-7.99047e-25
5.41762e-26
-7.98921e-25
-7.98746e-25
-8.83647e-25
8.47113e-26
-8.83465e-25
-8.83465e-25
-8.83274e-25
-9.93425e-25
1.09897e-25
-9.9318e-25
-9.93179e-25
-9.92971e-25
-1.13937e-24
1.46077e-25
-1.13907e-24
-1.13884e-24
-1.34359e-24
2.04364e-25
-1.34324e-24
-1.34324e-24
-1.34299e-24
-1.61689e-24
2.73431e-25
-1.61649e-24
-1.61621e-24
-1.9881e-24
3.71355e-25
-1.98766e-24
-1.98766e-24
-1.89996e-24
-1.81277e-24
-1.72625e-24
-1.59187e-24
-1.14762e-24
-3.82623e-25
-1.02343e-24
-9.34428e-25
-8.45974e-25
-7.81344e-25
-7.16834e-25
-6.53389e-25
-5.90015e-25
-4.79088e-25
-1.41505e-25
-3.22847e-25
-3.75788e-26
2.77721e-26
7.13169e-26
1.15636e-25
1.59983e-25
2.03813e-25
2.48036e-25
3.39374e-25
6.34183e-25
-3.22367e-25
7.22372e-25
7.18322e-25
7.1449e-25
7.11559e-25
7.09035e-25
7.06374e-25
7.04364e-25
7.4805e-25
9.86071e-25
-3.47199e-25
8.31832e-25
6.33909e-25
4.36144e-25
2.39236e-25
4.25319e-26
-1.5452e-25
-3.51891e-25
-5.28742e-25
-4.79178e-25
-5.30834e-26
-4.23057e-25
-5.59851e-26
-4.22799e-25
-3.7053e-25
-5.22885e-26
-3.703e-25
-3.16237e-25
-5.4034e-26
-2.83747e-25
-3.22496e-26
-2.8356e-25
-2.46176e-25
-3.73213e-26
-2.26778e-25
-1.91237e-26
-2.26621e-25
-2.02022e-25
-2.4487e-26
-2.01883e-25
-1.73691e-25
-2.80942e-26
-1.57649e-25
-1.57655e-26
-1.57531e-25
-1.38265e-25
-1.91371e-26
-1.38163e-25
-1.18138e-25
-1.99188e-26
-1.04194e-25
-1.3709e-26
-1.04111e-25
-8.97001e-26
-1.43135e-26
-7.88221e-26
-1.06773e-26
-7.8749e-26
-6.73634e-26
-1.12883e-26
-6.73033e-26
-5.77105e-26
-9.51288e-27
-4.86098e-26
-8.95513e-27
-4.85576e-26
-3.9966e-26
-8.52154e-27
-3.99224e-26
-3.3569e-26
-6.29872e-27
-2.61565e-26
-7.30987e-27
-2.61189e-26
-1.98644e-26
-6.21817e-27
-1.32215e-26
-6.55593e-27
-1.31819e-26
-6.28485e-27
-6.86682e-27
-6.24402e-27
-6.23252e-27
5.96123e-30
-5.96123e-30
1.21918e-29
-6.19331e-30
1.89019e-29
-6.67026e-30
2.63554e-29
-7.40376e-30
3.48332e-29
-8.41601e-30
4.4645e-29
-9.74133e-30
5.6141e-29
-1.14271e-29
6.97274e-29
-1.35367e-29
8.58865e-29
-1.61525e-29
1.05203e-28
-1.93808e-29
1.28397e-28
-2.3356e-29
1.56366e-28
-2.8247e-29
1.9023e-28
-3.42627e-29
2.31392e-28
-4.16579e-29
2.81595e-28
-5.07395e-29
3.42987e-28
-6.18719e-29
4.18184e-28
-7.54832e-29
5.1033e-28
-9.20728e-29
6.23162e-28
-1.12223e-28
7.6107e-28
-1.36619e-28
9.29178e-28
-1.66072e-28
1.13346e-27
-2.01561e-28
1.3809e-27
-2.44281e-28
1.67974e-27
-2.95695e-28
2.0398e-27
-3.57579e-28
2.47283e-27
-4.32017e-28
2.99288e-27
-5.21288e-28
3.61629e-27
-6.27493e-28
4.36096e-27
-7.51829e-28
5.24428e-27
-8.9337e-28
6.27897e-27
-1.04739e-27
7.46597e-27
-1.20265e-27
8.78061e-27
-1.33466e-27
1.01473e-26
-1.39276e-27
1.13971e-26
-1.28198e-27
1.22065e-26
-8.44526e-28
1.20376e-26
1.4031e-28
1.02579e-26
1.77308e-27
4.03566e-27
5.95362e-30
-1.18735e-29
1.21764e-29
-1.23307e-29
1.88783e-29
-1.32733e-29
2.63227e-29
-1.47314e-29
3.47901e-29
-1.6757e-29
4.459e-29
-1.94258e-29
5.6072e-29
-2.28384e-29
6.96418e-29
-2.71244e-29
8.57809e-29
-3.24472e-29
1.05073e-28
-3.9011e-29
1.28237e-28
-4.70689e-29
1.56168e-28
-5.69333e-29
1.89986e-28
-6.89884e-29
2.31092e-28
-8.37056e-29
2.81227e-28
-1.01661e-28
3.42537e-28
-1.23555e-28
4.17634e-28
-1.5024e-28
5.09663e-28
-1.82745e-28
6.22354e-28
-2.22313e-28
7.60094e-28
-2.70439e-28
9.28005e-28
-3.28924e-28
1.13205e-27
-3.99925e-28
1.37921e-27
-4.86016e-28
1.67771e-27
-5.90243e-28
2.03736e-27
-7.16143e-28
2.46991e-27
-8.67695e-28
2.98942e-27
-1.0491e-27
3.61228e-27
-1.26423e-27
4.35646e-27
-1.51544e-27
5.2395e-27
-1.80154e-27
6.27442e-27
-2.1142e-27
7.46266e-27
-2.43143e-27
8.7806e-27
-2.70333e-27
1.01545e-26
-2.82586e-27
1.14176e-26
-2.60379e-27
1.22491e-26
-1.71633e-27
1.2106e-26
2.67336e-28
1.0351e-26
3.58616e-27
7.58358e-27
5.93534e-30
-1.7769e-29
1.21387e-29
-1.84531e-29
1.882e-29
-1.98613e-29
2.62417e-29
-2.20428e-29
3.46834e-29
-2.50792e-29
4.44535e-29
-2.90866e-29
5.59006e-29
-3.4218e-29
6.94289e-29
-4.06685e-29
8.55183e-29
-4.86822e-29
1.04751e-28
-5.85611e-29
1.27842e-28
-7.06774e-29
1.55686e-28
-8.54886e-29
1.89398e-28
-1.03557e-28
2.30374e-28
-1.25572e-28
2.80351e-28
-1.52384e-28
3.41469e-28
-1.85032e-28
4.16334e-28
-2.24791e-28
5.0808e-28
-2.7322e-28
6.20429e-28
-3.32214e-28
7.57755e-28
-4.04072e-28
9.25165e-28
-4.91562e-28
1.12861e-27
-5.98002e-28
1.37504e-27
-7.27322e-28
1.67268e-27
-8.8413e-28
2.0313e-27
-1.07372e-27
2.46266e-27
-1.30197e-27
2.98082e-27
-1.57506e-27
3.60223e-27
-1.89867e-27
4.34502e-27
-2.27645e-27
5.227e-27
-2.70705e-27
6.26173e-27
-3.17885e-27
7.45179e-27
-3.65965e-27
8.7757e-27
-4.07524e-27
1.01633e-26
-4.26979e-27
1.14531e-26
-3.94939e-27
1.23285e-26
-2.62898e-27
1.22387e-26
3.42367e-28
1.05109e-26
5.37411e-27
1.16057e-26
5.90798e-30
-2.36384e-29
1.20824e-29
-2.45498e-29
1.87327e-29
-2.64226e-29
2.61202e-29
-2.93249e-29
3.45231e-29
-3.33677e-29
4.42482e-29
-3.87069e-29
5.56426e-29
-4.55472e-29
6.91083e-29
-5.41486e-29
8.51232e-29
-6.48351e-29
1.04266e-28
-7.80066e-29
1.2725e-28
-9.41545e-29
1.54963e-28
-1.13882e-28
1.88517e-28
-1.3793e-28
2.29301e-28
-1.67209e-28
2.79045e-28
-2.02843e-28
3.39879e-28
-2.46212e-28
4.14397e-28
-2.99015e-28
5.0572e-28
-3.63334e-28
6.17554e-28
-4.41715e-28
7.54255e-28
-5.37247e-28
9.20907e-28
-6.53655e-28
1.12344e-27
-7.95397e-28
1.36877e-27
-9.67746e-28
1.66509e-27
-1.17686e-27
2.02217e-27
-1.42977e-27
2.45173e-27
-1.7343e-27
2.96788e-27
-2.09861e-27
3.58712e-27
-2.53031e-27
4.32779e-27
-3.03443e-27
5.20813e-27
-3.60974e-27
6.2425e-27
-4.24172e-27
7.43516e-27
-4.88884e-27
8.76792e-27
-5.4541e-27
1.01762e-26
-5.73214e-27
1.15059e-26
-5.33244e-27
1.24473e-26
-3.60408e-27
1.244e-26
3.38408e-28
1.07601e-26
7.11958e-27
1.6217e-26
5.87153e-30
-2.94725e-29
1.20075e-29
-3.06106e-29
1.86166e-29
-3.29456e-29
2.59585e-29
-3.65647e-29
3.43095e-29
-4.16078e-29
4.39746e-29
-4.82703e-29
5.52985e-29
-5.68077e-29
6.86809e-29
-6.75444e-29
8.45963e-29
-8.08836e-29
1.0362e-28
-9.73226e-29
1.26461e-28
-1.17472e-28
1.54001e-28
-1.4208e-28
1.87346e-28
-1.72067e-28
2.27876e-28
-2.08566e-28
2.77311e-28
-2.52971e-28
3.37767e-28
-3.07006e-28
4.11824e-28
-3.7279e-28
5.02585e-28
-4.52929e-28
6.13733e-28
-5.5061e-28
7.49599e-28
-6.69704e-28
9.15238e-28
-8.14885e-28
1.11654e-27
-9.91734e-28
1.36041e-27
-1.20685e-27
1.65498e-27
-1.46794e-27
2.00999e-27
-1.78378e-27
2.43716e-27
-2.16412e-27
2.95061e-27
-2.61919e-27
3.56695e-27
-3.15858e-27
4.30478e-27
-3.7889e-27
5.18285e-27
-4.50933e-27
6.21662e-27
-5.30302e-27
7.41255e-27
-6.12027e-27
8.7568e-27
-6.84325e-27
1.01921e-26
-7.22006e-27
1.15751e-26
-6.76632e-27
1.2605e-26
-4.66348e-27
1.27112e-26
2.26088e-28
1.1124e-26
8.78127e-27
2.01174e-26
5.82602e-30
-3.5262e-29
1.19141e-29
-3.66253e-29
1.84719e-29
-3.94193e-29
2.57568e-29
-4.37499e-29
3.4043e-29
-4.97858e-29
4.36331e-29
-5.77609e-29
5.4869e-29
-6.79816e-29
6.81473e-29
-8.08355e-29
8.39387e-29
-9.68047e-29
1.02814e-28
-1.16483e-28
1.25476e-28
-1.40599e-28
1.52802e-28
-1.70047e-28
1.85886e-28
-2.05925e-28
2.261e-28
-2.49586e-28
2.75149e-28
-3.02698e-28
3.35135e-28
-3.67323e-28
4.08619e-28
-4.46e-28
4.98678e-28
-5.41853e-28
6.08969e-28
-6.58704e-28
7.43792e-28
-8.01202e-28
9.08164e-28
-9.74954e-28
1.10794e-27
-1.18666e-27
1.34996e-27
-1.44424e-27
1.64234e-27
-1.75691e-27
1.99477e-27
-2.13521e-27
2.41896e-27
-2.59086e-27
2.92903e-27
-3.13617e-27
3.54174e-27
-3.78284e-27
4.27596e-27
-4.53927e-27
5.1511e-27
-5.40537e-27
6.18393e-27
-6.36274e-27
7.38364e-27
-7.35485e-27
8.74173e-27
-8.24556e-27
1.02103e-26
-8.74009e-27
1.16592e-26
-8.26392e-27
1.28006e-26
-5.82933e-27
1.30534e-26
-2.59952e-29
1.15774e-26
1.03435e-26
2.54895e-26
5.7715e-30
-4.09978e-29
1.18023e-29
-4.25843e-29
1.82986e-29
-4.5833e-29
2.55153e-29
-5.08688e-29
3.3724e-29
-5.78882e-29
4.32243e-29
-6.71636e-29
5.43549e-29
-7.90513e-29
6.75085e-29
-9.40017e-29
8.31516e-29
-1.12575e-28
1.01849e-28
-1.35461e-28
1.24298e-28
-1.63505e-28
1.51366e-28
-1.97745e-28
1.84139e-28
-2.39457e-28
2.23975e-28
-2.90213e-28
2.72564e-28
-3.51953e-28
3.31988e-28
-4.27072e-28
4.04784e-28
-5.18528e-28
4.94004e-28
-6.29957e-28
6.03269e-28
-7.65814e-28
7.36842e-28
-9.31513e-28
8.99695e-28
-1.13359e-27
1.09763e-27
-1.37984e-27
1.33746e-27
-1.6795e-27
1.62721e-27
-2.04331e-27
1.97655e-27
-2.48357e-27
2.39714e-27
-3.01395e-27
2.90317e-27
-3.64893e-27
3.51148e-27
-4.40243e-27
4.24132e-27
-5.28483e-27
5.11281e-27
-6.29729e-27
6.14424e-27
-7.42064e-27
7.34801e-27
-8.59317e-27
8.72195e-27
-9.66338e-27
1.02293e-26
-1.02981e-26
1.17566e-26
-9.83748e-27
1.30327e-26
-7.12397e-27
1.34682e-26
-4.52206e-28
1.21833e-26
1.17296e-26
2.92687e-26
5.70805e-30
-4.66707e-29
1.16724e-29
-4.84779e-29
1.80972e-29
-5.21765e-29
2.52346e-29
-5.79098e-29
3.3353e-29
-6.59019e-29
4.27488e-29
-7.64633e-29
5.37569e-29
-8.99994e-29
6.67656e-29
-1.07023e-28
8.22362e-29
-1.28171e-28
1.00728e-28
-1.54227e-28
1.22929e-28
-1.86155e-28
1.49698e-28
-2.25134e-28
1.82109e-28
-2.72616e-28
2.21506e-28
-3.30388e-28
2.69559e-28
-4.00661e-28
3.2833e-28
-4.86162e-28
4.00327e-28
-5.90261e-28
4.88569e-28
-7.17102e-28
5.96641e-28
-8.71764e-28
7.28759e-28
-1.06042e-27
8.89845e-28
-1.29052e-27
1.08565e-27
-1.57097e-27
1.3229e-27
-1.91227e-27
1.6096e-27
-2.32671e-27
1.95533e-27
-2.82833e-27
2.37174e-27
-3.43279e-27
2.87303e-27
-4.1568e-27
3.47619e-27
-5.01659e-27
4.20082e-27
-6.02483e-27
5.06787e-27
-7.18436e-27
6.09734e-27
-8.47624e-27
7.3052e-27
-9.83546e-27
8.69656e-27
-1.10985e-26
1.02478e-26
-1.18991e-26
1.18651e-26
-1.14985e-26
1.32996e-26
-8.56993e-27
1.39555e-26
-1.08866e-27
1.28848e-26
1.29187e-26
3.33339e-26
5.63577e-30
-5.22719e-29
1.15244e-29
-5.4297e-29
1.78679e-29
-5.84398e-29
2.49149e-29
-6.48618e-29
3.29305e-29
-7.38144e-29
4.22073e-29
-8.56455e-29
5.30759e-29
-1.00809e-28
6.59197e-29
-1.19879e-28
8.11939e-29
-1.43569e-28
9.94505e-29
-1.72756e-28
1.2137e-28
-2.08517e-28
1.47799e-28
-2.52174e-28
1.79798e-28
-3.05351e-28
2.18695e-28
-3.70052e-28
2.66139e-28
-4.4875e-28
3.24166e-28
-5.44503e-28
3.95254e-28
-6.61087e-28
4.82383e-28
-8.0315e-28
5.89095e-28
-9.76385e-28
7.19555e-28
-1.18772e-27
8.78627e-28
-1.4455e-27
1.07199e-27
-1.75973e-27
1.30633e-27
-2.14219e-27
1.58954e-27
-2.60667e-27
1.93115e-27
-3.16898e-27
2.34278e-27
-3.84679e-27
2.83863e-27
-4.65908e-27
3.43586e-27
-5.62456e-27
4.15444e-27
-6.75842e-27
5.0162e-27
-8.06575e-27
6.04298e-27
-9.52891e-27
7.25468e-27
-1.10816e-26
8.66454e-27
-1.2552e-26
1.02638e-26
-1.35474e-26
1.19823e-26
-1.32577e-26
1.35989e-26
-1.01899e-26
1.45158e-26
-1.9744e-27
1.37014e-26
1.38713e-26
3.767e-26
5.55479e-30
-5.77927e-29
1.13587e-29
-6.00323e-29
1.7611e-29
-6.46131e-29
2.45568e-29
-7.17139e-29
3.24573e-29
-8.16133e-29
4.16008e-29
-9.46959e-29
5.23131e-29
-1.11463e-28
6.49721e-29
-1.32551e-28
8.00264e-29
-1.58745e-28
9.80201e-29
-1.91017e-28
1.19623e-28
-2.30557e-28
1.45672e-28
-2.78824e-28
1.7721e-28
-3.37615e-28
2.15547e-28
-4.09144e-28
2.62309e-28
-4.96146e-28
3.19503e-28
-6.02004e-28
3.89571e-28
-7.30896e-28
4.75453e-28
-8.87966e-28
5.80642e-28
-1.07951e-27
7.09243e-28
-1.3132e-27
8.66058e-28
-1.59829e-27
1.0567e-27
-1.94583e-27
1.28775e-27
-2.3689e-27
1.56704e-27
-2.88277e-27
1.90404e-27
-3.50501e-27
2.31029e-27
-4.25535e-27
2.80001e-27
-5.15508e-27
3.3905e-27
-6.22553e-27
4.10215e-27
-7.4847e-27
4.95767e-27
-8.94053e-27
5.98087e-27
-1.05778e-26
7.19587e-27
-1.23311e-26
8.62473e-27
-1.40246e-26
1.02754e-26
-1.52461e-26
1.2105e-26
-1.51246e-26
1.39275e-26
-1.20065e-26
1.51496e-26
-3.15205e-27
1.46533e-26
1.45278e-26
4.12169e-26
5.46522e-30
-6.32244e-29
1.11755e-29
-6.56751e-29
1.7327e-29
-7.06867e-29
2.41608e-29
-7.84555e-29
3.1934e-29
-8.92865e-29
4.09301e-29
-1.036e-28
5.14696e-29
-1.21946e-28
6.39243e-29
-1.45018e-28
7.87355e-29
-1.73677e-28
9.64385e-29
-2.08984e-28
1.17693e-28
-2.52241e-28
1.4332e-28
-3.05044e-28
1.74349e-28
-3.69358e-28
2.12067e-28
-4.47605e-28
2.58075e-28
-5.42778e-28
3.14347e-28
-6.58579e-28
3.83288e-28
-7.99582e-28
4.67791e-28
-9.71418e-28
5.71294e-28
-1.18099e-27
6.9784e-28
-1.43668e-27
8.52157e-28
-1.74864e-27
1.03977e-27
-2.12898e-27
1.26719e-27
-2.59204e-27
1.54215e-27
-3.15458e-27
1.87403e-27
-3.83593e-27
2.2743e-27
-4.65787e-27
2.7572e-27
-5.64409e-27
3.34014e-27
-6.81867e-27
4.04391e-27
-8.20275e-27
4.89218e-27
-9.80768e-27
5.91074e-27
-1.16218e-26
7.12812e-27
-1.35831e-26
8.57587e-27
-1.55162e-26
1.02803e-26
-1.69976e-26
1.22297e-26
-1.71074e-26
1.42817e-26
-1.4042e-26
1.58568e-26
-4.668e-27
1.57209e-26
1.48475e-26
4.64667e-26
5.36722e-30
-6.85587e-29
1.0975e-29
-7.12166e-29
1.70162e-29
-7.66513e-29
2.37276e-29
-8.50762e-29
3.13614e-29
-9.6822e-29
4.01963e-29
-1.12345e-28
5.05468e-29
-1.32241e-28
6.27779e-29
-1.57261e-28
7.73232e-29
-1.88341e-28
9.47082e-29
-2.26629e-28
1.15581e-28
-2.73536e-28
1.40747e-28
-3.30794e-28
1.71219e-28
-4.00531e-28
2.0826e-28
-4.85376e-28
2.53443e-28
-5.88573e-28
3.08707e-28
-7.14139e-28
3.76415e-28
-8.67037e-28
4.59409e-28
-1.05338e-27
5.61066e-28
-1.28065e-27
6.85361e-28
-1.55797e-27
8.36943e-28
-1.89633e-27
1.02125e-27
-2.30891e-27
1.24469e-27
-2.81128e-27
1.5149e-27
-3.4217e-27
1.84115e-27
-4.16123e-27
2.23485e-27
-5.05375e-27
2.71021e-27
-6.12539e-27
3.28477e-27
-7.40315e-27
3.97972e-27
-8.91156e-27
4.81962e-27
-1.06661e-26
5.83229e-27
-1.26598e-26
7.0508e-27
-1.48363e-26
8.51662e-27
-1.70259e-26
1.02759e-26
-1.88026e-26
1.23523e-26
-1.92129e-26
1.46566e-26
-1.63184e-26
1.66374e-26
-6.57359e-27
1.69856e-26
1.47078e-26
4.93593e-26
5.26092e-30
-7.37873e-29
1.07576e-29
-7.66483e-29
1.66792e-29
-8.24977e-29
2.32577e-29
-9.15656e-29
3.07405e-29
-1.04208e-28
3.94004e-29
-1.20917e-28
4.95459e-29
-1.42332e-28
6.15348e-29
-1.69263e-28
7.57917e-29
-2.02715e-28
9.28319e-29
-2.43924e-28
1.1329e-28
-2.9441e-28
1.37958e-28
-3.56034e-28
1.67825e-28
-4.31087e-28
2.04132e-28
-5.22398e-28
2.4842e-28
-6.33461e-28
3.02591e-28
-7.686e-28
3.68961e-28
-9.33157e-28
4.50318e-28
-1.13372e-27
5.49973e-28
-1.37835e-27
6.71827e-28
-1.67686e-27
8.2044e-28
-2.04112e-27
1.00116e-27
-2.48532e-27
1.22027e-27
-3.02627e-27
1.48532e-27
-3.6837e-27
1.80545e-27
-4.48042e-27
2.19199e-27
-5.44239e-27
2.6591e-27
-6.59826e-27
3.22444e-27
-7.97808e-27
3.90954e-27
-9.61012e-27
4.73987e-27
-1.15144e-26
5.74523e-27
-1.36902e-26
6.96322e-27
-1.60893e-26
8.44555e-27
-1.85521e-26
1.02595e-26
-2.06609e-26
1.24681e-26
-2.14458e-26
1.50464e-26
-1.88562e-26
1.74886e-26
-8.9235e-27
1.83716e-26
1.4059e-26
5.42828e-26
5.14651e-30
-7.89021e-29
1.05237e-29
-8.19616e-29
1.63165e-29
-8.82168e-29
2.2752e-29
-9.79138e-29
3.00722e-29
-1.11434e-28
3.85438e-29
-1.29302e-28
4.84687e-29
-1.52203e-28
6.01967e-29
-1.81003e-28
7.41433e-29
-2.16776e-28
9.08125e-29
-2.60844e-28
1.10825e-28
-3.1483e-28
1.34956e-28
-3.80725e-28
1.64173e-28
-4.60979e-28
1.9969e-28
-5.58616e-28
2.43015e-28
-6.77374e-28
2.96009e-28
-8.21876e-28
3.60939e-28
-9.97842e-28
4.40533e-28
-1.21231e-27
5.38033e-28
-1.47393e-27
6.57256e-28
-1.79319e-27
8.02672e-28
-2.1828e-27
9.79518e-28
-2.65796e-27
1.19398e-27
-3.2367e-27
1.45345e-27
-3.94019e-27
1.76697e-27
-4.79301e-27
2.14575e-27
-5.8232e-27
2.60391e-27
-7.06199e-27
3.15915e-27
-8.5426e-27
3.83336e-27
-1.02973e-26
4.65284e-27
-1.23515e-26
5.64927e-27
-1.47116e-26
6.8647e-27
-1.73398e-26
8.36121e-27
-2.00925e-26
1.02281e-26
-2.25704e-26
1.25717e-26
-2.38084e-26
1.54437e-26
-2.16742e-26
1.84079e-26
-1.17774e-26
1.99805e-26
1.27461e-26
5.46199e-26
5.02415e-30
-8.38951e-29
1.02735e-29
-8.71485e-29
1.59286e-29
-9.37998e-29
2.22112e-29
-1.04111e-28
2.93574e-29
-1.18487e-28
3.76278e-29
-1.37488e-28
4.73167e-29
-1.6184e-28
5.87658e-29
-1.92465e-28
7.23806e-29
-2.30504e-28
8.8653e-29
-2.77362e-28
1.08189e-28
-3.34765e-28
1.31746e-28
-4.0483e-28
1.60267e-28
-4.90161e-28
1.94939e-28
-5.93973e-28
2.37234e-28
-7.20242e-28
2.8897e-28
-8.73887e-28
3.5236e-28
-1.06099e-27
4.30068e-28
-1.28905e-27
5.25262e-28
-1.56724e-27
6.41672e-28
-1.90676e-27
7.83666e-28
-2.32114e-27
9.56369e-28
-2.82655e-27
1.16584e-27
-3.44222e-27
1.41934e-27
-4.19077e-27
1.72576e-27
-5.0985e-27
2.0962e-27
-6.19557e-27
2.54469e-27
-7.51583e-27
3.08896e-27
-9.09581e-27
3.75119e-27
-1.09721e-26
4.55843e-27
-1.31759e-26
5.54414e-27
-1.5722e-26
6.7546e-27
-1.85856e-26
8.26209e-27
-2.16439e-26
1.01786e-26
-2.45276e-26
1.26571e-26
-2.63001e-26
1.58396e-26
-2.47883e-26
1.93888e-26
-1.51976e-26
2.16553e-26
1.07644e-26
5.74535e-26
4.89405e-30
-8.87588e-29
1.00074e-29
-9.22009e-29
1.55162e-29
-9.9238e-29
2.16362e-29
-1.10148e-28
2.85974e-29
-1.25358e-28
3.66537e-29
-1.45462e-28
4.60917e-29
-1.71228e-28
5.72442e-29
-2.0363e-28
7.05063e-29
-2.43876e-28
8.63569e-29
-2.93452e-28
1.05387e-28
-3.54184e-28
1.28332e-28
-4.2831e-28
1.56115e-28
-5.18587e-28
1.89888e-28
-6.28416e-28
2.31089e-28
-7.62002e-28
2.81486e-28
-9.24552e-28
3.43238e-28
-1.1225e-27
4.1894e-28
-1.36379e-27
5.11681e-28
-1.65815e-27
6.25097e-28
-2.01742e-27
7.63449e-28
-2.45592e-27
9.31742e-28
-2.99083e-27
1.13589e-27
-3.64253e-27
1.38303e-27
-4.43506e-27
1.68188e-27
-5.39643e-27
2.04339e-27
-6.55894e-27
2.48149e-27
-7.95908e-27
3.01391e-27
-9.6368e-27
3.66304e-27
-1.16333e-26
4.45659e-27
-1.39861e-26
5.4296e-27
-1.67194e-26
6.63227e-27
-1.98237e-26
8.14675e-27
-2.3202e-26
1.01077e-26
-2.6527e-26
1.27176e-26
-2.8917e-26
1.62233e-26
-2.82105e-26
2.04273e-26
-1.92538e-26
2.35228e-26
7.97734e-27
6.55512e-26
4.75639e-30
-9.34855e-29
9.72592e-30
-9.71111e-29
1.50798e-29
-1.04523e-28
2.10277e-29
-1.16014e-28
2.77933e-29
-1.32036e-28
3.5623e-29
-1.53211e-28
4.47956e-29
-1.80351e-28
5.56344e-29
-2.14481e-28
6.85232e-29
-2.56872e-28
8.39276e-29
-3.09091e-28
1.02422e-28
-3.73058e-28
1.24721e-28
-4.51131e-28
1.51722e-28
-5.46215e-28
1.84545e-28
-6.61889e-28
2.24587e-28
-8.02587e-28
2.73568e-28
-9.73793e-28
3.33586e-28
-1.18229e-27
4.07166e-28
-1.43644e-27
4.9731e-28
-1.74651e-27
6.07556e-28
-2.12497e-27
7.42053e-28
-2.58694e-27
9.05673e-28
-3.15054e-27
1.10419e-27
-3.83731e-27
1.34457e-27
-4.67266e-27
1.63538e-27
-5.68633e-27
1.98739e-27
-6.91271e-27
2.41438e-27
-8.391e-27
2.93405e-27
-1.01647e-26
3.56893e-27
-1.22798e-26
4.34726e-27
-1.47806e-26
5.30542e-27
-1.77018e-26
6.49714e-27
-2.10511e-26
8.01375e-27
-2.47621e-26
1.00121e-26
-2.85613e-26
1.27458e-26
-3.16514e-26
1.65816e-26
-3.19473e-26
2.15165e-26
-2.40219e-26
2.58256e-26
3.99843e-27
6.36338e-26
4.6114e-30
-9.8068e-29
9.42943e-30
-1.01871e-28
1.46201e-29
-1.09647e-28
2.03868e-29
-1.21702e-28
2.69463e-29
-1.3851e-28
3.45374e-29
-1.60725e-28
4.34304e-29
-1.89197e-28
5.39387e-29
-2.25001e-28
6.64344e-29
-2.69473e-28
8.1369e-29
-3.24253e-28
9.92989e-29
-3.91356e-28
1.20918e-28
-4.73257e-28
1.47095e-28
-5.73e-28
1.78917e-28
-6.94343e-28
2.17738e-28
-8.41935e-28
2.65228e-28
-1.02153e-27
3.2342e-28
-1.24026e-27
3.94764e-28
-1.50688e-27
4.82172e-28
-1.83218e-27
5.89077e-28
-2.22926e-27
7.19509e-28
-2.714e-27
8.78203e-28
-3.30544e-27
1.07078e-27
-4.02625e-27
1.30403e-27
-4.90321e-27
1.58632e-27
-5.96773e-27
1.92826e-27
-7.25631e-27
2.34343e-27
-8.81088e-27
2.84945e-27
-1.06785e-26
3.4689e-27
-1.29102e-26
4.23041e-27
-1.55577e-26
5.17145e-27
-1.86668e-26
6.3487e-27
-2.22642e-26
7.86178e-27
-2.63183e-26
9.88848e-27
-3.06212e-26
1.2734e-26
-3.44907e-26
1.68986e-26
-3.59974e-26
2.26373e-26
-2.95751e-26
2.82108e-26
-1.22597e-27
6.77426e-26
4.4593e-30
-1.02499e-28
9.1184e-30
-1.06475e-28
1.41379e-29
-1.14602e-28
1.97145e-29
-1.27202e-28
2.60577e-29
-1.44771e-28
3.33985e-29
-1.6799e-28
4.19982e-29
-1.97751e-28
5.21599e-29
-2.35175e-28
6.42432e-29
-2.81658e-28
7.86848e-29
-3.38915e-28
9.60228e-29
-4.09052e-28
1.16928e-28
-4.94654e-28
1.42241e-28
-5.98903e-28
1.73013e-28
-7.25727e-28
2.10554e-28
-8.79987e-28
2.56479e-28
-1.0677e-27
3.12755e-28
-1.29631e-27
3.81752e-28
-1.575e-27
4.66288e-28
-1.91503e-27
5.69688e-28
-2.33013e-27
6.95852e-28
-2.8369e-27
8.4937e-28
-3.45529e-27
1.0357e-27
-4.20906e-27
1.26144e-27
-5.12633e-27
1.53478e-27
-6.24017e-27
1.86607e-27
-7.58919e-27
2.26872e-27
-9.218e-27
2.76018e-27
-1.11774e-26
3.363e-27
-1.35236e-26
4.10605e-27
-1.63158e-26
5.02756e-27
-1.96119e-26
6.18653e-27
-2.3459e-26
7.68967e-27
-2.78642e-26
9.73371e-27
-3.26954e-26
1.26738e-26
-3.74177e-26
1.71555e-26
-4.03492e-26
2.37713e-26
-3.59876e-26
3.09693e-26
-8.05974e-27
7.99922e-26
4.30031e-30
-1.06772e-28
8.7933e-30
-1.10914e-28
1.36339e-29
-1.1938e-28
1.90118e-29
-1.32506e-28
2.51289e-29
-1.50808e-28
3.22081e-29
-1.74997e-28
4.05013e-29
-2.06e-28
5.03005e-29
-2.44986e-28
6.19529e-29
-2.93409e-28
7.58793e-29
-3.53055e-28
9.25987e-29
-4.26117e-28
1.12758e-28
-5.15288e-28
1.37168e-28
-6.23883e-28
1.66843e-28
-7.55993e-28
2.03046e-28
-9.16682e-28
2.47334e-28
-1.11222e-27
3.01607e-28
-1.35037e-27
3.6815e-28
-1.6407e-27
4.49684e-28
-1.99494e-27
5.49417e-28
-2.42742e-27
6.71116e-28
-2.95545e-27
8.19219e-28
-3.59985e-27
9.99009e-28
-4.38545e-27
1.21689e-27
-5.34168e-27
1.48082e-27
-6.50323e-27
1.80092e-27
-7.91078e-27
2.19035e-27
-9.61167e-27
2.66633e-27
-1.16604e-26
3.25131e-27
-1.41185e-26
3.9742e-27
-1.70532e-26
4.87367e-27
-2.05346e-26
6.01032e-27
-2.46316e-26
7.49642e-27
-2.93926e-26
9.54482e-27
-3.47707e-26
1.25565e-26
-4.04094e-26
1.733e-26
-4.49777e-26
2.48884e-26
-4.33259e-26
3.44907e-26
-1.72868e-26
7.75701e-26
4.1347e-30
-1.10881e-28
8.45465e-30
-1.15181e-28
1.31089e-29
-1.23974e-28
1.82797e-29
-1.37605e-28
2.41613e-29
-1.56612e-28
3.0968e-29
-1.81734e-28
3.89418e-29
-2.13931e-28
4.83636e-29
-2.5442e-28
5.95671e-29
-3.04708e-28
7.29568e-29
-3.66651e-28
8.90319e-29
-4.42526e-28
1.08414e-28
-5.35129e-28
1.31884e-28
-6.47901e-28
1.60415e-28
-7.85093e-28
1.95224e-28
-9.51964e-28
2.37808e-28
-1.15503e-27
2.89994e-28
-1.40235e-27
3.53981e-28
-1.70386e-27
4.32385e-28
-2.07178e-27
5.28295e-28
-2.52097e-27
6.4534e-28
-3.06946e-27
7.87795e-28
-3.7389e-27
9.6076e-28
-4.55514e-27
1.17043e-27
-5.54891e-27
1.42452e-27
-6.75647e-27
1.73288e-27
-8.22054e-27
2.1084e-27
-9.99119e-27
2.56801e-27
-1.21267e-26
3.13392e-27
-1.46939e-26
3.83495e-27
-1.77681e-26
4.70979e-27
-2.14324e-26
5.81988e-27
-2.57776e-26
7.2813e-27
-3.08957e-26
9.31927e-27
-3.6832e-26
1.23738e-26
-4.34369e-26
1.73961e-26
-4.98409e-26
2.593e-26
-5.16245e-26
3.82847e-26
-2.92596e-26
8.40339e-26
3.96271e-30
-1.14818e-28
8.10295e-30
-1.19272e-28
1.25636e-29
-1.28377e-28
1.75194e-29
-1.42493e-28
2.31565e-29
-1.62175e-28
2.96801e-29
-1.8819e-28
3.73222e-29
-2.21533e-28
4.63521e-29
-2.63461e-28
5.70894e-29
-3.15538e-28
6.99218e-29
-3.79682e-28
8.53278e-29
-4.58253e-28
1.03903e-28
-5.54144e-28
1.26396e-28
-6.70921e-28
1.53741e-28
-8.12984e-28
1.87102e-28
-9.85779e-28
2.27915e-28
-1.19606e-27
2.77933e-28
-1.45216e-27
3.39264e-28
-1.76441e-27
4.14417e-28
-2.14542e-27
5.06356e-28
-2.61064e-27
6.18562e-28
-3.17875e-27
7.55145e-28
-3.8722e-27
9.2101e-28
-4.71787e-27
1.12213e-27
-5.74768e-27
1.36595e-27
-6.99946e-27
1.66206e-27
-8.51795e-27
2.02298e-27
-1.03559e-26
2.46532e-27
-1.25753e-26
3.01096e-27
-1.52484e-26
3.68837e-27
-1.84588e-26
4.53598e-27
-2.23024e-26
5.61516e-27
-2.68927e-26
7.04385e-27
-3.23654e-26
9.05508e-27
-3.8863e-26
1.21177e-26
-4.64657e-26
1.73248e-26
-5.48758e-26
2.68247e-26
-6.08755e-26
4.28155e-26
-4.48669e-26
7.32448e-26
3.78461e-30
-1.18578e-28
7.73875e-30
-1.23178e-28
1.1999e-29
-1.32581e-28
1.67321e-29
-1.4716e-28
2.21159e-29
-1.67488e-28
2.83464e-29
-1.94356e-28
3.56451e-29
-2.28793e-28
4.4269e-29
-2.72097e-28
5.45236e-29
-3.25881e-28
6.6779e-29
-3.92128e-28
8.14921e-29
-4.73273e-28
9.92324e-29
-5.72306e-28
1.20713e-28
-6.92907e-28
1.46829e-28
-8.39621e-28
1.7869e-28
-1.01808e-27
2.17671e-28
-1.23524e-27
2.65444e-28
-1.49974e-27
3.24023e-28
-1.82223e-27
3.95809e-28
-2.21577e-27
4.83632e-28
-2.6963e-27
5.90824e-28
-3.28315e-27
7.21319e-28
-3.99957e-27
8.79817e-28
-4.87336e-27
1.07205e-27
-5.93766e-27
1.30521e-27
-7.23181e-27
1.58854e-27
-8.80249e-27
1.9342e-27
-1.07051e-26
2.35839e-27
-1.30053e-26
2.88254e-27
-1.57809e-26
3.53463e-27
-1.91235e-26
4.35237e-27
-2.31421e-26
5.39625e-27
-2.79722e-26
6.78394e-27
-3.37933e-26
8.75097e-27
-4.0846e-26
1.17813e-26
-4.94557e-26
1.70849e-26
-5.99955e-26
2.74653e-26
-7.09952e-26
4.75391e-26
-6.45604e-26
6.8935e-26
3.60067e-30
-1.22156e-28
7.36261e-30
-1.26894e-28
1.14158e-29
-1.36581e-28
1.5919e-29
-1.51601e-28
2.10412e-29
-1.72543e-28
2.69689e-29
-2.00223e-28
3.39129e-29
-2.357e-28
4.21177e-29
-2.80313e-28
5.18737e-29
-3.35721e-28
6.35332e-29
-4.03969e-28
7.75308e-29
-4.87564e-28
9.44083e-29
-5.89585e-28
1.14845e-28
-7.13824e-28
1.3969e-28
-8.64964e-28
1.70004e-28
-1.0488e-27
2.07091e-28
-1.27252e-27
2.52544e-28
-1.54501e-27
3.08282e-28
-1.87725e-27
3.76587e-28
-2.2827e-27
4.60158e-28
-2.77781e-27
5.62167e-28
-3.3825e-27
6.86367e-28
-4.12078e-27
8.37245e-28
-5.02138e-27
1.02029e-27
-6.11856e-27
1.24239e-27
-7.45313e-27
1.51244e-27
-9.07366e-27
1.84219e-27
-1.10381e-26
2.24737e-27
-1.34159e-26
2.74884e-27
-1.62901e-26
3.37388e-27
-1.97605e-26
4.15917e-27
-2.39488e-26
5.16341e-27
-2.90119e-26
6.50184e-27
-3.5171e-26
8.40659e-27
-4.27628e-26
1.13597e-26
-5.23624e-26
1.6645e-26
-6.50868e-26
2.7723e-26
-8.1803e-26
5.28776e-26
-8.93423e-26
6.62716e-26
3.41118e-30
-1.25545e-28
6.97512e-30
-1.30415e-28
1.0815e-29
-1.40371e-28
1.50813e-29
-1.55807e-28
1.9934e-29
-1.77332e-28
2.55498e-29
-2.05781e-28
3.21284e-29
-2.42244e-28
3.99013e-29
-2.88096e-28
4.91437e-29
-3.45044e-28
6.01894e-29
-4.15188e-28
7.34499e-29
-5.01104e-28
8.94388e-29
-6.05956e-28
1.08799e-28
-7.33642e-28
1.32337e-28
-8.88974e-28
1.61055e-28
-1.07791e-27
1.96191e-28
-1.30784e-27
2.39255e-28
-1.5879e-27
2.92064e-28
-1.92937e-27
3.56783e-28
-2.34611e-27
4.3597e-28
-2.85503e-27
5.32636e-28
-3.47664e-27
6.50343e-28
-4.23566e-27
7.93358e-28
-5.16168e-27
9.66906e-28
-6.29008e-27
1.17757e-27
-7.66304e-27
1.43386e-27
-9.331e-27
1.74708e-27
-1.13544e-26
2.1324e-27
-1.38063e-26
2.61002e-27
-1.67749e-26
3.20635e-27
-2.03681e-26
3.95664e-27
-2.47199e-26
4.91704e-27
-3.00073e-26
6.19816e-27
-3.64905e-26
8.0226e-27
-4.45956e-26
1.08507e-26
-5.51385e-26
1.59764e-26
-7.00104e-26
2.74219e-26
-9.29707e-26
5.91116e-26
-1.2067e-25
7.27439e-26
3.21643e-30
-1.2874e-28
6.57686e-30
-1.33734e-28
1.01976e-29
-1.43944e-28
1.42203e-29
-1.59774e-28
1.8796e-29
-1.81847e-28
2.40913e-29
-2.11022e-28
3.02943e-29
-2.48415e-28
3.76234e-29
-2.95436e-28
4.6338e-29
-3.53836e-28
5.67527e-29
-4.25767e-28
6.92558e-29
-5.13871e-28
8.43313e-29
-6.21393e-28
1.02586e-28
-7.52328e-28
1.24779e-28
-9.11613e-28
1.51858e-28
-1.10536e-27
1.84989e-28
-1.34114e-27
2.25596e-28
-1.62833e-27
2.75394e-28
-1.97851e-27
3.36426e-28
-2.4059e-27
4.11105e-28
-2.92785e-27
5.02275e-28
-3.56543e-27
6.13302e-28
-4.34401e-27
7.48222e-28
-5.29404e-27
9.11987e-28
-6.45192e-27
1.11085e-27
-7.86118e-27
1.35292e-27
-9.57403e-27
1.64901e-27
-1.16534e-26
2.01366e-27
-1.41756e-26
2.46629e-27
-1.72342e-26
3.03228e-27
-2.09447e-26
3.74514e-27
-2.54528e-26
4.65771e-27
-3.09544e-26
5.87396e-27
-3.77441e-26
7.60088e-27
-4.63272e-26
1.02558e-26
-5.77365e-26
1.5058e-26
-7.46045e-26
2.63147e-26
-1.03944e-25
6.68455e-26
-1.60853e-25
-2.07059e-25
3.01672e-30
-1.31737e-28
6.16846e-30
-1.36847e-28
9.56438e-30
-1.47295e-28
1.33374e-29
-1.63494e-28
1.7629e-29
-1.86082e-28
2.25956e-29
-2.15937e-28
2.84134e-29
-2.54202e-28
3.52874e-29
-3.0232e-28
4.34608e-29
-3.62082e-28
5.32286e-29
-4.35689e-28
6.49549e-29
-5.25846e-28
7.90939e-29
-6.35871e-28
9.62145e-29
-7.69855e-28
1.1703e-28
-9.32847e-28
1.42427e-28
-1.1311e-27
1.73501e-28
-1.37237e-27
2.11589e-28
-1.66626e-27
2.58298e-28
-2.02461e-27
3.15548e-28
-2.46198e-27
3.85602e-28
-2.99616e-27
4.71132e-28
-3.64872e-27
5.753e-28
-4.44567e-27
7.01906e-28
-5.41823e-27
8.55617e-28
-6.60382e-27
1.04233e-27
-8.04722e-27
1.26974e-27
-9.80232e-27
1.54812e-27
-1.19344e-26
1.89131e-27
-1.45231e-26
2.31788e-27
-1.76669e-26
2.85195e-27
-2.14887e-26
3.52508e-27
-2.61453e-26
4.38612e-27
-3.18493e-26
5.53063e-27
-3.89248e-26
7.14451e-27
-4.79422e-26
9.5811e-27
-6.01121e-26
1.38844e-26
-7.86959e-26
2.40386e-26
-1.13811e-25
6.50078e-26
-2.01488e-25
-4.63869e-25
2.81236e-30
-1.3453e-28
5.75054e-30
-1.39749e-28
8.91642e-30
-1.50419e-28
1.24338e-29
-1.66962e-28
1.64348e-29
-1.9003e-28
2.10649e-29
-2.20519e-28
2.64887e-29
-2.59598e-28
3.2897e-29
-3.08738e-28
4.05165e-29
-3.69769e-28
4.96223e-29
-4.4494e-28
6.05539e-29
-5.3701e-28
7.37345e-29
-6.4937e-28
8.96949e-29
-7.86195e-28
1.09099e-28
-9.52642e-28
1.32776e-28
-1.1551e-27
1.61746e-28
-1.40149e-27
1.97255e-28
-1.70161e-27
2.40803e-28
-2.06758e-27
2.9418e-28
-2.51427e-27
3.595e-28
-3.05985e-27
4.39254e-28
-3.72638e-27
5.36398e-28
-4.54046e-27
6.54483e-28
-5.53407e-27
7.9788e-28
-6.74553e-27
9.72129e-28
-8.22083e-27
1.18446e-27
-1.00155e-26
1.44457e-27
-1.21969e-26
1.76556e-27
-1.4848e-26
2.165e-27
-1.80719e-26
2.66569e-27
-2.19986e-26
3.29692e-27
-2.6795e-26
4.1031e-27
-3.26884e-26
5.16993e-27
-4.00265e-26
6.6577e-27
-4.94279e-26
8.83773e-27
-6.22278e-26
1.24797e-26
-8.21244e-26
2.05313e-26
-1.21573e-25
5.45154e-26
-2.35155e-25
-7.31649e-25
2.60365e-30
-1.37117e-28
5.32375e-30
-1.42436e-28
8.25469e-30
-1.53311e-28
1.15111e-29
-1.70172e-28
1.52153e-29
-1.93684e-28
1.95018e-29
-2.24761e-28
2.45231e-29
-2.64593e-28
3.04557e-29
-3.1468e-28
3.75096e-29
-3.76887e-28
4.59395e-29
-4.53505e-28
5.60595e-29
-5.47347e-28
6.82615e-29
-6.61867e-28
8.30369e-29
-8.01322e-28
1.01001e-28
-9.70969e-28
1.2292e-28
-1.17732e-27
1.49741e-28
-1.42844e-27
1.82616e-28
-1.73434e-27
2.22936e-28
-2.10736e-27
2.72357e-28