/*--------------------------------*- C++ -*----------------------------------*\
| =========                 |                                                 |
| \\      /  F ield         | OpenFOAM: The Open Source CFD Toolbox           |
|  \\    /   O peration     | Version:  4.1                                   |
|   \\  /    A nd           | Web:      www.OpenFOAM.org                      |
|    \\/     M anipulation  |                                                 |
\*---------------------------------------------------------------------------*/
FoamFile
{
    version     2.0;
    format      ascii;
    class       volVectorField;
    location    "4";
    object      U;
}
// * * * * * * * * * * * * * * * * * * * * * * * * * * * * * * * * * * * * * //

dimensions      [0 1 -1 0 0 0 0];

internalField   nonuniform List<vector> 
1705
(
(-9.30277e-62 -3.45584e-28 -2.88748e-30)
(-1.46795e-60 -8.73778e-29 8.93127e-30)
(1.04077e-62 -3.50879e-28 1.47252e-29)
(1.48142e-58 -5.93009e-28 3.76172e-30)
(8.57635e-56 -3.33092e-28 -8.79601e-30)
(3.30481e-53 -9.80862e-29 3.5594e-29)
(1.56185e-51 -3.88514e-28 9.51776e-30)
(6.61325e-49 -6.05208e-28 -9.03441e-30)
(1.4531e-46 -3.24244e-28 -1.46228e-29)
(6.34647e-44 -1.17712e-28 6.44069e-29)
(1.44279e-46 -4.3422e-28 3.1189e-30)
(5.15388e-49 -3.47844e-28 -4.65044e-30)
(1.06059e-50 -1.49429e-28 9.16103e-29)
(7.5764e-53 -4.76759e-28 2.01682e-29)
(2.54754e-50 -6.60052e-28 -1.4815e-30)
(9.19285e-48 -3.67526e-28 -1.24882e-29)
(7.28787e-47 -1.98729e-28 1.31877e-28)
(1.08342e-43 -5.58488e-28 1.37632e-29)
(6.93641e-46 -4.22535e-28 -1.42839e-30)
(8.81417e-48 -2.61865e-28 1.80939e-28)
(1.16741e-48 -6.41138e-28 3.83383e-29)
(5.57007e-46 -7.82757e-28 8.15841e-30)
(1.31527e-43 -4.80924e-28 -1.23288e-29)
(5.80047e-47 -3.47433e-28 2.47456e-28)
(4.42715e-48 -7.72153e-28 3.15274e-29)
(-1.90232e-45 -8.8004e-28 -9.56678e-30)
(-3.14825e-43 -5.59306e-28 -2.70035e-29)
(1.26462e-44 -4.5304e-28 3.32119e-28)
(-1.67211e-43 -9.32863e-28 1.99487e-29)
(-1.02515e-45 -6.88517e-28 -1.18427e-29)
(-1.54703e-46 -5.82588e-28 4.52668e-28)
(-3.09469e-43 -1.11568e-27 6.22036e-29)
(-2.76594e-45 -1.19042e-27 2.101e-30)
(-3.07276e-43 -8.36461e-28 -3.30646e-29)
(-1.13864e-46 -7.54853e-28 6.03334e-28)
(1.57613e-45 -1.38571e-27 4.92491e-29)
(2.34871e-42 -1.0552e-27 -7.70407e-30)
(1.938e-39 -9.68992e-28 8.26104e-28)
(1.06566e-37 -1.70802e-27 1.19055e-28)
(1.17456e-34 -1.79378e-27 4.55663e-29)
(1.13148e-33 -1.97034e-27 4.22647e-27)
(1.04224e-33 -2.43854e-27 4.20442e-27)
(3.33349e-34 -2.20064e-27 4.17653e-27)
(-1.13841e-31 2.09183e-26 6.4011e-27)
(2.21032e-32 -5.64403e-28 3.88312e-27)
(-1.13543e-31 -2.29214e-26 6.02431e-27)
(1.92996e-34 -4.48637e-28 4.27784e-27)
(5.51375e-34 -2.09071e-28 4.25508e-27)
(-5.67521e-33 -6.61555e-28 4.63489e-27)
(-5.43293e-33 -8.79823e-28 4.6298e-27)
(-5.52209e-33 -1.35433e-27 4.58257e-27)
(-7.65149e-33 -1.13979e-27 4.58202e-27)
(-3.24277e-31 2.19504e-26 6.71328e-27)
(6.04302e-32 2.44787e-28 4.08424e-27)
(-3.22935e-31 -2.20782e-26 6.47748e-27)
(8.50251e-34 4.67567e-28 4.65894e-27)
(1.24362e-32 6.74189e-28 4.88664e-27)
(4.53832e-33 1.90349e-28 4.92513e-27)
(4.49074e-33 -4.57093e-29 4.92687e-27)
(4.54168e-33 -5.37204e-28 4.90496e-27)
(1.22406e-32 -3.37866e-28 4.92589e-27)
(1.18377e-30 2.26058e-26 6.94569e-27)
(-2.25618e-31 7.73143e-28 4.12269e-27)
(1.16932e-30 -2.13833e-26 6.88065e-27)
(-2.88568e-33 1.15166e-27 4.88628e-27)
(3.34771e-33 1.30502e-27 4.90038e-27)
(3.48495e-33 7.83499e-28 4.94424e-27)
(3.5774e-33 5.14026e-28 4.96344e-27)
(3.65297e-33 -1.11189e-29 4.95899e-27)
(1.11811e-33 1.51818e-28 4.99183e-27)
(-3.81383e-31 2.24992e-26 6.85107e-27)
(6.95359e-32 3.25716e-27 3.77524e-27)
(-3.39328e-31 -1.83472e-26 6.01629e-27)
(-5.58661e-33 1.12958e-27 4.28231e-27)
(-3.49627e-33 1.12301e-27 4.29318e-27)
(-3.5274e-33 4.78217e-28 4.33566e-27)
(-3.57127e-33 7.38973e-29 4.3464e-27)
(-3.62223e-33 -4.56694e-28 4.33229e-27)
(-4.87417e-33 -6.56384e-28 4.31997e-27)
(-1.95692e-31 9.87038e-27 5.08469e-27)
(1.24755e-32 8.19923e-27 5.28077e-28)
(4.605e-37 -2.65959e-28 -1.09361e-28)
(2.3653e-38 -2.36748e-28 5.03428e-30)
(3.15798e-42 -1.58925e-28 -9.76462e-29)
(5.29825e-44 -1.7775e-28 -3.85719e-30)
(1.81049e-47 -1.62866e-28 -8.95213e-29)
(6.19247e-48 -1.49047e-28 -6.78379e-29)
(1.12955e-46 -1.1154e-28 -4.709e-31)
(2.71555e-43 -1.27654e-28 -6.39515e-29)
(-2.55968e-43 -1.04795e-28 -4.95178e-29)
(-1.54517e-46 -9.03042e-29 4.00968e-31)
(-3.97861e-48 -6.48944e-29 -4.87803e-29)
(2.76484e-47 -8.16428e-29 -3.74808e-30)
(1.28774e-43 -1.04468e-28 -4.77245e-29)
(-2.43678e-43 -6.20995e-29 -3.77797e-29)
(-1.5457e-46 -6.86836e-29 -2.80028e-30)
(-1.58583e-47 -5.23807e-29 -3.71791e-29)
(-7.84174e-44 -6.77157e-29 -5.89622e-30)
(2.24812e-43 -8.77401e-29 -3.70314e-29)
(-2.41159e-43 -3.44755e-29 -2.95417e-29)
(-1.45347e-46 -5.79078e-29 -4.39511e-30)
(-5.65425e-48 -8.02388e-29 -2.87869e-29)
(-5.55098e-48 -2.70582e-29 -2.37627e-29)
(-1.39699e-46 -4.98916e-29 -2.32093e-30)
(-2.24161e-43 -4.08988e-29 -2.30171e-29)
(-1.39812e-46 -5.17284e-29 -4.31889e-30)
(-5.58324e-48 -6.07553e-29 -2.21174e-29)
(-5.58299e-48 -1.60082e-29 -1.80646e-29)
(-1.42679e-46 -3.45379e-29 -2.20814e-30)
(-2.29797e-43 -2.97334e-29 -1.77099e-29)
(-2.8059e-46 -3.53366e-29 -3.33768e-30)
(-2.16037e-43 -3.79123e-29 -1.71382e-29)
(-4.89653e-47 -9.55178e-30 -1.42209e-29)
(-1.47152e-46 -2.07535e-29 -1.47862e-30)
(-2.23733e-43 -2.42241e-29 -1.39299e-29)
(-4.56777e-47 -8.41512e-30 -1.22994e-29)
(-2.5953e-48 -1.99859e-30 1.14771e-31)
(-5.33153e-48 -5.53324e-30 -1.26667e-29)
(-1.34312e-46 -6.96828e-31 7.6721e-31)
(-2.04618e-43 4.65324e-30 -1.27764e-29)
(-1.45546e-287 1.98707e-33 -9.93535e-33)
(-5.50085e-281 2.06446e-33 -3.0255e-32)
(-2.04378e-274 2.22346e-33 -5.18227e-32)
(-7.46013e-268 2.46797e-33 -7.54287e-32)
(-2.67353e-261 2.80539e-33 -1.01981e-31)
(-9.40052e-255 3.24715e-33 -1.32463e-31)
(-3.24064e-248 3.80907e-33 -1.67977e-31)
(-1.09442e-241 4.51224e-33 -2.0978e-31)
(-3.61782e-235 5.38418e-33 -2.59356e-31)
(-1.16961e-228 6.46027e-33 -3.18482e-31)
(-3.69448e-222 7.78537e-33 -3.89333e-31)
(-1.13905e-215 9.41572e-33 -4.74604e-31)
(-3.42397e-209 1.14209e-32 -5.77658e-31)
(-1.00233e-202 1.3886e-32 -7.02702e-31)
(-2.85383e-196 1.69131e-32 -8.54977e-31)
(-7.89203e-190 2.0624e-32 -1.04097e-30)
(-2.11661e-183 2.51611e-32 -1.26862e-30)
(-5.49643e-177 3.0691e-32 -1.54752e-30)
(-1.37954e-170 3.74079e-32 -1.88915e-30)
(-3.34006e-164 4.55396e-32 -2.30705e-30)
(-7.7841e-158 5.53571e-32 -2.81708e-30)
(-1.74207e-151 6.7187e-32 -3.43773e-30)
(-3.73403e-145 8.14269e-32 -4.1906e-30)
(-7.64301e-139 9.85649e-32 -5.10107e-30)
(-1.48896e-132 1.19193e-31 -6.19923e-30)
(-2.75047e-126 1.44006e-31 -7.52103e-30)
(-4.79703e-120 1.73762e-31 -9.1095e-30)
(-7.86036e-114 2.09164e-31 -1.10153e-29)
(-1.20318e-107 2.50609e-31 -1.32954e-29)
(-1.70892e-101 2.97789e-31 -1.60087e-29)
(-2.23429e-95 3.4913e-31 -1.92054e-29)
(-2.66305e-89 4.00884e-31 -2.29082e-29)
(-2.8593e-83 4.44885e-31 -2.70776e-29)
(-2.72424e-77 4.64254e-31 -3.15466e-29)
(-2.25858e-71 4.27326e-31 -3.59075e-29)
(-1.58694e-65 2.81507e-31 -3.93395e-29)
(-9.10085e-60 -4.67744e-32 -4.0407e-29)
(-4.02113e-54 -5.91036e-31 -3.71592e-29)
(-1.2398e-48 -1.34518e-30 -2.86226e-29)
(-3.43543e-291 5.94493e-33 -9.92264e-33)
(-1.28815e-284 6.17469e-33 -3.02166e-32)
(-4.74757e-278 6.64784e-33 -5.17578e-32)
(-1.71881e-271 7.37836e-33 -7.53348e-32)
(-6.10874e-265 8.391e-33 -1.01854e-31)
(-2.12983e-258 9.72238e-33 -1.323e-31)
(-7.27924e-252 1.14219e-32 -1.6777e-31)
(-2.43689e-245 1.35537e-32 -2.09522e-31)
(-7.98422e-239 1.61999e-32 -2.59037e-31)
(-2.55793e-232 1.94639e-32 -3.18089e-31)
(-8.00549e-226 2.3475e-32 -3.88848e-31)
(-2.44505e-219 2.83934e-32 -4.74007e-31)
(-7.27962e-213 3.4417e-32 -5.76922e-31)
(-2.11026e-206 4.17878e-32 -7.01796e-31)
(-5.94859e-200 5.08001e-32 -8.53863e-31)
(-1.62831e-193 6.18091e-32 -1.0396e-30)
(-4.3217e-187 7.52412e-32 -1.26695e-30)
(-1.11032e-180 9.1606e-32 -1.54549e-30)
(-2.7564e-174 1.11512e-31 -1.88669e-30)
(-6.59894e-168 1.35686e-31 -2.30407e-30)
(-1.52021e-161 1.64999e-31 -2.81349e-30)
(-3.36187e-155 2.00495e-31 -3.43342e-30)
(-7.11777e-149 2.43432e-31 -4.18543e-30)
(-1.43843e-142 2.95313e-31 -5.09486e-30)
(-2.76533e-136 3.57907e-31 -6.19177e-30)
(-5.03793e-130 4.33238e-31 -7.5121e-30)
(-8.65968e-124 5.23464e-31 -9.09887e-30)
(-1.39732e-117 6.30574e-31 -1.10028e-29)
(-2.10412e-111 7.55757e-31 -1.32812e-29)
(-2.93626e-105 8.98302e-31 -1.59932e-29)
(-3.76562e-99 1.05386e-30 -1.91898e-29)
(-4.39296e-93 1.21136e-30 -2.28951e-29)
(-4.60274e-87 1.34599e-30 -2.70721e-29)
(-4.26082e-81 1.40621e-30 -3.15584e-29)
(-3.40947e-75 1.29526e-30 -3.59535e-29)
(-2.28681e-69 8.53617e-31 -3.94447e-29)
(-1.22681e-63 -1.35883e-31 -4.05921e-29)
(-4.85329e-58 -1.78641e-30 -3.74286e-29)
(-1.17892e-52 -3.8731e-30 -2.8568e-29)
(9.51098e-289 9.88082e-33 -9.89216e-33)
(3.57012e-282 1.02613e-32 -3.01233e-32)
(1.31705e-275 1.10449e-32 -5.15977e-32)
(4.77213e-269 1.22581e-32 -7.51025e-32)
(1.6972e-262 1.39454e-32 -1.01541e-31)
(5.9205e-256 1.61708e-32 -1.31894e-31)
(2.02429e-249 1.90188e-32 -1.67256e-31)
(6.77852e-243 2.25976e-32 -2.08882e-31)
(2.22117e-236 2.70431e-32 -2.58245e-31)
(7.11582e-230 3.2524e-32 -3.17114e-31)
(2.22665e-223 3.92488e-32 -3.87654e-31)
(6.79856e-217 4.7474e-32 -4.72545e-31)
(2.02322e-210 5.7515e-32 -5.75137e-31)
(5.86163e-204 6.97593e-32 -6.99617e-31)
(1.65115e-197 8.46815e-32 -8.51206e-31)
(4.51593e-191 1.02862e-31 -1.03636e-30)
(1.19743e-184 1.25011e-31 -1.263e-30)
(3.07316e-178 1.51989e-31 -1.54069e-30)
(7.62042e-172 1.84842e-31 -1.88084e-30)
(1.82214e-165 2.24837e-31 -2.29697e-30)
(4.19233e-159 2.73495e-31 -2.80486e-30)
(9.25914e-153 3.32642e-31 -3.42295e-30)
(1.95784e-146 4.04446e-31 -4.17274e-30)
(3.95178e-140 4.91458e-31 -5.07952e-30)
(7.58888e-134 5.9662e-31 -6.17328e-30)
(1.38134e-127 7.23223e-31 -7.4899e-30)
(2.37306e-121 8.74722e-31 -9.07244e-30)
(3.82884e-115 1.0543e-30 -1.09717e-29)
(5.76901e-109 1.26396e-30 -1.32454e-29)
(8.0632e-103 1.50286e-30 -1.59533e-29)
(1.03713e-96 1.76435e-30 -1.91479e-29)
(1.21593e-90 2.03036e-30 -2.28558e-29)
(1.2841e-84 2.25952e-30 -2.70458e-29)
(1.20351e-78 2.36522e-30 -3.15651e-29)
(9.81898e-73 2.18439e-30 -3.60275e-29)
(6.79443e-67 1.44844e-30 -3.96361e-29)
(3.84293e-61 -2.03238e-31 -4.09456e-29)
(1.67917e-55 -2.98676e-30 -3.79164e-29)
(5.15108e-50 -6.39643e-30 -2.84998e-29)
(-1.4062e-287 1.38025e-32 -9.84656e-33)
(-5.31679e-281 1.43343e-32 -2.99839e-32)
(-1.97619e-274 1.5428e-32 -5.13584e-32)
(-7.21641e-268 1.71226e-32 -7.47547e-32)
(-2.58729e-261 1.94823e-32 -1.01072e-31)
(-9.10124e-255 2.25978e-32 -1.31285e-31)
(-3.13887e-248 2.65884e-32 -1.66484e-31)
(-1.06053e-241 3.16057e-32 -2.07918e-31)
(-3.50745e-235 3.78391e-32 -2.57052e-31)
(-1.13447e-228 4.55226e-32 -3.15648e-31)
(-3.58525e-222 5.4944e-32 -3.85859e-31)
(-1.10592e-215 6.64568e-32 -4.70354e-31)
(-3.32612e-209 8.04955e-32 -5.72465e-31)
(-9.74196e-203 9.7594e-32 -6.96362e-31)
(-2.77524e-196 1.18409e-31 -8.47242e-31)
(-7.67894e-190 1.43748e-31 -1.03154e-30)
(-2.06064e-183 1.74602e-31 -1.25712e-30)
(-5.35421e-177 2.12185e-31 -1.53352e-30)
(-1.34466e-170 2.57977e-31 -1.87212e-30)
(-3.25764e-164 3.13773e-31 -2.28634e-30)
(-7.59696e-158 3.81739e-31 -2.79193e-30)
(-1.70134e-151 4.64466e-31 -3.40723e-30)
(-3.64932e-145 5.65023e-31 -4.15367e-30)
(-7.47525e-139 6.86995e-31 -5.05643e-30)
(-1.45745e-132 8.34496e-31 -6.14542e-30)
(-2.69458e-126 1.01209e-30 -7.45648e-30)
(-4.70401e-120 1.22456e-30 -9.03266e-30)
(-7.71602e-114 1.47633e-30 -1.0925e-29)
(-1.18249e-107 1.77029e-30 -1.31915e-29)
(-1.68183e-101 2.1056e-30 -1.58932e-29)
(-2.20239e-95 2.47352e-30 -1.90843e-29)
(-2.63009e-89 2.8495e-30 -2.27961e-29)
(-2.83061e-83 3.17644e-30 -2.70051e-29)
(-2.70493e-77 3.33398e-30 -3.15735e-29)
(-2.25117e-71 3.09394e-30 -3.61369e-29)
(-1.58968e-65 2.07768e-30 -3.99222e-29)
(-9.1784e-60 -2.26929e-31 -4.14792e-29)
(-4.0942e-54 -4.16457e-30 -3.86672e-29)
(-1.28101e-48 -9.27427e-30 -2.93269e-29)
(3.93647e-289 1.77037e-32 -9.78582e-33)
(1.47706e-282 1.83868e-32 -2.97983e-32)
(5.44683e-276 1.97894e-32 -5.10401e-32)
(1.97276e-269 2.19632e-32 -7.42917e-32)
(7.01307e-263 2.49918e-32 -1.00446e-31)
(2.44535e-256 2.89924e-32 -1.30473e-31)
(8.35707e-250 3.41183e-32 -1.65455e-31)
(2.79709e-243 4.05643e-32 -2.06632e-31)
(9.16082e-237 4.85729e-32 -2.55461e-31)
(2.93326e-230 5.84431e-32 -3.13693e-31)
(9.1736e-224 7.05421e-32 -3.83467e-31)
(2.79936e-217 8.53206e-32 -4.67435e-31)
(8.32582e-211 1.03332e-31 -5.6891e-31)
(2.41064e-204 1.25258e-31 -6.92035e-31)
(6.78607e-198 1.51938e-31 -8.41976e-31)
(1.85475e-191 1.84406e-31 -1.02513e-30)
(4.91449e-185 2.23935e-31 -1.24931e-30)
(1.26035e-178 2.72088e-31 -1.52401e-30)
(3.12279e-172 3.30775e-31 -1.86052e-30)
(7.46083e-166 4.02317e-31 -2.27221e-30)
(1.71508e-159 4.89513e-31 -2.77472e-30)
(3.78446e-153 5.95711e-31 -3.38629e-30)
(7.99449e-147 7.24867e-31 -4.12824e-30)
(1.61199e-140 8.81598e-31 -5.02563e-30)
(3.09226e-134 1.07118e-30 -6.10826e-30)
(5.62211e-128 1.29947e-30 -7.41189e-30)
(9.64656e-122 1.5726e-30 -8.97959e-30)
(1.55438e-115 1.8963e-30 -1.08626e-29)
(2.33871e-109 2.27445e-30 -1.31195e-29)
(3.26374e-103 2.70636e-30 -1.58127e-29)
(4.19099e-97 3.18158e-30 -1.89991e-29)
(4.90455e-91 3.6697e-30 -2.27152e-29)
(5.16916e-85 4.09911e-30 -2.69489e-29)
(4.83398e-79 4.3174e-30 -3.15816e-29)
(3.93431e-73 4.03292e-30 -3.62787e-29)
(2.71543e-67 2.75585e-30 -4.03003e-29)
(1.53211e-61 -1.88171e-31 -4.21941e-29)
(6.68478e-56 -5.30029e-30 -3.97258e-29)
(2.05457e-50 -1.21114e-29 -3.08073e-29)
(-5.87342e-288 2.15782e-32 -9.70996e-33)
(-2.29381e-281 2.2412e-32 -2.95667e-32)
(-8.79996e-275 2.41216e-32 -5.06431e-32)
(-3.31441e-268 2.67716e-32 -7.37142e-32)
(-1.22479e-261 3.04646e-32 -9.96661e-32)
(-4.43766e-255 3.53437e-32 -1.2946e-31)
(-1.57535e-248 4.15964e-32 -1.6417e-31)
(-5.47519e-242 4.946e-32 -2.05027e-31)
(-1.86151e-235 5.92294e-32 -2.53476e-31)
(-6.18587e-229 7.12686e-32 -3.11254e-31)
(-2.00723e-222 8.60236e-32 -3.80483e-31)
(-6.35355e-216 1.04042e-31 -4.63795e-31)
(-1.95971e-209 1.25997e-31 -5.64478e-31)
(-5.88323e-203 1.52717e-31 -6.86641e-31)
(-1.71689e-196 1.85223e-31 -8.35413e-31)
(-4.8638e-190 2.24776e-31 -1.01714e-30)
(-1.33559e-183 2.7293e-31 -1.23959e-30)
(-3.54921e-177 3.31594e-31 -1.51216e-30)
(-9.11136e-171 4.03105e-31 -1.84607e-30)
(-2.25519e-164 4.90302e-31 -2.2546e-30)
(-5.37038e-158 5.96613e-31 -2.75325e-30)
(-1.22749e-151 7.26132e-31 -3.36016e-30)
(-2.68586e-145 8.83697e-31 -4.09649e-30)
(-5.60947e-139 1.07495e-30 -4.98716e-30)
(-1.11455e-132 1.30633e-30 -6.06184e-30)
(-2.09888e-126 1.58499e-30 -7.3562e-30)
(-3.73025e-120 1.91845e-30 -8.91329e-30)
(-6.22616e-114 2.31381e-30 -1.07846e-29)
(-9.70421e-108 2.77606e-30 -1.30295e-29)
(-1.40299e-101 3.3049e-30 -1.57117e-29)
(-1.86657e-95 3.88859e-30 -1.88917e-29)
(-2.26336e-89 4.49171e-30 -2.26126e-29)
(-2.47195e-83 5.0296e-30 -2.68756e-29)
(-2.39563e-77 5.32005e-30 -3.15867e-29)
(-2.02064e-71 5.01008e-30 -3.64492e-29)
(-1.4452e-65 3.4976e-30 -4.07664e-29)
(-8.44723e-60 -6.67044e-32 -4.30904e-29)
(-3.8146e-54 -6.37494e-30 -4.10519e-29)
(-1.2097e-48 -1.52024e-29 -3.1959e-29)
(-6.41574e-288 2.54199e-32 -9.6191e-33)
(-2.50028e-281 2.64032e-32 -2.92896e-32)
(-9.57283e-275 2.84174e-32 -5.01682e-32)
(-3.59869e-268 3.15396e-32 -7.30231e-32)
(-1.32747e-261 3.58913e-32 -9.8732e-32)
(-4.80164e-255 4.16415e-32 -1.28247e-31)
(-1.70187e-248 4.9011e-32 -1.62631e-31)
(-5.90611e-242 5.82791e-32 -2.03105e-31)
(-2.00521e-235 6.97932e-32 -2.511e-31)
(-6.65462e-229 8.39812e-32 -3.08334e-31)
(-2.15666e-222 1.01368e-31 -3.76912e-31)
(-6.81865e-216 1.22597e-31 -4.5944e-31)
(-2.10089e-209 1.48461e-31 -5.59175e-31)
(-6.30065e-203 1.79933e-31 -6.8019e-31)
(-1.83696e-196 2.18217e-31 -8.27564e-31)
(-5.19936e-190 2.64798e-31 -1.00758e-30)
(-1.42656e-183 3.21509e-31 -1.22795e-30)
(-3.78807e-177 3.90603e-31 -1.49798e-30)
(-9.7177e-171 4.74839e-31 -1.82878e-30)
(-2.40371e-164 5.77572e-31 -2.23351e-30)
(-5.72061e-158 7.02847e-31 -2.72755e-30)
(-1.30682e-151 8.55501e-31 -3.32887e-30)
(-2.858e-145 1.04125e-30 -4.05847e-30)
(-5.96623e-139 1.26674e-30 -4.9411e-30)
(-1.18493e-132 1.53959e-30 -6.00625e-30)
(-2.23055e-126 1.86827e-30 -7.28947e-30)
(-3.96285e-120 2.2617e-30 -8.83383e-30)
(-6.61217e-114 2.72842e-30 -1.06911e-29)
(-1.03026e-107 3.2747e-30 -1.29213e-29)
(-1.48904e-101 3.90089e-30 -1.55902e-29)
(-1.98045e-95 4.59446e-30 -1.87617e-29)
(-2.4007e-89 5.31601e-30 -2.2487e-29)
(-2.62108e-83 5.96965e-30 -2.67832e-29)
(-2.53921e-77 6.34606e-30 -3.15855e-29)
(-2.14081e-71 6.0338e-30 -3.66432e-29)
(-1.53034e-65 4.31776e-30 -4.13156e-29)
(-8.93929e-60 1.59392e-31 -4.41686e-29)
(-4.03535e-54 -7.35772e-30 -4.27529e-29)
(-1.28244e-48 -1.82527e-29 -3.46035e-29)
(-1.57382e-291 2.92228e-32 -9.51335e-33)
(-6.08718e-285 3.03541e-32 -2.89673e-32)
(-2.31268e-278 3.26699e-32 -4.96159e-32)
(-8.62565e-272 3.62595e-32 -7.22194e-32)
(-3.15625e-265 4.12634e-32 -9.76457e-32)
(-1.1323e-258 4.78757e-32 -1.26836e-31)
(-3.97966e-252 5.63502e-32 -1.60842e-31)
(-1.36928e-245 6.70082e-32 -2.0087e-31)
(-4.60835e-239 8.02486e-32 -2.48336e-31)
(-1.51572e-232 9.65627e-32 -3.04939e-31)
(-4.86753e-226 1.16553e-31 -3.7276e-31)
(-1.52465e-219 1.4096e-31 -4.54377e-31)
(-4.65298e-213 1.70691e-31 -5.5301e-31)
(-1.38191e-206 2.06867e-31 -6.7269e-31)
(-3.98902e-200 2.50871e-31 -8.1844e-31)
(-1.11761e-193 3.04411e-31 -9.9648e-31)
(-3.0346e-187 3.69596e-31 -1.21443e-30)
(-7.9724e-181 4.4902e-31 -1.48149e-30)
(-2.02291e-174 5.45859e-31 -1.80868e-30)
(-4.94783e-168 6.63978e-31 -2.20899e-30)
(-1.16402e-161 8.08036e-31 -2.69767e-30)
(-2.62768e-155 9.83603e-31 -3.29248e-30)
(-5.67668e-149 1.19726e-30 -4.01424e-30)
(-1.17011e-142 1.45667e-30 -4.8875e-30)
(-2.29358e-136 1.77063e-30 -5.94154e-30)
(-4.25886e-130 2.14891e-30 -7.21178e-30)
(-7.45893e-124 2.60191e-30 -8.74126e-30)
(-1.22597e-117 3.13967e-30 -1.0582e-29)
(-1.87999e-111 3.76989e-30 -1.2795e-29)
(-2.67117e-105 4.49388e-30 -1.54478e-29)
(-3.48755e-99 5.29896e-30 -1.86087e-29)
(-4.14217e-93 6.14288e-30 -2.23375e-29)
(-4.41941e-87 6.92061e-30 -2.66696e-29)
(-4.16806e-81 7.39906e-30 -3.15739e-29)
(-3.40133e-75 7.112e-30 -3.68548e-29)
(-2.33098e-69 5.23129e-30 -4.19413e-29)
(-1.28264e-63 5.13612e-31 -4.54255e-29)
(-5.25148e-58 -8.21611e-30 -4.47343e-29)
(-1.35911e-52 -2.08674e-29 -3.70699e-29)
(2.52538e-291 3.29809e-32 -9.3929e-33)
(8.90119e-285 3.42583e-32 -2.86002e-32)
(3.06971e-278 3.68721e-32 -4.89871e-32)
(1.03447e-271 4.09239e-32 -7.13044e-32)
(3.40154e-265 4.65721e-32 -9.64088e-32)
(1.08948e-258 5.40363e-32 -1.25229e-31)
(3.39194e-252 6.36028e-32 -1.58805e-31)
(1.02393e-245 7.5634e-32 -1.98325e-31)
(2.98742e-239 9.05798e-32 -2.45189e-31)
(8.38879e-233 1.08994e-31 -3.01073e-31)
(2.25405e-226 1.31557e-31 -3.68033e-31)
(5.74635e-220 1.59103e-31 -4.48613e-31)
(1.37107e-213 1.92656e-31 -5.45993e-31)
(2.98725e-207 2.3348e-31 -6.64153e-31)
(5.63254e-201 2.83137e-31 -8.08055e-31)
(7.77584e-195 3.43555e-31 -9.8384e-31)
(3.38185e-190 4.17116e-31 -1.19903e-30)
(-5.13006e-182 5.06751e-31 -1.46272e-30)
(-2.56842e-175 6.1605e-31 -1.78579e-30)
(-9.24678e-169 7.4938e-31 -2.18108e-30)
(-2.84304e-162 9.12008e-31 -2.66363e-30)
(-7.86116e-156 1.11023e-30 -3.25103e-30)
(-1.99694e-149 1.35149e-30 -3.96386e-30)
(-4.70612e-143 1.64446e-30 -4.82643e-30)
(-1.0333e-136 1.9991e-30 -5.8678e-30)
(-2.11608e-130 2.42653e-30 -7.12321e-30)
(-4.03773e-124 2.93863e-30 -8.63568e-30)
(-7.15972e-118 3.54705e-30 -1.04575e-29)
(-1.17498e-111 4.26108e-30 -1.26505e-29)
(-1.77469e-105 5.08337e-30 -1.52844e-29)
(-2.44925e-99 6.00172e-30 -1.84319e-29)
(-3.06016e-93 6.97235e-30 -2.21627e-29)
(-3.42057e-87 7.8835e-30 -2.6532e-29)
(-3.36789e-81 8.48215e-30 -3.15472e-29)
(-2.86064e-75 8.25207e-30 -3.70768e-29)
(-2.03545e-69 6.25326e-30 -4.26353e-29)
(-1.16058e-63 1.02101e-30 -4.68581e-29)
(-4.91728e-58 -8.93003e-30 -4.70292e-29)
(-1.31661e-52 -2.36681e-29 -3.94028e-29)
(9.35938e-288 3.66882e-32 -9.25792e-33)
(3.31618e-281 3.81098e-32 -2.81891e-32)
(1.14909e-274 4.10176e-32 -4.82827e-32)
(3.88854e-268 4.55252e-32 -7.02794e-32)
(1.28297e-261 5.18092e-32 -9.50232e-32)
(4.11897e-255 6.01138e-32 -1.2343e-31)
(1.28368e-248 7.07575e-32 -1.56523e-31)
(3.87164e-242 8.41432e-32 -1.95475e-31)
(1.12558e-235 1.00771e-31 -2.41664e-31)
(3.13703e-229 1.21258e-31 -2.96743e-31)
(8.31481e-223 1.46358e-31 -3.62738e-31)
(2.06955e-216 1.76999e-31 -4.42157e-31)
(4.72952e-210 2.14322e-31 -5.38135e-31)
(9.46204e-204 2.59732e-31 -6.54594e-31)
(1.44206e-197 3.14965e-31 -7.96425e-31)
(5.16662e-192 3.82169e-31 -9.69684e-31)
(-7.94246e-185 4.63994e-31 -1.18179e-30)
(-4.4881e-178 5.63705e-31 -1.4417e-30)
(-1.7357e-171 6.853e-31 -1.76015e-30)
(-5.67758e-165 8.33641e-31 -2.1498e-30)
(-1.6668e-158 1.0146e-30 -2.6255e-30)
(-4.49846e-152 1.23519e-30 -3.20458e-30)
(-1.1286e-145 1.5037e-30 -3.9074e-30)
(-2.64579e-139 1.82981e-30 -4.75797e-30)
(-5.80661e-133 2.22466e-30 -5.78513e-30)
(-1.19272e-126 2.70071e-30 -7.02387e-30)
(-2.28895e-120 3.27139e-30 -8.51716e-30)
(-4.09142e-114 3.95003e-30 -1.03175e-29)
(-6.78243e-108 4.74771e-30 -1.24877e-29)
(-1.03689e-101 5.66876e-30 -1.50997e-29)
(-1.45156e-95 6.70223e-30 -1.82309e-29)
(-1.84422e-89 7.80421e-30 -2.19612e-29)
(-2.10271e-83 8.85889e-30 -2.63676e-29)
(-2.12063e-77 9.59783e-30 -3.15002e-29)
(-1.85632e-71 9.46075e-30 -3.73006e-29)
(-1.37464e-65 7.39877e-30 -4.33875e-29)
(-8.30211e-60 1.7088e-30 -4.84621e-29)
(-3.86636e-54 -9.46641e-30 -4.96721e-29)
(-1.26008e-48 -2.62957e-29 -4.33578e-29)
(2.51657e-291 4.0339e-32 -9.10865e-33)
(8.87874e-285 4.19025e-32 -2.77344e-32)
(3.06494e-278 4.50999e-32 -4.7504e-32)
(1.03388e-271 5.00565e-32 -6.91461e-32)
(3.40299e-265 5.69666e-32 -9.34911e-32)
(1.09106e-258 6.60987e-32 -1.2144e-31)
(3.40054e-252 7.78032e-32 -1.53999e-31)
(1.02771e-245 9.25228e-32 -1.92323e-31)
(3.00223e-239 1.10807e-31 -2.37766e-31)
(8.44251e-233 1.33334e-31 -2.91956e-31)
(2.27237e-226 1.60933e-31 -3.56884e-31)
(5.80559e-220 1.94623e-31 -4.3502e-31)
(1.38933e-213 2.35658e-31 -5.29447e-31)
(3.04099e-207 2.85583e-31 -6.44025e-31)
(5.78381e-201 3.46308e-31 -7.83567e-31)
(8.18284e-195 4.20195e-31 -9.54034e-31)
(1.38395e-189 5.10159e-31 -1.16272e-30)
(-4.87397e-182 6.19795e-31 -1.41846e-30)
(-2.50882e-175 7.535e-31 -1.7318e-30)
(-9.11553e-169 9.1663e-31 -2.11522e-30)
(-2.81585e-162 1.11565e-30 -2.58332e-30)
(-7.80866e-156 1.35827e-30 -3.15321e-30)
(-1.98762e-149 1.65365e-30 -3.84493e-30)
(-4.69132e-143 2.01245e-30 -4.68223e-30)
(-1.03131e-136 2.44698e-30 -5.69362e-30)
(-2.11416e-130 2.97107e-30 -6.91387e-30)
(-4.03771e-124 3.59972e-30 -8.38581e-30)
(-7.16561e-118 4.34807e-30 -1.01622e-29)
(-1.17688e-111 5.22915e-30 -1.23067e-29)
(-1.77899e-105 6.24941e-30 -1.48935e-29)
(-2.45726e-99 7.39987e-30 -1.80048e-29)
(-3.07305e-93 8.63804e-30 -2.17314e-29)
(-3.43873e-87 9.84695e-30 -2.61733e-29)
(-3.39033e-81 1.07479e-29 -3.14268e-29)
(-2.88478e-75 1.0744e-29 -3.75166e-29)
(-2.05773e-69 8.68282e-30 -4.41857e-29)
(-1.17783e-63 2.60667e-30 -5.02311e-29)
(-5.02544e-58 -9.79179e-30 -5.26301e-29)
(-1.36859e-52 -2.92278e-29 -4.70849e-29)
(-5.67919e-291 4.39277e-32 -8.9453e-33)
(-2.10818e-284 4.56306e-32 -2.7237e-32)
(-7.69104e-278 4.91127e-32 -4.66519e-32)
(-2.75582e-271 5.45106e-32 -6.79061e-32)
(-9.6922e-265 6.20362e-32 -9.18147e-32)
(-3.34349e-258 7.19818e-32 -1.19262e-31)
(-1.13048e-251 8.4729e-32 -1.51238e-31)
(-3.74349e-245 1.0076e-31 -1.88874e-31)
(-1.21304e-238 1.20673e-31 -2.33501e-31)
(-3.84302e-232 1.45204e-31 -2.86718e-31)
(-1.18921e-225 1.75259e-31 -3.5048e-31)
(-3.59075e-219 2.11946e-31 -4.27212e-31)
(-1.05677e-212 2.5663e-31 -5.19943e-31)
(-3.0278e-206 3.10993e-31 -6.32463e-31)
(-8.43478e-200 3.77117e-31 -7.69503e-31)
(-2.28149e-193 4.57573e-31 -9.36914e-31)
(-5.98286e-187 5.5554e-31 -1.14187e-30)
(-1.51857e-180 6.74932e-31 -1.39304e-30)
(-3.72408e-174 8.20545e-31 -1.70079e-30)
(-8.80659e-168 9.98217e-31 -2.07737e-30)
(-2.00384e-161 1.21499e-30 -2.53717e-30)
(-4.37664e-155 1.4793e-30 -3.09698e-30)
(-9.15139e-149 1.80111e-30 -3.77656e-30)
(-1.82643e-142 2.19209e-30 -4.59931e-30)
(-3.46762e-136 2.66572e-30 -5.5934e-30)
(-6.23905e-130 3.23721e-30 -6.79332e-30)
(-1.05919e-123 3.92316e-30 -8.24176e-30)
(-1.68816e-117 4.74061e-30 -9.99162e-30)
(-2.5113e-111 5.70477e-30 -1.21075e-29)
(-3.4628e-105 6.82458e-30 -1.46655e-29)
(-4.38942e-99 8.09387e-30 -1.77531e-29)
(-5.06353e-93 9.47313e-30 -2.14718e-29)
(-5.24933e-87 1.08474e-29 -2.59456e-29)
(-4.81233e-81 1.19334e-29 -3.13207e-29)
(-3.81854e-75 1.21068e-29 -3.77136e-29)
(-2.54509e-69 1.01202e-29 -4.5015e-29)
(-1.36183e-63 3.74718e-30 -5.21571e-29)
(-5.41463e-58 -9.85179e-30 -5.6039e-29)
(-1.35024e-52 -3.19422e-29 -5.12538e-29)
(-2.20567e-287 4.74487e-32 -8.76815e-33)
(-8.26236e-281 4.92883e-32 -2.66975e-32)
(-3.04206e-274 5.30497e-32 -4.5728e-32)
(-1.10019e-267 5.88806e-32 -6.65614e-32)
(-3.90589e-261 6.70101e-32 -8.99968e-32)
(-1.36029e-254 7.7754e-32 -1.16901e-31)
(-4.64387e-248 9.15242e-32 -1.48244e-31)
(-1.55286e-241 1.08841e-31 -1.85134e-31)
(-5.08193e-235 1.30352e-31 -2.28877e-31)
(-1.62624e-228 1.56851e-31 -2.81039e-31)
(-5.08381e-222 1.89315e-31 -3.43536e-31)
(-1.55097e-215 2.28942e-31 -4.18746e-31)
(-4.61269e-209 2.77206e-31 -5.09637e-31)
(-1.33577e-202 3.35925e-31 -6.19927e-31)
(-3.76174e-196 4.07345e-31 -7.54252e-31)
(-1.02879e-189 4.94246e-31 -9.18349e-31)
(-2.72837e-183 6.00065e-31 -1.11925e-30)
(-7.00505e-177 7.29031e-31 -1.36546e-30)
(-1.73814e-170 8.86332e-31 -1.66715e-30)
(-4.15987e-164 1.07828e-30 -2.03633e-30)
(-9.58226e-158 1.31249e-30 -2.4871e-30)
(-2.11945e-151 1.59808e-30 -3.03599e-30)
(-4.48959e-145 1.94585e-30 -3.70237e-30)
(-9.08117e-139 2.36847e-30 -4.50931e-30)
(-1.74823e-132 2.88055e-30 -5.4846e-30)
(-3.19121e-126 3.49871e-30 -6.66238e-30)
(-5.50008e-120 4.24122e-30 -8.08513e-30)
(-8.90665e-114 5.12708e-30 -9.80587e-30)
(-1.3475e-107 6.17389e-30 -1.18899e-29)
(-1.892e-101 7.3935e-30 -1.44156e-29)
(-2.44596e-95 8.78334e-30 -1.74751e-29)
(-2.88377e-89 1.03085e-29 -2.11807e-29)
(-3.06438e-83 1.18593e-29 -2.56812e-29)
(-2.89176e-77 1.31545e-29 -3.11749e-29)
(-2.37739e-71 1.35529e-29 -3.78792e-29)
(-1.65963e-65 1.17249e-29 -4.58576e-29)
(-9.48997e-60 5.16567e-30 -5.42255e-29)
(-4.2123e-54 -9.58897e-30 -5.97679e-29)
(-1.3292e-48 -3.45472e-29 -5.57171e-29)
(-4.00056e-287 5.08965e-32 -8.57746e-33)
(-1.46082e-280 5.287e-32 -2.61169e-32)
(-5.23547e-274 5.69048e-32 -4.47335e-32)
(-1.84029e-267 6.31598e-32 -6.5114e-32)
(-6.33945e-261 7.18807e-32 -8.80401e-32)
(-2.1384e-254 8.34062e-32 -1.1436e-31)
(-7.05683e-248 9.81784e-32 -1.4502e-31)
(-2.27613e-241 1.16755e-31 -1.81108e-31)
(-7.16797e-235 1.3983e-31 -2.23899e-31)
(-2.2015e-228 1.68256e-31 -2.74926e-31)
(-6.58611e-222 2.0308e-31 -3.36062e-31)
(-1.91664e-215 2.45586e-31 -4.09634e-31)
(-5.41762e-209 2.97356e-31 -4.98546e-31)
(-1.48497e-202 3.60338e-31 -6.06436e-31)
(-3.93976e-196 4.36945e-31 -7.37838e-31)
(-1.00964e-189 5.30159e-31 -8.9837e-31)
(-2.49335e-183 6.43667e-31 -1.09491e-30)
(-5.91753e-177 7.8201e-31 -1.33578e-30)
(-1.3454e-170 9.50757e-31 -1.63094e-30)
(-2.9192e-164 1.15668e-30 -1.99214e-30)
(-6.01643e-158 1.40797e-30 -2.43321e-30)
(-1.17081e-151 1.71443e-30 -2.97031e-30)
(-2.1343e-145 2.08766e-30 -3.62248e-30)
(-3.60364e-139 2.5413e-30 -4.41236e-30)
(-5.5375e-133 3.09114e-30 -5.36735e-30)
(-7.50572e-127 3.7552e-30 -6.52119e-30)
(-8.37237e-121 4.55342e-30 -7.91609e-30)
(-6.04579e-115 5.50689e-30 -9.60508e-30)
(2.39275e-109 6.63582e-30 -1.16542e-29)
(1.97896e-102 7.95533e-30 -1.41436e-29)
(4.70918e-96 9.46728e-30 -1.71701e-29)
(8.11553e-90 1.1143e-29 -2.08566e-29)
(1.13722e-83 1.28816e-29 -2.53764e-29)
(1.33422e-77 1.44104e-29 -3.0982e-29)
(1.31229e-71 1.50847e-29 -3.79995e-29)
(1.06631e-65 1.35101e-29 -4.66924e-29)
(6.94794e-60 6.90027e-30 -5.64198e-29)
(3.4498e-54 -8.93507e-30 -6.39816e-29)
(1.19292e-48 -3.6301e-29 -6.11885e-29)
(-1.29649e-290 5.42657e-32 -8.37354e-33)
(-4.67212e-284 5.637e-32 -2.54959e-32)
(-1.65139e-277 6.06722e-32 -4.367e-32)
(-5.7204e-271 6.73416e-32 -6.35662e-32)
(-1.94026e-264 7.66404e-32 -8.59475e-32)
(-6.43777e-258 8.89299e-32 -1.11642e-31)
(-2.08736e-251 1.04681e-31 -1.41574e-31)
(-6.60608e-245 1.24489e-31 -1.76804e-31)
(-2.03807e-238 1.49093e-31 -2.18577e-31)
(-6.12073e-232 1.79402e-31 -2.68389e-31)
(-1.78644e-225 2.16532e-31 -3.2807e-31)
(-5.05791e-219 2.61851e-31 -3.99891e-31)
(-1.38614e-212 3.17047e-31 -4.86687e-31)
(-3.6676e-206 3.84197e-31 -5.9201e-31)
(-9.33974e-200 4.65872e-31 -7.20288e-31)
(-2.2801e-193 5.65255e-31 -8.77005e-31)
(-5.30887e-187 6.86277e-31 -1.06888e-30)
(-1.17055e-180 8.33786e-31 -1.30404e-30)
(-2.41854e-174 1.01372e-30 -1.59221e-30)
(-4.603e-168 1.23332e-30 -1.94488e-30)
(-7.81388e-162 1.50131e-30 -2.37556e-30)
(-1.09625e-155 1.82817e-30 -2.90005e-30)
(-9.45306e-150 2.22631e-30 -3.537e-30)
(9.64988e-144 2.71032e-30 -4.30861e-30)
(7.61225e-137 3.29717e-30 -5.24182e-30)
(2.48859e-130 4.00626e-30 -6.36992e-30)
(6.28815e-124 4.85927e-30 -7.73479e-30)
(1.36354e-117 5.87947e-30 -9.38939e-30)
(2.62725e-111 7.08982e-30 -1.14002e-29)
(4.55856e-105 8.50915e-30 -1.38493e-29)
(7.15149e-99 1.01445e-29 -1.68376e-29)
(1.01318e-92 1.19751e-29 -2.04978e-29)
(1.28995e-86 1.39121e-29 -2.50277e-29)
(1.46381e-80 1.56993e-29 -3.07343e-29)
(1.46302e-74 1.67028e-29 -3.80593e-29)
(1.2662e-68 1.54875e-29 -4.74945e-29)
(9.25458e-63 8.99165e-30 -5.87145e-29)
(5.49085e-57 -7.83688e-30 -6.84081e-29)
(2.47447e-51 -3.73578e-29 -6.67131e-29)
(-2.15851e-287 5.75513e-32 -8.15669e-33)
(-8.08508e-281 5.97831e-32 -2.48357e-32)
(-2.97657e-274 6.43459e-32 -4.25392e-32)
(-1.07643e-267 7.14195e-32 -6.19204e-32)
(-3.8213e-261 8.1282e-32 -8.37224e-32)
(-1.33075e-254 9.43165e-32 -1.08751e-31)
(-4.54277e-248 1.11023e-31 -1.37909e-31)
(-1.51898e-241 1.32032e-31 -1.72226e-31)
(-4.97082e-235 1.58126e-31 -2.12917e-31)
(-1.59062e-228 1.90271e-31 -2.61438e-31)
(-4.97232e-222 2.2965e-31 -3.19572e-31)
(-1.51692e-215 2.77713e-31 -3.89531e-31)
(-4.51138e-209 3.36249e-31 -4.74077e-31)
(-1.30643e-202 4.07463e-31 -5.76671e-31)
(-3.67915e-196 4.94081e-31 -7.01627e-31)
(-1.00623e-189 5.9948e-31 -8.54288e-31)
(-2.66864e-183 7.27832e-31 -1.0412e-30)
(-6.85212e-177 8.8428e-31 -1.27029e-30)
(-1.70033e-170 1.07513e-30 -1.55103e-30)
(-4.06983e-164 1.30806e-30 -1.89462e-30)
(-9.37618e-158 1.59235e-30 -2.31424e-30)