/*--------------------------------*- C++ -*----------------------------------*\
| =========                 |                                                 |
| \\      /  F ield         | OpenFOAM: The Open Source CFD Toolbox           |
|  \\    /   O peration     | Version:  4.1                                   |
|   \\  /    A nd           | Web:      www.OpenFOAM.org                      |
|    \\/     M anipulation  |                                                 |
\*---------------------------------------------------------------------------*/
FoamFile
{
    version     2.0;
    format      ascii;
    class       volScalarField;
    location    "24";
    object      p;
}
// * * * * * * * * * * * * * * * * * * * * * * * * * * * * * * * * * * * * * //

dimensions      [0 2 -2 0 0 0 0];

internalField   nonuniform List<scalar> 
26785
(
18.554
19.4254
20.225
21.3562
22.5476
24.0842
25.3675
26.556
27.5286
28.3368
29.046
29.4735
29.7534
29.7514
29.7753
29.686
29.7544
29.7873
29.9953
30.1639
30.4783
30.7006
31.0377
31.2321
31.4704
31.5264
31.5629
31.4138
31.229
30.888
30.5273
30.0666
29.6174
29.1227
28.6601
28.2098
27.8392
27.5298
27.3209
27.1957
27.1853
27.2617
27.4344
27.671
27.969
28.319
28.7307
29.1486
29.541
29.9333
30.3691
30.8476
31.4389
32.0916
32.8082
33.4742
34.1105
34.5392
34.8783
34.9696
34.8909
34.5626
34.1056
33.4624
32.7541
31.8886
30.9745
29.9175
28.8232
27.6149
26.3898
25.1002
23.8239
22.5225
21.2543
19.9907
18.7738
17.5786
16.4346
15.3224
14.2624
13.2386
12.2641
11.3267
10.4344
9.5777
8.76059
7.97593
7.22505
6.50253
5.80756
5.13584
4.48519
3.85212
3.23338
2.62642
2.02672
1.43737
0.833954
0.295165
18.5315
19.4215
20.2278
21.3573
22.5494
24.0868
25.369
26.5575
27.5297
28.3386
29.0473
29.4747
29.7538
29.7514
29.7747
29.6851
29.7529
29.7854
29.993
30.1612
30.4756
30.6979
31.0356
31.2303
31.4694
31.5259
31.5631
31.4143
31.23
30.8886
30.528
30.0664
29.6168
29.1209
28.6577
28.2063
27.835
27.5248
27.3154
27.1898
27.1793
27.2556
27.4283
27.665
27.9632
28.3134
28.7256
29.1435
29.5349
29.9248
30.3593
30.836
31.4302
32.0869
32.8085
33.4787
34.1199
34.5501
34.8988
34.9922
34.9135
34.5818
34.1226
33.4759
32.7672
31.8999
30.9861
29.9269
28.8316
27.6206
26.3938
25.1018
23.8241
22.521
21.2518
19.987
18.7696
17.5736
16.4292
15.3167
14.2566
13.2327
12.2582
11.3208
10.4287
9.5722
8.75537
7.97106
7.22058
6.49852
5.80405
5.13289
4.48283
3.85038
3.23229
2.62579
2.02725
1.43689
0.85843
0.267386
18.4895
19.4163
20.2328
21.3586
22.5531
24.0922
25.3729
26.561
27.5328
28.3425
29.0509
29.4775
29.7553
29.7518
29.774
29.6832
29.7502
29.7817
29.9886
30.156
30.4706
30.693
31.032
31.2274
31.4682
31.5254
31.5643
31.416
31.2327
30.8909
30.5303
30.0674
29.6168
29.1189
28.6541
28.2008
27.8278
27.5159
27.3055
27.1788
27.1677
27.2436
27.4164
27.6534
27.9521
28.3028
28.7161
29.1343
29.5238
29.9091
30.3392
30.8116
31.4096
32.0744
32.8056
33.4861
34.1359
34.572
34.9394
35.0397
34.9624
34.626
34.1635
33.5113
32.8015
31.9311
31.0163
29.9527
28.8538
27.6371
26.4059
25.1086
23.8273
22.5203
21.2487
19.9815
18.7627
17.5654
16.4204
15.3073
14.2471
13.2231
12.2489
11.3119
10.4203
9.56441
8.74829
7.96473
7.21508
6.49388
5.80032
5.13009
4.48099
3.8495
3.23235
2.62664
2.02871
1.43859
0.863369
0.277621
18.4308
19.4118
20.2408
21.3619
22.5599
24.1015
25.3796
26.5671
27.5386
28.3493
29.0572
29.4824
29.7581
29.7523
29.7727
29.6799
29.7457
29.7756
29.9815
30.1477
30.4625
30.6852
31.0259
31.2226
31.4656
31.5242
31.5651
31.4179
31.2356
30.8933
30.5322
30.0675
29.615
29.1141
28.6468
28.1907
27.8154
27.5012
27.2893
27.1613
27.1493
27.2244
27.3971
27.6345
27.934
28.2854
28.6999
29.1186
29.5051
29.8859
30.311
30.7794
31.3815
32.0571
32.7961
33.4903
34.147
34.5924
34.9818
35.0924
35.0133
34.6722
34.2039
33.5469
32.8347
31.9637
31.0483
29.9826
28.8798
27.6589
26.4226
25.1212
23.8354
22.5253
21.2504
19.9812
18.7601
17.5616
16.4152
15.3014
14.2403
13.2159
12.2412
11.3041
10.4122
9.55634
8.74018
7.9568
7.20728
6.48635
5.79304
5.12315
4.47438
3.84329
3.22642
2.62128
2.02212
1.43466
0.834192
0.306988
18.3607
19.4109
20.2509
21.3662
22.5688
24.1132
25.388
26.5748
27.5459
28.3582
29.0656
29.4887
29.7615
29.753
29.7712
29.676
29.7403
29.7684
29.9729
30.1379
30.4529
30.6762
31.0188
31.2172
31.4627
31.5228
31.5658
31.4198
31.2382
30.8956
30.5337
30.0672
29.6123
29.1085
28.6385
28.1797
27.802
27.4859
27.2726
27.1437
27.131
27.2056
27.3781
27.6162
27.9168
28.2693
28.6845
29.1038
29.4878
29.8659
30.2873
30.7541
31.3591
32.0444
32.7873
33.493
34.1505
34.6023
35.0097
35.1288
35.0457
34.7009
34.226
33.5653
32.8502
31.9804
31.0641
29.9985
28.8922
27.669
26.4285
25.1246
23.8354
22.5236
21.2465
19.9766
18.7542
17.5554
16.4083
15.2945
14.233
13.2088
12.2339
11.297
10.4052
9.54956
8.73353
7.95047
7.20121
6.48067
5.78774
5.11834
4.47009
3.83961
3.22331
2.61896
2.01924
1.43322
0.816809
0.331718
18.2853
19.4153
20.2642
21.3733
22.5807
24.1273
25.3981
26.5839
27.5551
28.369
29.0759
29.4966
29.7661
29.7543
29.7699
29.6724
29.7347
29.7612
29.9639
30.128
30.4427
30.667
31.0109
31.2114
31.4585
31.5207
31.5648
31.4203
31.2387
30.896
30.5326
30.0647
29.6069
29.1006
28.6278
28.167
27.7868
27.4694
27.2551
27.1257
27.1127
27.1871
27.3593
27.5979
27.8993
28.2526
28.6679
29.0876
29.4691
29.8466
30.2663
30.7337
31.3414
32.0347
32.775
33.4919
34.1468
34.6044
35.0294
35.163
35.0773
34.7315
34.2491
33.5847
32.8656
31.9979
31.0814
30.0174
28.9079
27.6835
26.4381
25.1318
23.838
22.524
21.2435
19.9719
18.7471
17.5473
16.3985
15.2841
14.2216
13.1971
12.2216
11.2846
10.3925
9.53695
8.72092
7.93813
7.18912
6.46903
5.77659
5.10785
4.46033
3.83076
3.21538
2.61215
2.01272
1.42804
0.806154
0.340883
18.2114
19.4208
20.2756
21.3805
22.5933
24.1415
25.4081
26.5928
27.5643
28.3801
29.0864
29.5045
29.7705
29.7562
29.7691
29.6698
29.7299
29.755
29.9559
30.1193
30.4336
30.659
31.0037
31.2063
31.4543
31.5185
31.5631
31.42
31.238
30.8955
30.5306
30.0618
29.6012
29.0928
28.6175
28.155
27.7727
27.4541
27.2387
27.109
27.0956
27.1699
27.3418
27.5808
27.8827
28.2369
28.6522
29.0721
29.4511
29.8278
30.2458
30.7136
31.3228
32.0233
32.7583
33.4853
34.1413
34.5985
35.0362
35.188
35.1063
34.7632
34.2776
33.6102
32.8875
32.0201
31.1013
30.036
28.9212
27.6928
26.4411
25.1302
23.8309
22.5132
21.2288
19.9549
18.7276
17.5266
16.3765
15.2617
14.1986
13.1741
12.1986
11.262
10.3702
9.51537
8.69999
7.91807
7.16995
6.45095
5.75965
5.09224
4.44613
3.81817
3.20447
2.6031
2.00522
1.4227
0.801011
0.343356
18.1502
19.4294
20.2877
21.3907
22.6082
24.1565
25.4186
26.602
27.574
28.3915
29.0971
29.5128
29.7755
29.7591
29.7694
29.6685
29.7263
29.7502
29.9488
30.1117
30.4251
30.6516
30.9967
31.2013
31.4499
31.5161
31.5611
31.4195
31.2369
30.8946
30.528
30.058
29.5943
29.0835
28.6053
28.1408
27.7559
27.4356
27.2187
27.0883
27.074
27.1478
27.3192
27.5583
27.8605
28.2154
28.6308
29.0504
29.4271
29.802
30.219
30.6859
31.296
32.0018
32.7317
33.4552
34.1254
34.5905
35.0453
35.2206
35.1476
34.8086
34.3222
33.6526
32.926
32.0572
31.1341
30.0647
28.9419
27.7066
26.4458
25.1277
23.8207
22.4975
21.2078
19.9302
18.6998
17.4967
16.3449
15.2292
14.1655
13.1409
12.1655
11.2293
10.3381
9.48406
8.66962
7.88887
7.14202
6.42449
5.73477
5.06916
4.42498
3.79918
3.18777
2.58892
1.99363
1.41394
0.796236
0.339932
18.1078
19.4364
20.2972
21.4013
22.6227
24.1698
25.4278
26.6097
27.5825
28.4016
29.1069
29.5204
29.7804
29.7626
29.7707
29.6683
29.7238
29.7463
29.9426
30.1047
30.4172
30.6448
30.9901
31.1966
31.4459
31.5141
31.5596
31.4193
31.2362
30.8942
30.5259
30.0545
29.5876
29.0739
28.5923
28.1253
27.7374
27.4149
27.1959
27.0644
27.0487
27.1217
27.2925
27.5316
27.8341
28.1898
28.6053
29.0245
29.3993
29.7718
30.1867
30.6517
31.2604
31.9675
32.6921
33.3973
34.0766
34.566
35.0423
35.248
35.1855
34.8512
34.3691
33.7004
32.9719
32.1011
31.1707
30.0935
28.9593
27.7132
26.4401
25.1116
23.7947
22.4639
21.1677
19.8858
18.6518
17.4467
16.2936
15.1775
14.1139
13.09
12.1156
11.1808
10.2911
9.43893
8.62645
7.84786
7.10327
6.38819
5.70102
5.03815
4.39686
3.77416
3.16605
2.57071
1.9793
1.40347
0.79222
0.334835
18.0829
19.4354
20.3038
21.413
22.6378
24.1823
25.4369
26.6177
27.5918
28.4127
29.1178
29.5296
29.7871
29.7677
29.7734
29.6691
29.7218
29.7424
29.9359
30.0968
30.4081
30.6366
30.9824
31.1908
31.441
31.5116
31.5579
31.4192
31.2358
30.8937
30.5235
30.0501
29.5795
29.0623
28.5765
28.1061
27.7146
27.3891
27.1673
27.0341
27.0165
27.0884
27.2586
27.4975
27.8002
28.1564
28.5716
28.9895
29.3632
29.733
30.1461
30.6084
31.2149
31.921
32.6272
33.3111
33.9953
34.5265
35.0403
35.273
35.225
34.8981
34.4237
33.7627
33.0329
32.1567
31.2148
30.1253
28.9747
27.7125
26.4226
25.08
23.751
22.4113
21.1083
19.822
18.5853
17.379
16.2256
15.1101
14.0476
13.0254
12.0529
11.1204
10.2332
9.3836
8.57383
7.79812
7.05647
6.34449
5.6605
5.00099
4.36319
3.74422
3.14004
2.5489
1.96219
1.39101
0.787447
0.328364
18.0764
19.4204
20.3043
21.4239
22.6523
24.1941
25.446
26.6259
27.6016
28.4244
29.1294
29.5394
29.7943
29.7733
29.7764
29.6698
29.7194
29.7376
29.9282
30.0875
30.3978
30.6273
30.974
31.1846
31.4362
31.5092
31.5567
31.4197
31.2362
30.8939
30.5218
30.0462
29.5719
29.0505
28.5601
28.0856
27.69
27.361
27.136
27.0006
26.981
27.0516
27.2208
27.4593
27.7621
28.1188
28.5332
28.9494
29.3224
29.6901
30.0999
30.5583
31.1607
31.8536
32.5338
33.201
33.8865
34.4611
35.0273
35.2745
35.2431
34.9292
34.4676
33.8186
33.086
32.2005
31.2449
30.1403
28.9693
27.6864
26.3767
25.0184
23.6771
22.3291
21.0207
19.7314
18.4935
17.2874
16.1352
15.0216
13.9616
12.9424
11.973
11.044
10.1603
9.31442
8.50841
7.73658
6.99885
6.29092
5.61105
4.95583
4.32244
3.70811
3.10881
2.52281
1.94188
1.37634
0.781663
0.321376
18.1049
19.4101
20.3092
21.4391
22.6692
24.207
25.4562
26.6357
27.6133
28.4383
29.1432
29.5514
29.8035
29.7803
29.7804
29.6707
29.7166
29.7319
29.919
30.0764
30.3856
30.6162
30.9641
31.1771
31.4306
31.5063
31.5555
31.4204
31.2369
30.8943
30.52
30.0417
29.5629
29.0364
28.5405
28.0611
27.6606
27.3275
27.0988
26.9608
26.9389
27.0077
27.1757
27.4135
27.716
28.0728
28.4861
28.8999
29.2722
29.6385
30.0463
30.4993
31.0961
31.7628
32.4132
33.0625
33.7582
34.3764
35.0018
35.2712
35.2476
34.9543
34.5071
33.8655
33.1265
32.2314
31.262
30.1379
28.9402
27.6319
26.3004
24.9264
23.5743
22.2198
20.908
19.6178
18.3806
17.1764
16.027
14.9169
13.8607
12.8456
11.8807
10.9561
10.0769
9.23569
8.43428
7.66713
6.93406
6.23088
5.55577
4.90547
4.27708
3.66799
3.07416
2.49394
1.91944
1.36019
0.775065
0.314082
18.1425
19.3931
20.3101
21.4525
22.6847
24.2191
25.4662
26.6458
27.6256
28.4531
29.158
29.5641
29.8133
29.7877
29.7846
29.6714
29.7133
29.725
29.9085
30.0637
30.372
30.6037
30.9532
31.1691
31.4248
31.5035
31.5547
31.4215
31.2381
30.8951
30.5189
30.0377
29.554
29.0219
28.5204
28.0357
27.6299
27.2921
27.0595
26.9184
26.8939
26.9604
27.1269
27.3636
27.6656
28.0221
28.4339
28.8453
29.2168
29.5824
29.9877
30.4329
31.0206
31.6506
32.2654
32.8927
33.6068
34.2695
34.934
35.2442
35.2291
34.96
34.5148
33.8773
33.1293
32.2298
31.2469
30.0977
28.869
27.5341
26.1825
24.7954
23.4357
22.0776
20.7651
19.4763
18.242
17.0416
15.8968
14.7918
13.741
12.7315
11.7721
10.8533
9.97982
9.14428
8.34853
7.58701
6.85954
6.162
5.49254
4.84798
4.22545
3.62241
3.03487
2.46125
1.89405
1.34194
0.767185
0.306455
18.1766
19.375
20.3126
21.4684
22.7021
24.2326
25.4777
26.6581
27.6406
28.4708
29.1756
29.5796
29.8256
29.7968
29.7898
29.6725
29.7096
29.717
29.8963
30.0491
30.3563
30.5893
30.9408
31.1597
31.4182
31.5004
31.5539
31.4229
31.2398
30.8963
30.518
30.033
29.5437
29.0052
28.4973
28.0064
27.5946
27.2516
27.0144
26.8698
26.8422
26.906
27.0705
27.3055
27.6065
27.9622
28.372
28.7808
29.1515
29.5166
29.9213
30.3592
30.9331
31.5144
32.0776
32.6892
33.4345
34.1548
34.8463
35.1996
35.2153
34.9514
34.501
33.8592
33.1001
32.2026
31.1999
30.0168
28.7543
27.394
26.026
24.6299
23.2664
21.9081
20.598
19.3131
18.0839
16.8894
15.7509
14.6524
13.6084
12.6057
11.6531
10.741
9.87411
9.0451
8.25572
7.50054
6.77928
6.08797
5.42468
4.7864
4.17018
3.57369
2.99292
2.42639
1.86696
1.3225
0.758521
0.298693
18.2035
19.3568
20.3141
21.4833
22.7186
24.2455
25.4889
26.6706
27.6561
28.4894
29.1943
29.5958
29.8383
29.8064
29.7955
29.6733
29.7053
29.7079
29.8828
30.0329
30.3393
30.5739
30.9276
31.15
31.4117
31.4975
31.5535
31.4247
31.2419
30.898
30.5175
30.0286
29.5336
28.9886
28.4742
27.9767
27.5585
27.2098
26.9679
26.8192
26.7883
26.849
27.011
27.2434
27.5428
27.897
28.3043
28.7104
29.0802
29.4453
29.8486
30.2789
30.8285
31.3489
31.8656
32.458
33.2278
34.0092
34.7338
35.1099
35.1851
34.8948
34.452
33.7927
33.0277
32.1313
31.0987
29.8779
28.5847
27.2048
25.8264
24.4263
23.0632
21.7081
20.4032
19.1246
17.9027
16.7158
15.5852
14.4949
13.459
12.4643
11.5197
10.6153
9.7561
8.93457
8.15252
7.40454
6.69036
6.00608
5.34977
4.71851
4.10939
3.52016
2.9469
2.38819
1.83727
1.30117
0.748623
0.290661
18.2224
19.3415
20.3169
21.4995
22.7365
24.2598
25.5019
26.6855
27.6746
28.5112
29.2162
29.6153
29.8541
29.818
29.8024
29.6746
29.7006
29.6977
29.8676
30.0148
30.3202
30.5565
30.9129
31.1391
31.4045
31.4944
31.5532
31.4268
31.2446
30.9002
30.5172
30.0237
29.5223
28.9701
28.4482
27.9433
27.518
27.1629
26.9156
26.7624
26.7277
26.7851
26.9435
27.1727
27.4698
27.8216
28.2261
28.629
28.9976
29.3631
29.7674
30.1901
30.7045
31.1595
31.6365
32.2059
32.9931
33.8268
34.609
34.9953
35.1168
34.8056
34.3711
33.6773
32.9208
32.012
30.9394
29.682
28.365
26.9728
25.5904
24.1914
22.833
21.4844
20.1875
18.9177
17.705
16.5275
15.4065
14.3256
13.2991
12.3135
11.3778
10.4821
9.63136
8.81805
8.04394
7.30376
6.59716
5.9204
5.2715
4.6477
4.04602
3.46445
2.89903
2.3485
1.80641
1.27903
0.738146
0.282607
18.2355
19.3281
20.3188
21.515
22.7541
24.2739
25.5147
26.7007
27.6935
28.5338
29.2388
29.6353
29.8702
29.83
29.8097
29.6757
29.6955
29.6865
29.8512
29.9952
30.2999
30.5381
30.8976
31.1281
31.3974
31.4914
31.5532
31.4291
31.2474
30.9028
30.5173
30.0192
29.5116
28.9519
28.4222
27.9095
27.4771
27.1153
26.8622
26.7041
26.6655
26.7191
26.8728
27.0982
27.3919
27.7406
28.1413
28.5405
28.9075
29.2744
29.679
30.0896
30.5604
30.9507
31.3983
31.9305
32.7265
33.5976
34.4338
34.8537
34.9878
34.6849
34.236
33.5121
32.7729
31.8303
30.7136
29.4263
28.0944
26.6976
25.3173
23.9239
22.5737
21.2344
19.9478
18.6886
17.4869
16.3204
15.2104
14.1402
13.1242
12.1489
11.2232
10.3372
9.49582
8.6916
7.92629
7.1947
6.49646
5.82795
5.18716
4.57148
3.97794
3.40465
2.84773
2.30597
1.77333
1.25525
0.726562
0.274328
18.243
19.3171
20.3221
21.5319
22.7731
24.2895
25.5293
26.7184
27.7156
28.5597
29.2649
29.6588
29.8896
29.8443
29.8183
29.6772
29.6898
29.674
29.833
29.9735
30.2774
30.5178
30.8808
31.1158
31.3896
31.4882
31.5534
31.4318
31.2509
30.9059
30.5177
30.0146
29.4999
28.932
28.3934
27.8722
27.4318
27.0627
26.8032
26.6397
26.5967
26.6457
26.7939
27.0145
27.3041
27.6489
28.045
28.44
28.8049
29.1744
29.5813
29.9748
30.3985
30.7291
31.1426
31.6297
32.4431
33.335
34.2045
34.7063
34.7964
34.5362
34.0297
33.3069
32.5792
31.5842
30.4262
29.1183
27.7809
26.3865
25.0138
23.6302
22.2917
20.9644
19.6907
18.4441
17.2554
16.1013
15.0037
13.9455
12.9413
11.9773
11.0624
10.1869
9.3555
8.56098
7.80498
7.08246
6.39297
5.73308
5.10072
4.49347
3.9083
3.34355
2.79533
2.2626
1.73958
1.23102
0.714601
0.266108
18.2452
19.306
20.3242
21.5478
22.7916
24.3047
25.5437
26.7362
27.7379
28.5862
29.2916
29.6827
29.9092
29.8589
29.8273
29.6786
29.6837
29.6606
29.8136
29.9505
30.2538
30.4969
30.8637
31.1035
31.3819
31.485
31.5534
31.4342
31.2545
30.9094
30.5187
30.0105
29.4889
28.9123
28.365
27.8351
27.3867
27.0098
26.7437
26.5745
26.5265
26.5704
26.7122
26.9272
27.2117
27.5515
27.942
28.3318
28.6942
29.0672
29.4749
29.8454
30.2178
30.4865
30.8612
31.3087
32.1324
33.0259
33.9013
34.4998
34.5514
34.3205
33.7506
33.0563
32.3073
31.2612
30.0757
28.7597
27.4258
26.04
24.6793
23.3089
21.9846
20.6717
19.4125
18.1804
17.006
15.8659
14.7819
13.7369
12.7454
11.7936
10.8906
10.0263
9.20584
8.42179
7.67587
6.96311
6.28307
5.63244
5.00914
4.41089
3.8347
3.27903
2.74007
2.21686
1.70397
1.2054
0.701674
0.257722
18.2433
19.2966
20.3278
21.565
22.8114
24.3214
25.56
26.7568
27.7636
28.6162
29.322
29.7104
29.9325
29.876
29.8378
29.6804
29.6769
29.6457
29.7922
29.9252
30.2281
30.474
30.845
31.0899
31.3734
31.4815
31.5534
31.4372
31.259
30.914
30.5205
30.0066
29.4772
28.8911
28.3342
27.7947
27.3372
26.9518
26.6785
26.5032
26.4493
26.4871
26.6218
26.8302
27.109
27.4432
27.8275
28.2115
28.5709
28.9476
29.3565
29.7035
30.0219
30.2252
30.5531
30.9715
31.7963
32.6788
33.5456
34.2077
34.301
34.0492
33.4263
32.7607
31.9523
30.8666
29.6695
28.357
27.0348
25.6634
24.3193
22.9655
21.6586
20.3624
19.1202
17.9043
16.746
15.6212
14.5522
13.5215
12.5438
11.6051
10.7146
9.8624
9.05332
8.28024
7.54478
6.84215
6.17184
5.53073
4.91667
4.32763
3.76053
3.21409
2.68447
2.17088
1.66816
1.17968
0.688579
0.249472
18.2382
19.2869
20.3304
21.581
22.8303
24.3377
25.576
26.7773
27.7893
28.6467
29.3529
29.7384
29.9559
29.8935
29.8486
29.682
29.6697
29.6299
29.7697
29.8987
30.2016
30.4504
30.8259
31.0761
31.3647
31.4777
31.5531
31.44
31.2636
30.9189
30.5228
30.0033
29.4661
28.8706
28.3041
27.7548
27.2878
26.8936
26.613
26.4313
26.3708
26.4018
26.5287
26.7297
27.0019
27.3296
27.7067
28.0837
28.4392
28.8191
29.2256
29.5493
29.8108
29.9341
30.2146
30.6059
31.3909
32.2711
33.1386
33.8243
34.0249
33.6872
33.0612
32.3988
31.5248
30.4128
29.2163
27.9156
26.6107
25.2578
23.9332
22.5986
21.3111
20.0335
18.8097
17.6116
16.4706
15.3624
14.3094
13.294
12.331
11.4064
10.5292
9.68975
8.89284
8.13141
7.40708
6.71518
6.0552
5.42416
4.81992
4.24057
3.68308
3.14632
2.62651
2.12296
1.63083
1.1528
0.674654
0.241096
18.2318
19.2791
20.3349
21.5985
22.8508
24.3555
25.594
26.8007
27.8186
28.6809
29.3877
29.7706
29.9833
29.9137
29.8611
29.6842
29.6618
29.6126
29.7451
29.8699
30.1728
30.4247
30.805
31.0609
31.3551
31.4734
31.5529
31.4435
31.2696
30.9252
30.5261
30.0004
29.4546
28.8487
28.2717
27.7115
27.2341
26.8304
26.542
26.353
26.2848
26.308
26.4264
26.6192
26.8844
27.2052
27.5746
27.9438
28.2945
28.6765
29.0808
29.3825
29.5926
29.6309
29.8577
30.2032
30.9216
31.7781
32.6715
33.3668
33.6767
33.2495
32.6395
31.9508
31.027
29.9047
28.7201
27.4387
26.1569
24.8269
23.5257
22.2134
20.948
19.6914
18.4881
17.3095
16.1874
15.0971
14.0614
13.0623
12.1149
11.205
10.3419
9.51569
8.73137
7.98197
7.26905
6.58813
5.93863
5.31782
4.72344
4.15388
3.60599
3.07894
2.5689
2.07537
1.59375
1.12614
0.660759
0.232915
18.2223
19.27
20.3382
21.6148
22.8702
24.3727
25.6115
26.8238
27.8476
28.7153
29.4228
29.8028
30.0107
29.9342
29.8738
29.6861
29.6536
29.5944
29.7193
29.8401
30.1432
30.3986
30.7838
31.0454
31.3452
31.4687
31.5521
31.4468
31.2755
30.9317
30.53
29.9982
29.4439
28.8278
28.2402
27.6689
27.1809
26.7675
26.4712
26.2743
26.1979
26.2124
26.3216
26.5058
26.7633
27.0763
27.4367
27.7966
28.1411
28.5229
28.9229
29.1987
29.3617
29.3154
29.4817
29.7585
30.3798
31.1782
32.1295
32.8408
33.2209
32.7573
32.1582
31.4116
30.4661
29.3507
28.1874
26.9308
25.676
24.3717
23.0964
21.8083
20.5667
19.3326
18.1512
16.9932
15.8912
14.8198
13.8022
12.8203
11.8893
10.9949
10.1465
9.33428
8.5632
7.8264
7.12546
6.45604
5.81756
5.20743
4.62342
4.06405
3.52622
3.00925
2.50937
2.0262
1.55543
1.09853
0.646152
0.224641
18.2105
19.2621
20.3433
21.6326
22.8912
24.3917
25.6313
26.8501
27.8805
28.7536
29.4622
29.8397
30.0424
29.9575
29.8882
29.6885
29.6445
29.5745
29.6912
29.8079
30.1111
30.3701
30.7606
31.0283
31.3342
31.4635
31.5516
31.4513
31.2832
30.94
30.5353
29.9969
29.4332
28.8059
28.2064
27.6228
27.1233
26.6996
26.3945
26.1883
26.1028
26.1075
26.207
26.3822
26.6315
26.9362
27.2871
27.6372
27.9744
28.3535
28.7497
28.9954
29.1175
29.0079
29.105
29.2911
29.7782
30.4785
31.5146
32.2762
32.6387
32.2037
31.5938
30.7888
29.8453
28.7507
27.6178
26.3923
25.1697
23.8952
22.6492
21.3884
20.1733
18.9638
17.8063
16.6706
15.59
14.5388
13.5405
12.5766
11.6627
10.7845
9.95124
9.15341
8.39585
7.67192
6.98311
6.32533
5.69788
5.09848
4.52477
3.97558
3.44767
2.94071
2.45083
1.97789
1.51776
1.07143
0.631762
0.216619
18.1961
19.2527
20.3471
21.649
22.9109
24.4099
25.6505
26.8759
27.913
28.7921
29.5018
29.8765
30.0741
29.9812
29.903
29.6908
29.6351
29.5536
29.6623
29.7748
30.0781
30.341
30.7369
31.0109
31.3227
31.4577
31.5507
31.4555
31.2908
30.9485
30.5411
29.9962
29.4234
28.7848
28.1734
27.5775
27.0665
26.6324
26.3183
26.1018
26.0068
26.001
26.0905
26.2563
26.4966
26.792
27.1318
27.4705
27.7984
28.1714
28.5603
28.7672
28.8442
28.69
28.7193
28.7958
29.0992
29.685
30.7808
31.6503
31.9504
31.578
30.9414
30.1088
29.182
28.1169
27.0197
25.8289
24.6412
23.3988
22.1841
20.9521
19.7649
18.5812
17.4486
16.3363
15.278
14.2478
13.2694
12.3243
11.4282
10.5667
9.74931
8.96639
8.22291
7.51232
6.83614
6.19042
5.57448
4.98619
4.42321
3.88453
3.36694
2.87028
2.39075
1.9283
1.4791
1.04355
0.616763
0.208525
18.181
19.2448
20.3527
21.667
22.9322
24.4298
25.672
26.9049
27.9494
28.8347
29.5459
29.9183
30.1103
30.008
29.9196
29.6936
29.6247
29.531
29.6311
29.7389
30.0426
30.3092
30.711
30.9916
31.31
31.4513
31.5501
31.4611
31.3004
30.9591
30.5488
29.9967
29.4139
28.7629
28.1382
27.5288
27.0054
26.5601
26.2358
26.0077
25.9019
25.885
25.9641
26.12
26.3507
26.6362
26.9643
27.2911
27.6077
27.9722
28.3513
28.5152
28.547
28.3834
28.3459
28.2771
28.354
28.7938
29.8987
30.906
31.1447
30.8326
30.1941
29.3649
28.4701
27.4438
26.3897
25.2393
24.0914
22.885
21.705
20.5046
19.3478
18.192
17.0861
15.9986
14.964
13.9558
12.9982
12.0727
11.195
10.3507
9.54949
8.78178
8.05254
7.35543
6.6919
6.05826
5.45372
4.87648
4.32404
3.79574
3.28825
2.8017
2.33223
1.88005
1.44146
1.01645
0.602155
0.200727
18.165
19.2356
20.3572
21.6836
22.9521
24.4488
25.6928
26.9332
27.9852
28.8773
29.5901
29.9599
30.1464
30.0351
29.9364
29.6962
29.6141
29.5074
29.5991
29.7022
30.0062
30.277
30.6844
30.9718
31.2966
31.4443
31.5492
31.4665
31.3099
30.9698
30.5569
29.9978
29.4053
28.7418
28.1039
27.4813
26.9454
26.4888
26.1537
25.9136
25.7963
25.7682
25.8366
25.982
26.2022
26.4764
26.7913
27.1043
27.4065
27.7592
28.121
28.2388
28.2181
28.058
27.9642
27.7088
27.5378
27.8184
28.8935
30.0618
30.2611
29.9773
29.3757
28.5759
27.725
26.744
25.7371
24.63
23.5241
22.3555
21.2117
20.0442
18.9187
17.7918
16.7133
15.6514
14.6411
13.6556
12.7195
11.814
10.9552
10.1287
9.34412
8.59206
7.87751
7.19428
6.54381
5.92261
5.32987
4.76399
4.22247
3.70483
3.20775
2.73158
2.27246
1.83075
1.40301
0.988704
0.587022
0.192871
18.1479
19.2273
20.3633
21.7019
22.9737
24.4697
25.716
26.9649
28.0252
28.9243
29.6391
30.0068
30.1874
30.0654
29.9552
29.6992
29.6023
29.4819
29.5643
29.6624
29.9668
30.2418
30.6555
30.95
31.2818
31.4368
31.5489
31.4736
31.3217
30.9831
30.5674
30.0006
29.3973
28.72
28.0677
27.4306
26.8812
26.4122
26.0646
25.8115
25.6812
25.6416
25.6987
25.8329
26.0419
26.3042
26.605
26.9027
27.19
27.5281
27.8669
27.9451
27.8757
27.7288
27.5876
27.1079
26.6708
26.7481
27.7579
29.017
29.2641
29.0099
28.471
27.726
26.9345
26.0087
25.0568
23.9987
22.9397
21.8127
20.7083
19.5763
18.4844
17.3882
16.3388
15.3038
14.3189
13.357
12.4431
11.5583
10.7189
9.91047
9.14276
8.40651
7.7067
7.03735
6.39985
5.79098
5.20984
4.65513
4.12424
3.61703
3.13003
2.66394
2.2148
1.78324
1.36592
0.961985
0.572442
0.185362
18.1285
19.2172
20.3681
21.7187
22.9939
24.4895
25.7383
26.9958
28.0645
28.9712
29.6881
30.0534
30.2282
30.096
29.9742
29.7022
29.5903
29.4557
29.5289
29.6219
29.9266
30.206
30.6259
30.9275
31.2663
31.4287
31.5482
31.4803
31.3331
30.9965
30.5782
30.004
29.39
28.6992
28.0326
27.3811
26.8181
26.3363
25.9758
25.7097
25.5661
25.5149
25.56
25.6824
25.8793
26.1285
26.4132
26.6932
26.9641
27.2818
27.5887
27.6282
27.5186
27.3472
27.1808
26.4653
25.7553
25.6115
26.4916
27.7571
28.1553
27.9655
27.5106
26.8388
26.1174
25.2527
24.3595
23.3528
22.3423
21.2582
20.1942
19.0985
18.041
16.976
15.9563
14.9486
13.9897
13.0518
12.1605
11.2969
10.4772
9.68727
8.93682
8.21672
7.53201
6.87686
6.25268
5.65643
5.08721
4.54395
4.024
3.52745
3.05081
2.59501
2.1561
1.73486
1.32816
0.934719
0.557404
0.177806
18.1081
19.2083
20.3746
21.7373
23.0158
24.5112
25.7631
27.0302
28.1081
29.0228
29.7424
30.1058
30.2743
30.1302
29.9953
29.7055
29.5769
29.4276
29.4904
29.5779
29.8829
30.1668
30.5936
30.9027
31.2494
31.4202
31.5484
31.4889
31.3473
31.0128
30.5917
30.0093
29.3834
28.6778
27.9958
27.3285
26.7507
26.2549
25.8802
25.5994
25.4417
25.3781
25.4103
25.5208
25.7044
25.9396
26.2075
26.4681
26.7238
27.0156
27.2883
27.2915
27.1642
26.9604
26.7614
25.8177
24.8139
24.3656
25.0601
26.261
26.8765
26.808
26.4688
25.8936
25.2585
24.4655
23.6389
22.6893
21.7322
20.6946
19.6741
18.6171
17.5959
16.5639
15.5752
14.596
13.6639
12.7508
11.8828
11.0406
10.2411
9.46982
8.73672
8.03281
7.3631
6.72205
6.11096
5.52713
4.96951
4.43741
3.928
3.44177
2.97506
2.52916
2.10001
1.68867
1.29208
0.90872
0.543072
0.170638
18.0867
19.1977
20.3796
21.7543
23.036
24.5316
25.7868
27.0635
28.1507
29.074
29.7964
30.1577
30.32
30.1646
30.0167
29.7088
29.5635
29.3988
29.4513
29.5333
29.8384
30.127
30.5605
30.8772
31.2317
31.4112
31.548
31.497
31.361
31.0291
30.6053
30.015
29.3775
28.6574
27.9604
27.2775
26.6851
26.1747
25.7853
25.4899
25.3181
25.2419
25.2607
25.3588
25.5276
25.7472
25.9966
26.2361
26.4763
26.7334
26.9676
26.9282
26.788
26.5448
26.302
25.1455
23.8168
23.0091
23.5062
24.6194
25.4722
25.5765
25.3822
24.9196
24.3801
23.664
22.9069
22.0162
21.1134
20.1231
19.1465
18.1287
17.1442
16.1454
15.1881
14.2377
13.3326
12.4446
11.6
10.7797
10.0006
9.24826
8.53279
7.84533
7.19092
6.56422
5.96651
5.39532
4.84959
4.32886
3.83028
3.35456
2.89803
2.46222
2.04304
1.64174
1.25544
0.882248
0.528326
0.163435
18.066
19.1886
20.3864
21.7732
23.0582
24.554
25.8131
27.1005
28.198
29.1303
29.8561
30.2157
30.3713
30.2027
30.0402
29.7123
29.5484
29.3677
29.4088
29.4848
29.7901
30.0836
30.5242
30.8494
31.2126
31.4019
31.5486
31.5073
31.378
31.0489
30.6221
30.0231
29.3729
28.6372
27.9238
27.2238
26.6152
26.0887
25.683
25.3719
25.1853
25.0949
25.0995
25.1849
25.3373
25.5408
25.7709
25.9896
26.2148
26.4312
26.6268
26.5487
26.4049
26.1345
25.8359
24.4655
22.7512
21.5373
21.7739
22.8148
23.9046
24.2373
24.2209
23.8935
23.4653
22.8364
22.1567
21.3305
20.4865
19.5468
18.617
17.6404
16.6944
15.7302
14.8054
13.8846
13.0075
12.145
11.3244
10.5262
9.76765
9.03434
8.33646
7.66535
7.02603
6.41344
5.82877
5.26991
4.73564
4.2259
3.73765
3.27202
2.82512
2.39892
1.98915
1.5974
1.22078
0.85727
0.514419
0.156685
18.0433
19.1774
20.3918
21.7905
23.0786
24.575
25.8381
27.1363
28.2441
29.1861
29.9155
30.2733
30.4223
30.2411
30.064
29.7159
29.5335
29.336
29.3657
29.4356
29.7411
30.0394
30.4868
30.8208
31.1927
31.3919
31.5486
31.517
31.3944
31.0682
30.6387
30.0315
29.3693
28.6182
27.8889
27.1719
26.5472
26.0039
25.5816
25.2555
25.0538
24.9488
24.9393
25.0106
25.1456
25.3314
25.5408
25.738
25.944
26.1143
26.2654
26.1421
25.9897
25.6874
25.3353
23.7423
21.5868
19.9714
19.8758
20.9267
22.2456
22.8428
23.0287
22.8491
22.5392
22.0013
21.4006
20.6398
19.855
18.9661
18.0829
17.1477
16.2401
15.3106
14.4182
13.5273
12.6781
11.8414
11.0449
10.269
9.5311
8.81699
8.1369
7.48233
6.85832
6.26004
5.68865
5.1423
4.61974
4.12116
3.6435
3.18811
2.7511
2.33466
1.93451
1.55241
1.18563
0.831873
0.500119
0.149946
18.0202
19.1676
20.3988
21.8098
23.101
24.5981
25.8658
27.1759
28.2951
29.2473
29.9809
30.3373
30.4792
30.2835
30.0901
29.7198
29.517
29.3016
29.3187
29.382
29.6878
29.9911
30.4461
30.7894
31.1713
31.3817
31.5497
31.5292
31.4141
31.0912
30.659
30.043
29.3677
28.5999
27.8531
27.1175
26.4748
25.913
25.4725
25.1306
24.9124
24.7913
24.7671
24.8227
24.9405
25.1075
25.2968
25.4708
25.655
25.7805
25.8798
25.7117
25.5617
25.2336
24.8273
23.0062
20.3591
18.2874
17.8065
18.9303
20.4676
21.3615
21.7746
21.7619
21.584
21.1465
20.6322
19.9417
19.2201
18.3848
17.5509
16.6587
15.7911
14.8975
14.0386
13.1781
12.3574
11.5468
10.7747
10.0212
9.30408
8.60912
7.94665
7.3084
6.69936
6.11505
5.55649
5.02224
4.51083
4.02295
3.55527
3.10961
2.68184
2.2746
1.8834
1.51038
1.15275
0.808188
0.486781
0.143746
17.9951
19.1557
20.4044
21.8273
23.1215
24.6195
25.8921
27.2141
28.3448
29.308
30.0458
30.4007
30.5356
30.3259
30.1164
29.7237
29.5009
29.2668
29.2713
29.3279
29.6337
29.9421
30.4046
30.7574
31.1492
31.3708
31.55
31.5404
31.4327
31.1134
30.6791
30.0547
29.367
28.5831
27.8193
27.0651
26.4042
25.8238
25.3651
25.0077
24.7726
24.6351
24.5957
24.6352
24.7366
24.8817
25.05
25.1981
25.354
25.4343
25.4822
25.2617
25.0959
24.7303
24.281
22.2395
19.0885
16.5484
15.6583
16.9152
18.6492
19.8509
20.5065
20.6684
20.6264
20.2909
19.8631
19.243
18.5842
17.8023
17.017
16.1676
15.3395
14.4815
13.6558
12.8258
12.0335
11.2491
10.5013
9.77027
9.07401
8.3983
7.75359
7.13178
6.5379
5.96769
5.42216
4.90014
4.40013
3.92309
3.46563
3.02984
2.61154
2.21363
1.83159
1.46775
1.11942
0.784114
0.473059
0.137589
17.9706
19.1455
20.4116
21.847
23.1441
24.643
25.9211
27.2561
28.3995
29.3743
30.1172
30.471
30.5982
30.3727
30.1451
29.7277
29.4828
29.2287
29.2195
29.2688
29.5747
29.8885
30.3595
30.7225
31.1255
31.3597
31.5515
31.5542
31.455
31.1403
30.7038
30.0704
29.3692
28.5678
27.7849
27.0103
26.3291
25.7283
25.25
24.8752
24.6222
24.4672
24.412
24.4347
24.5198
24.6426
24.7829
24.9106
25.0343
25.0719
25.0747
24.8048
24.6125
24.2119
23.724
21.479
17.8156
14.7637
13.4867
14.8409
16.7558
18.2811
19.1939
19.5444
19.6487
19.4229
19.0878
18.5423
17.9496
17.2235
16.489
15.6837
14.8965
14.075
13.2833
12.4842
11.7208
10.9627
10.2394
9.53091
8.8554
8.19877
7.57151
6.96582
6.38663
5.83009
5.29702
4.78672
4.29744
3.83066
3.38272
2.95619
2.54662
2.15741
1.78377
1.42845
1.08865
0.761956
0.460427
0.132019
17.9456
19.1334
20.4175
21.8649
23.1646
24.6648
25.9485
27.2967
28.4529
29.44
30.1881
30.5407
30.6604
30.4196
30.1741
29.7318
29.4653
29.1903
29.1672
29.209
29.5149
29.8339
30.3133
30.6867
31.1009
31.3478
31.5521
31.5667
31.4761
31.1663
30.7282
30.0864
29.3725
28.554
27.7524
26.9573
26.2558
25.6347
25.1374
24.7445
24.4741
24.3022
24.2305
24.2361
24.3044
24.4029
24.5086
24.621
24.7075
24.6968
24.6526
24.3344
24.0974
23.6526
23.1304
20.7088
16.5604
13.0044
11.3681
12.7512
14.8489
16.7083
17.8857
18.4268
18.6776
18.5607
18.3171
17.845
17.3174
16.6461
15.9613
15.1995
14.4525
13.6669
12.9089
12.1404
11.4056
10.6739
9.97495
9.28891
8.63414
7.99661