/*--------------------------------*- C++ -*----------------------------------*\
| =========                 |                                                 |
| \\      /  F ield         | OpenFOAM: The Open Source CFD Toolbox           |
|  \\    /   O peration     | Version:  4.1                                   |
|   \\  /    A nd           | Web:      www.OpenFOAM.org                      |
|    \\/     M anipulation  |                                                 |
\*---------------------------------------------------------------------------*/
FoamFile
{
    version     2.0;
    format      ascii;
    class       surfaceScalarField;
    location    "24";
    object      phi;
}
// * * * * * * * * * * * * * * * * * * * * * * * * * * * * * * * * * * * * * //

dimensions      [0 3 -1 0 0 0 0];

internalField   nonuniform List<scalar> 
52920
(
2301.75
-86.6764
2389.13
-77.3875
2470.69
-81.1157
2553.4
-83.8677
2632.08
-82.9873
2710.52
-81.9047
2789.21
-80.4574
2865.93
-80.659
2947.34
-80.6973
3024.37
-82.1318
3110.44
-82.7666
3192.18
-83.5845
3282.74
-84.1694
3364.07
-84.9484
3453.64
-85.0889
3534.56
-84.6461
3623.25
-83.7074
3701.74
-82.1925
3788.1
-80.4821
3864.11
-78.1456
3947.8
-76.3312
4023.39
-74.2815
4106.06
-73.0585
4181.61
-71.6404
4264.41
-71.2367
4340.7
-70.5832
4424.15
-70.8817
4501.77
-70.7082
4585.12
-71.1561
4663.61
-70.771
4745.25
-70.7135
4822.82
-69.7823
4901.85
-69.01
4977.56
-67.6311
5053.16
-66.4408
5125.52
-64.952
5197.45
-63.6897
5266.84
-62.2609
5336.22
-61.0339
5403.22
-59.7347
5470.66
-58.586
5536.99
-57.3721
5603.65
-56.1826
5669.82
-54.9462
5733.96
-53.6201
5798.28
-52.5962
5869.89
-51.9961
5927.65
-49.4631
5996.79
-49.3596
6051.55
-47.1115
6119.38
-47.6643
6173.1
-44.9122
6239.11
-44.9935
6293.11
-42.9186
6356.19
-43.79
6409.33
-42.5524
6470.88
-42.1066
6521.06
-40.6306
6584.88
-45.3247
6642.95
-50.5742
6719.15
-59.1293
6789.34
-64.4448
6877.71
-72.569
6959.36
-78.0183
7060.6
-86.1399
7156.42
-94.0339
7274.28
-105.591
7386.19
-113.091
7516.65
-120.588
7638.85
-123.682
7772.32
-126.435
7897.53
-126.807
8030.28
-127.347
8156.11
-126.81
8286.64
-126.594
8411.83
-125.886
8540.38
-125.421
8664.86
-124.704
8791.36
-124.132
8914.82
-123.442
9039.53
-122.827
9161.98
-122.17
9284.98
-121.555
9406.35
-120.946
9527.85
-120.364
9648.22
-119.815
9768.4
-119.296
9887.84
-118.821
10006.9
-118.384
10125.6
-117.997
10243.8
-117.665
10361.8
-117.385
10479.3
-117.174
10596.9
-117.013
10714.1
-116.941
10831.3
-116.833
10948.5
-117.088
11064.9
-116.089
11187.8
-122.869
-112.522
2427
-176.991
2525.55
-163.823
2617.78
-170.703
2710.84
-176.452
2800.4
-176.212
2889.32
-174.392
2979.43
-172.766
3067.14
-172.698
3160.81
-173.696
3249.62
-176.239
3348.92
-178.484
3443.42
-179.742
3547.7
-181.516
3642.07
-182.54
3745.51
-183.361
3840.02
-182.191
3942.94
-180.88
4035.32
-177.729
4136.02
-174.761
4226.07
-170.212
4324.05
-166.755
4413.88
-162.6
4510.84
-160.095
4600.71
-157.183
4697.76
-156.264
4788.25
-154.967
4885.76
-155.442
4977.37
-155.199
5074.5
-156.03
5166.71
-155.61
5261.84
-155.535
5352.86
-154.046
5445.12
-152.535
5534.01
-149.92
5622.65
-147.55
5708.07
-144.803
5792.96
-142.312
5875.34
-139.552
5957.64
-137.133
6037.6
-134.568
6117.9
-132.328
6197.07
-129.878
6276.46
-127.476
6355.26
-124.837
6431.98
-122.171
6508.74
-119.893
6592.38
-117.884
6662.4
-113.194
6743.21
-111.897
6809.92
-107.745
6889.1
-107.142
6954.6
-102.035
7031.96
-100.603
7097.73
-96.8319
7171.89
-98.1255
7236.17
-95.7323
7307.79
-94.2298
7368.11
-91.2623
7441.24
-98.1017
7508.44
-108.295
7592.28
-123.752
7669.45
-134.265
7762.79
-148.454
7848.4
-158.741
7950.75
-173.018
8046.05
-187.304
8160.43
-206.721
8267.18
-219.967
8389.61
-231.299
8502.31
-235.888
8623.84
-238.776
8735.71
-238.039
8852.91
-237.107
8961.75
-234.514
9073.26
-232.28
9177.9
-229.239
9283.96
-226.555
9384.35
-223.423
9484.88
-220.535
9580.7
-217.415
9675.94
-214.439
9767.2
-211.373
9857.2
-208.402
9943.84
-205.444
10028.8
-202.554
10110.9
-199.749
10191.1
-197.014
10268.8
-194.412
10344.5
-191.893
10418
-189.54
10489.5
-187.3
10559.2
-185.249
10626.9
-183.342
10693
-181.645
10757.3
-180.102
10820.4
-178.762
10881.5
-177.571
10942.1
-176.012
10997.4
-177.796
-174.294
2566.39
-275.324
2673.91
-261.948
2776.03
-273.363
2879.1
-281.169
2979
-280.48
3078.42
-277.122
3179.09
-274.918
3277.72
-274.974
3381.88
-277.144
3481.64
-280.792
3590.86
-284.615
3695.46
-286.303
3808.65
-288.972
3912.35
-289.925
4023.75
-290.85
4126.26
-288.599
4235.7
-285.972
4334.63
-280.452
4440.34
-275.156
4535.41
-267.378
4636.9
-261.33
4730.02
-254.595
4828.86
-249.897
4920.2
-245.038
5017.27
-242.474
5107.27
-239.78
5202.8
-239.058
5291.8
-237.738
5384.93
-237.364
5472.42
-235.574
5561.66
-233.844
5646.06
-230.531
5730.73
-226.871
5811.31
-222.136
5890.86
-217.491
5966.54
-212.589
6040.99
-207.919
6112.29
-203.101
6182.81
-198.597
6250.39
-194.103
6317.63
-189.827
6383.11
-185.427
6448.17
-180.988
6512.05
-176.416
6573.32
-171.885
6634.03
-167.77
6701.02
-163.331
6753.89
-157.087
6817.2
-153.329
6866.13
-148.658
6927.77
-146.558
6975.13
-140.638
7033.37
-136.103
7077.33
-129.817
7128.61
-128.536
7170.74
-127.353
7222.91
-124.942
7263.98
-123.107
7316.53
-130.51
7358.88
-144.805
7414.66
-161.431
7458.55
-174.377
7514.89
-188.274
7557.52
-199.956
7612.24
-211.658
7654.11
-230.035
7713.11
-253.11
7760.99
-272.534
7824.11
-284.831
7875
-291.481
7934.56
-291.661
7982.51
-290.169
8035.83
-285.201
8079.32
-280.891
8125.62
-274.767
8163.95
-269.765
8203.93
-263.509
8237.43
-258.297
8271.28
-252.184
8299.82
-246.878
8327.95
-240.9
8351.68
-235.559
8374.26
-229.799
8393.17
-224.524
8410.51
-219.034
8424.8
-213.934
8437.2
-208.81
8447.1
-204.007
8454.98
-199.337
8460.82
-194.959
8464.7
-190.848
8466.97
-187.036
8467.44
-183.593
8466.78
-180.501
8464.61
-177.794
8461.89
-175.631
8457.41
-173.087
8455.38
-173.667
8438.25
-160.652
-178.002
2694.07
-378.654
2808.04
-365.082
2916.47
-379.088
3025.05
-389.024
3129.85
-388.33
3233.34
-383.844
3337.09
-380.702
3437.96
-379.705
3542.84
-381.409
3642.34
-384.81
3749.22
-388.115
3850.11
-388.497
3957.35
-389.705
4053.75
-388.957
4155.5
-387.487
4246.78
-382.276
4342.77
-376.158
4426.78
-366.919
4515.59
-357.375
4592.3
-345.446
4673.65
-334.865
4745.05
-323.971
4820.41
-314.957
4886.54
-306.38
4956.64
-300.012
5017.81
-294.338
5082.85
-290.355
5139.51
-286.638
5198.82
-283.361
5250.83
-279.478
5303.37
-274.938
5349.71
-269.393
5395.41
-262.767
5436.03
-255.421
5474.95
-247.941
5509.27
-240.745
5541.9
-233.556
5570.86
-226.443
5598.82
-219.634
5623.43
-212.963
5647.62
-206.563
5669.89
-199.968
5691.79
-193.379
5712.54
-186.538
5730.53
-180.171
5748.11
-173.69
5773.3
-165.773
5782.2
-158.22
5803.45
-150.767
5807.98
-145.635
5829.09
-141.141
5835.13
-135.681
5855.83
-126.521
5857.45
-114.612
5864.11
-107.012
5858.13
-105.055
5866.82
-105.36
5864.76
-106.55
5877.74
-111.966
5876.47
-127.67
5890.27
-144.244
5886.63
-157.585
5896.37
-169.674
5885.85
-180.507
5887.24
-189.154
5870.59
-211.358
5877.12
-239.059
5871.6
-267.513
5888.8
-283.345
5893.67
-294.898
5913.15
-295.97
5921.35
-296.367
5939.98
-291.26
5949.58
-287.759
5966.32
-281.481
5976.41
-276.99
5992.19
-270.748
6003.29
-266.012
6018.44
-260.126
6030.43
-255.297
6045.53
-249.682
6058.65
-244.838
6073.88
-239.548
6088.04
-234.809
6103.73
-229.891
6119.07
-225.424
6135.48
-221.022
6152.18
-217.029
6169.76
-213.301
6188.19
-210.006
6207.52
-207.147
6228.24
-204.788
6250.08
-203.002
6273.83
-201.822
6299.1
-201.274
6326.81
-201.55
6356.37
-201.586
6389.23
-205.509
6422.34
-193.218
-219.408
2789.49
-482.531
2901.78
-469.666
3006.42
-485.124
3109.24
-493.75
3206.79
-489.978
3301.47
-481.603
3394.73
-475.2
3483.44
-471.77
3573.98
-471.2
3657
-472.353
3744.69
-472.698
3823.83
-469.691
3906.58
-466.761
3975.83
-462.115
4047.87
-455.531
4106.97
-445.669
4168.91
-433.505
4216.82
-419.099
4268.38
-403.015
4306.07
-385.543
4347.69
-368.456
4377.74
-352.707
4411.22
-337.626
4433.81
-324.799
4460.11
-312.901
4475.87
-303.653
4495.55
-294.831
4505.5
-288.188
4518.47
-280.709
4523.23
-274.043
4529.08
-265.779
4528.33
-257.559
4527.71
-247.58
4522.06
-237.851
4515.56
-227.652
4504.76
-218.431
4493.24
-209.033
4478.58
-200.269
4464.12
-191.539
4446.92
-183.516
4430.68
-175.255
4413.42
-167.139
4397.15
-158.775
4380.83
-150.472
4362.35
-142.875
4344.84
-134.866
4338.97
-123.425
4312.77
-116.459
4303.75
-103.837
4272.03
-99.7623
4263.36
-93.1525
4237.31
-94.0462
4237.5
-85.9166
4215.39
-72.667
4197.9
-51.3487
4156.22
-44.1325
4131.33
-40.7578
4091.71
-50.1434
4077.15
-59.2242
4046.73
-87.4297
4042.76
-106.865
4017.18
-126.915
4014.55
-137.984
3986.79
-152.288
3980.39
-156.306
3954.46
-190.564
3968.58
-234.152
3971.85
-282.089
4010.75
-308.342
4035.75
-329.471
4082.5
-333.071
4115.6
-336.927
4163.85
-331.873
4201.43
-330.159
4249.7
-324.345
4290.9
-321.692
4341.08
-316.819
4387.17
-314.306
4440.3
-310.504
4491.59
-308.131
4548.7
-304.908
4605.47
-302.535
4666.71
-299.655
4728.58
-297.255
4793.96
-294.602
4860.57
-292.289
4929.84
-289.962
5000.72
-287.954
5073.68
-286.136
5148.49
-284.709
5225.02
-283.659
5303.55
-283.116
5383.59
-283.113
5465.77
-283.764
5549.45
-285.057
5635.3
-287.182
5722.92
-289.37
5811.86
-294.265
5908.21
-289.61
-311.241
2817.62
-573.286
2915.39
-557.106
3003.48
-570.564
3088.42
-578.132
3167.04
-571.749
3241.39
-559.466
3312.56
-548.581
3377.01
-540.237
3440.83
-534.359
3494.33
-530.314
3549.93
-524.468
3594.3
-515.161
3640.55
-505.518
3671.11
-495.183
3703.79
-481.903
3722.32
-466.421
3744.42
-448.142
3752.05
-428.997
3765.11
-407.246
3764.14
-385.507
3769.39
-362.972
3763.17
-343.008
3762.8
-322.817
3751.63
-306.339
3746.88
-290.161
3731.72
-278.489
3723.57
-266.57
3706.02
-258.748
3694.63
-249.397
3675.68
-242.535
3660.57
-233.277
3639.7
-225.033
3621.29
-214.234
3598.69
-204.062
3576.96
-193.226
3551.58
-183.826
3526.87
-173.94
3499.54
-164.761
3473.73
-155.517
3445.49
-146.973
3419.47
-138.078
3392.93
-129.023
3368.38
-119.558
3344.26
-109.882
3317.75
-101.111
3293.25
-91.0851
3284.59
-77.215
3249.76
-68.6071
3238.11
-52.0485
3195.69
-44.5593
3182.3
-33.9003
3143.73
-36.1313
3142.13
-29.9839
3115.8
-14.9773
3100.23
15.9419
3050.97
36.3341
3018.42
44.6198
2961.85
34.5141
2942.12
22.5436
2905.33
-16.0254
2908.63
-46.9417
2886.7
-73.5932
2903.33
-98.5538
2895.63
-122.612
2923.54
-139.901
2933.02
-193.795
2996.71
-260.5
3045.41
-325.475
3132.62
-361.963
3198.02
-386.851
3283.85
-392.697
3350.37
-396.386
3431.62
-392.746
3499.79
-391.743
3579.4
-388.553
3651.64
-388.102
3734.05
-386.752
3812.77
-387.178
3899.33
-386.939
3984.29
-387.461
4075.26
-387.316
4165.68
-387.389
4260.15
-386.908
4354.6
-386.403
4451.67
-385.522
4549
-384.622
4647.83
-383.583
4747.08
-382.634
4847.07
-381.784
4947.6
-381.2
5048.45
-380.948
5149.91
-381.157
5251.46
-381.912
5353.75
-383.329
5456.15
-385.46
5559.37
-388.433
5663.02
-391.862
5767.11
-397.242
5875.94
-397.858
-415.918
2750.08
-647.77
2829.46
-629.466
2896.38
-639.343
2957.76
-641.653
3010.68
-628.863
3057.02
-608.994
3097.8
-590.486
3129.48
-575.574
3158.83
-562.817
3176.25
-552.909
3195.84
-540.405
3204.11
-526.17
3216.42
-511.216
3214.04
-497.914
3217.38
-480.51
3208.53
-463.319
3207.86
-441.832
3194.7
-421.576
3191.85
-396.726
3176.37
-373.284
3171.72
-347.57
3156.84
-326.276
3152
-303.248
3137.23
-285.75
3132.94
-267.459
3118.9
-255.38
3115.75
-242.422
3103.73
-234.85
3101.19
-225.189
3091.53
-218.331
3087.94
-208.704
3078.76
-199.913
3073.25
-188.248
3063.29
-177.142
3054.52
-165.123
3041.45
-154.285
3028.84
-142.922
3012.71
-132.14
2997.71
-121.176
2979.14
-110.818
2962.4
-99.8276
2944.2
-88.5478
2927.45
-76.6393
2910.2
-64.5978
2889.25
-53.1686
2869.89
-40.5803
2867.65
-24.2306
2834.5
-12.1288
2827.91
7.4063
2785.95
18.8479
2776.48
30.5177
2734.2
29.3149
2731.36
29.8576
2699.26
44.9873
2683.73
82.6035
2634.95
111.327
2605.2
127.094
2543.38
119.322
2521.3
96.7958
2478.27
39.7256
2484.27
-7.71794
2468.56
-53.8311
2508.1
-102.977
2525.9
-143.681
2582.11
-167.689
2615.14
-239.416
2701.69
-329.335
2766.16
-407.268
2865.24
-448.258
2938.09
-472.387
3030.22
-476.042
3103.06
-478.363
3192.4
-475.347
3271.16
-476.432
3363.82
-476.902
3451.6
-480.36
3551.09
-483.34
3648.19
-487.448
3753.41
-490.635
3857.15
-493.714
3966.21
-495.685
4074.04
-497.122
4184.75
-497.599
4294.37
-497.531
4405.29
-496.786
4515.25
-495.717
4625.41
-494.308
4734.8
-492.855
4843.75
-491.381
4952.14
-490.163
5059.79
-489.224
5167.09
-488.822
5273.57
-488.964
5379.94
-489.909
5485.63
-491.623
5591.46
-494.34
5697.01
-497.808
5802.83
-503.048
5910.92
-506.091
-522.232
2615.8
-700.432
2670.7
-673.749
2707.92
-673.99
2736.26
-669.92
2754.58
-651.048
2765.65
-624.435
2771.56
-599.126
2769.56
-578.352
2768.11
-560.556
2757.61
-547.634
2754.41
-532.267
2743.93
-516.922
2743.73
-501.429
2732.46
-489.546
2732.9
-472.699
2724.11
-457.057
2728.62
-436.525
2722.12
-417.575
2729.91
-392.764
2725.21
-369.392
2734.29
-342.543
2733.03
-319.962
2744.03
-295.399
2744.75
-276.535
2757.82
-257.37
2760.61
-244.922
2775.81
-232.19
2781.54
-225.207
2797.6
-216.538
2805.77
-210.706
2820.05
-201.976
2827.8
-193.47
2838.64
-181.696
2843.88
-169.548
2849.35
-156.498
2849.32
-144.21
2848.7
-131.24
2843.35
-118.383
2838.13
-105.353
2828.19
-92.599
2819.21
-79.2703
2807.86
-65.241
2797.21
-50.4154
2785.26
-35.1044
2768.76
-20.1964
2753.38
-3.76268
2754.75
16.3784
2723.36
33.4187
2719.02
56.4093
2678.26
73.2773
2671.36
89.2245
2629.19
93.4861
2622.63
99.5387
2580.88
123.84
2558.58
163.658
2507.7
198.893
2475.05
218.852
2406.51
220.657
2372.86
205.533
2316.89
143.834
2325.26
68.8466
2324.83
-6.99293
2381.61
-88.1334
2407.42
-135.297
2464.49
-166.552
2494
-253.366
2575.74
-358.589
2632.32
-446.256
2722.59
-493.766
2788.11
-521.997
2875.57
-531.855
2948.82
-540.602
3042.78
-546.618
3131.02
-556.052
3235.87
-565.29
3338.34
-575.755
3453.01
-584.932
3565.66
-593.402
3685.57
-599.962
3803.21
-605.059
3924.77
-608.313
4043.93
-610.18
4164.52
-610.644
4282.81
-610.092
4401.12
-608.652
4517.41
-606.66
4632.84
-604.275
4746.59
-601.765
4859.04
-599.282
4970.19
-597.063
5079.91
-595.236
5188.69
-594.006
5296.07
-593.484
5402.87
-593.858
5508.53
-595.216
5613.96
-597.7
5718.68
-601.316
5823.55
-606.709
5929.34
-611.269
-626.984
2413.3
-726.888
2433.46
-686.499
2432.87
-675.722
2425.46
-665.063
2412.7
-643.066
2398.1
-613.574
2384.25
-586.475
2368.19
-566.642
2359.26
-550.392
2346.32
-540.99
2347.19
-528.477
2344.49
-517.785
2357.13
-506.175
2360.32
-499.152
2378.52
-485.441
2387.56
-473.258
2411.41
-454.011
2422.85
-435.978
2449.03
-410.146
2460.7
-384.953
2486.19
-355.789
2499.74
-331.357
2525.5
-304.573
2539.68
-284.146
2566.18
-263.491
2581.36
-250.037
2608.82
-236.75
2625.93
-229.239
2653.05
-220.203
2671.49
-213.167
2695.46
-203.232
2712.13
-192.622
2731.18
-178.635
2743.85
-163.884
2756.04
-147.997
2762.1
-132.449
2766.98
-116.31
2766.58
-100.144
2765.86
-83.824
2760
-67.6505
2754.81
-50.8114
2746.97
-33.2282
2739.67
-14.7788
2730.87
4.00707
2717.43
22.7003
2705.25
42.4279
2709.78
65.535
2681.11
87.5301
2678.45
113.286
2639.69
134.686
2634.62
149.693
2593.45
157.719
2584
164.721
2539.4
193.657
2517.58
232.876
2466.76
271.807
2426.89
305.613
2346
319.958
2297.61
299.854
2236.86
210.661
2254.41
90.1194
2264.46
-23.0721
2321.26
-118.346
2339.82
-166.164
2388.36
-191.389
2405.44
-292.264
2472.98
-413.409
2516.12
-510.947
2595.5
-563.894
2655.52
-596.427
2742.72
-613.19
2822.62
-630.758
2927.33
-647.099
3030.04
-665.793
3150.11
-683.124
3268.18
-699.38
3397.11
-712.73
3522.89
-723.437
3654.02
-731.066
3781.41
-736.03
3910.99
-738.498
4036.84
-738.941
4162.76
-737.667
4285.34
-735.108
4406.91
-731.544
4525.66
-727.38
4642.79
-722.806
4757.65
-718.189
4870.66
-713.635
4981.91
-709.502
5091.31
-705.828
5199.4
-702.956
5305.77
-700.881
5411.28
-699.942
5515.38
-700.11
5619.04
-701.674
5721.73
-704.606
5824.43
-709.551
5927.39
-714.455
-729.671
2136.28
-710.616
2124.22
-662.391
2102.31
-651.143
2083.93
-647.248
2068.52
-632.68
2057.49
-608.151
2052.24
-584.661
2048.21
-568.304
2054.66
-555.715
2058.43
-550.749
2078.24
-542.132
2094.21
-535.018
2126.15
-526.95
2147.15
-523.127
2182.74
-511.571
2207.18
-500.189
2245.34
-481.168
2268.88
-461.902
2306.03
-434.221
2326.75
-406.336
2360.45
-374.147
2381
-346.062
2413.24
-316.36
2433.12
-292.889
2464.99
-270.48
2485.04
-255.512
2517.16
-241.812
2538.6
-233.996
2569.82
-225.374
2592.07
-218.602
2619.58
-208.997
2639.51
-197.924
2661.52
-183.26
2676.85
-166.776
2691.44
-149.281
2699.69
-131.669
2706.58
-113.385
2708.02
-94.668
2709.04
-75.8064
2704.85
-56.9252
2701.36
-37.371
2695.23
-16.7727
2689.69
4.90022
2682.7
27.2371
2671.31
49.5036
2661.8
72.8653
2668.87
99.6984
2642.66
126.937
2641.38
157.389
2604.31
183.912
2600.37
204.246
2559.3
219.935
2549.98
237.952
2507.71
274.832
2486.68
314.499
2432.65
364.481
2389.76
406.547
2310.23
431.993
2251.52
434.952
2178.24
338.28
2198.89
169.3
2206.35
26.0125
2253.86
-78.1242
2268.13
-136.599
2307.92
-155.342
2307.86
-261.322
2362.44
-399.709
2398.25
-519.015
2474.16
-591.121
2537.39
-641.346
2632.71
-677.862
2726.37
-713.376
2846.25
-745.785
2965.08
-776.23
3099.6
-802.098
3230.73
-823.461
3370.32
-839.676
3505.01
-851.285
3643.05
-858.622
3775.92
-862.361
3909.53
-863.082
4038.38
-861.408
4166.31
-857.86
4290.17
-852.94
4412.34
-847.051
4531.19
-840.603
4647.94
-833.881
4762.06
-827.21
4873.97
-820.791
4983.86
-814.909
5091.61
-809.704
5197.86
-805.425
5302.15
-802.183
5405.42
-800.211
5507.08
-799.613
5608.17
-800.568
5708.09
-803.242
5807.9
-808.065
5907.55
-813.445
-828.918
1815.2
-703.915
1824.07
-662.971
1824.97
-654.758
1828.54
-653.692
1833.9
-643.221
1842.33
-620.614
1855.5
-598.949
1868.54
-586.06
1891.22
-577.005
1909.68
-576.125
1943.52
-571.025
1971.79
-567.621
2015.01
-562.511
2045.62
-560.958
2089.76
-550.673
2121.22
-539.642
2165.35
-519.385
2193.59
-497.684
2234.63
-466.662
2258.26
-434.142
2294.41
-398.043
2316.89
-366.483
2350.83
-333.687
2372.08
-307.702
2405.26
-283.349
2426.42
-266.755
2459.66
-252.221
2482.15
-243.413
2514.44
-234.071
2537.72
-225.574
2566.26
-214.214
2587.14
-200.504
2610.02
-183.06
2626.07
-163.556
2641.33
-142.717
2650.18
-121.431
2657.66
-99.5882
2659.63
-77.2782
2661.22
-54.9089
2657.64
-32.3997
2654.88
-9.22473
2649.58
14.9757
2645.06
40.2223
2639.47
65.628
2630.04
90.551
2622.75
116.085
2631.44
145.304
2606.74
177.729
2606.07
211.563
2570.11
242.267
2566.54
261.831
2525.43
282.204
2517
299.481
2475.38
337.503
2452.71
379.821
2397.75
435.666
2358.14
485.457
2282.14
519.905
2211.86
542.72
2123.9
421.836
2139.47
182.467
2140.65
1.81496
2179.84
-102.928
2182.56
-166.764
2200.45
-154.19
2183.97
-275.183
2236.41
-444.754
2276.58
-583.449
2358.59
-668.659
2434.22
-732.836
2544.56
-785.863
2655.7
-835.877
2791.35
-879.766
2924.48
-917.484
3070.29
-947.571
3210.59
-970.359
3356.85
-986.354
3496.59
-996.317
3638
-1001.31
3773.17
-1002.09
3908
-999.654
4037.38
-994.634
4165.17
-987.738
4288.44
-979.504
4409.58
-970.384
4527.09
-960.848
4642.21
-951.146
4754.48
-941.698
4864.31
-932.613
4971.96
-924.3
5077.31
-916.777
5181.02
-910.434
5282.65
-905.244
5383.13
-901.6
5481.9
-899.465
5579.98
-899.184
5676.76
-900.817
5773.34
-904.915
5869.47
-909.906
-925.053
1634.43
-711.182
1660.18
-675.253
1677.99
-669.655
1697.2
-673.81
1716.46
-668.01
1737.15
-647.45
1761.3
-626.774
1784.02
-614.527
1815.25
-606.81
1841.06
-607.782
1881.31
-604.582
1914.8
-602.191
1962.31
-598.583
1996.4
-597.77
2043.22
-587.854
2076.76
-575.472
2122.33
-553.808
2151.62
-529.132
2193.29
-494.964
2217.22
-458.678
2253.43
-418.683
2275.87
-382.682
2309.64
-346.466
2330.68
-317.012
2363.61
-290.677
2384.56
-272.434
2417.63
-257.421
2440.06
-248.33
2472.37
-239.457
2495.73
-231.361
2524.41
-220.485
2545.45
-206.459
2568.48
-188.538
2584.61
-167.452
2599.94
-145.179
2608.83
-121.953
2616.34
-98.0704
2618.3
-73.3478
2619.93
-48.5308
2616.37
-23.4664
2613.7
2.39208
2608.55
29.4835
2604.47
57.7173
2599.78
85.7825
2591.31
113.663
2584.63
143.098
2593.55
176.985
2569.23
214.612
2568.78
253.762
2532.9
289.31
2529.14
316.117
2487.62
344.566
2480.56
373.269
2437.9
421.796
2414.2
467.3
2363.05
528.12
2327.33
578.471
2248.01
631.044
2163.9
702.367
2062.14
583.592
2070.95
289.339
2073.12
74.2748
2103.7
-28.3409
2077.21
-84.8403
2067.26
-42.0033
2048.88
-211.032
2111.13
-435.346
2161.73
-606.823
2254.95
-719.791
2347.59
-810.768
2475.2
-887.878
2603.31
-955.151
2752.47
-1010.45
2896.6
-1054.23
3050.2
-1086.86
3196.24
-1109.65
3346.15
-1124.09
3488.22
-1131.52
3630.74
-1133.41
3766.24
-1130.85
3900.68
-1124.96
4029.22
-1116.52
4155.74
-1106.3
4277.46
-1094.89
4396.77
-1082.79
4512.28
-1070.43
4625.21
-1058.15
4735.17
-1046.28
4842.55
-1035.03
4947.66
-1024.69
5050.35
-1015.41
5151.34
-1007.44
5250.12
-1000.89
5347.71
-996.028
5443.46
-992.955
5538.48
-991.885
5632.06
-993.053
5725.37
-996.831
5818.05
-1001.9
-1017.31
1522.61
-734.964
1562.83
-707.154
1595.09
-704.858
1626.91
-708.526
1656.4
-702.374
1685.24
-680.028
1715.86
-658.178
1743.6
-646.663
1778.54
-640.254
1807.03
-643.004
1849.06
-641.726
1883.59
-641.414
1931.54
-639.561
1965.9
-639.643
2012.64
-630.156
2046.09
-617.255
2091.35
-593.726
2120.4
-565.924
2161.72
-527.961
2185.25
-486.487
2221
-442.32
2243
-402.636
2276.31
-363.229
2296.85
-331.208
2329.32
-302.912
2349.8
-283.068
2382.5
-267.265
2404.63
-257.26
2436.76
-247.655
2460.01
-237.853
2488.7
-225.098
2509.74
-208.455
2532.83
-187.626
2548.9
-163.548
2564.22
-137.791
2573.06
-110.836
2580.56
-83.2669
2582.44
-54.8833
2584.04
-26.453
2580.44
2.37722
2577.91
31.8815
2573.13
62.4877
2569.91
93.4871
2566.1
123.727
2558.1
154.338
2551.74
186.467
2560.57
223.201
2536.1
265.711
2535.03
308.027
2498.4
347.852
2494.01
373.639
2452.3
405.034
2444.3
432.38
2397.59
484.539
2375.75
527.137
2332.78
580.383
2296.73
645.72
2201.24
732.133
2110.08
824.137
2019.41
658.419
2010.28
319.051
1981.05
62.3396
1989.89
-36.5393
1933.01
-75.6049
1911.11
-8.81999
1909.44
-244.943
1986.3
-512.142
2051.82
-698.149
2161.97
-830.111
2275.18
-940.648
2420.49
-1033.5
2563.65
-1110.32
2723.43
-1170.37
2875.37
-1215.04
3033.84
-1246.38
3183.02
-1266.26
3334.41
-1277.08
3477.05
-1280.34
3619.24
-1277.94
3753.94
-1270.99
3887.08
-1260.81
4014.05
-1248.18
4138.71
-1233.93
4258.41
-1218.67
4375.52
-1202.89
4488.73
-1187.08
4599.22
-1171.49
4706.67
-1156.56
4811.43
-1142.38
4913.87
-1129.38
5013.78
-1117.55
5111.94
-1107.3
5207.8
-1098.59
5302.41
-1091.85
5395.1
-1087.02
5486.99
-1084.51
5577.33
-1084.39
5667.31
-1087.2
5756.51
-1091.54
-1106.37
1465.2
-767.599
1515.28
-743.537
1556.2
-742.537
1594.48
-747.805
1628.32
-741.56
1659.84
-717.599
1691.89
-693.766
1720.2
-680.262
1754.93
-673.208
1782.9
-676.232
1823.98
-675.76
1857.51
-675.697
1904.31
-674.935
1937.92
-675.569
1983.88
-666.435
2016.88
-652.218
2061.66
-627.305
2090.48
-596.566
2131.49
-555.347
2154.74
-510.184
2190.1
-461.906
2211.78
-417.607
2244.65
-374.55
2264.78
-338.941
2296.8
-308.535
2316.9
-287.084
2349.28
-270.781
2371.19
-260.623
2403.22
-251.603
2426.42
-242.507
2455.18
-230.581
2476.28
-213.995
2499.47
-193.119
2515.55
-167.837
2530.9
-141.028
2539.69
-112.431
2547.14
-83.0753
2548.86
-52.4861
2550.32
-21.7645
2546.62
9.3818
2544.11
41.4208
2539.59
74.4246
2536.9
107.599
2533.16
140.903
2524.96
175.407
2518.56
212.279
2527.39
254.487
2502.77
302.579
2501.12
350.917
2463.56
395.977
2459.29
429.173
2415.92
469.443
2404.5
514.948
2355.18
578.881
2341.27
609.289
2307.83
657.901
2263.79
744.585
2145.64
879.779
2046.96
996.805
1966.45
802.96
1957.25
453.412
1894.34
218.926
1874
97.7786
1769.7
96.9158
1758.06
115.497
1782.33
-224.108
1871.06
-542.806
1953.93
-762.284
2083.78
-928.006
2217.19
-1064.15
2377.87
-1173.36
2532.72
-1258.26
2699.91
-1321.11
2856.73
-1365.12
3017.73
-1393.81
3168.13
-1409.98
3319.56
-1416.51
3461.59
-1415.32
3602.59
-1408.41
3735.76
-1397.11
3867.05
-1382.72
3992
-1366.11
4114.44
-1348.12
4231.83
-1329.36
4346.49
-1310.33
4457.18
-1291.5
4565.05
-1273.15
4669.84
-1255.65
4771.85
-1239.17
4871.5
-1224.02
4968.53
-1210.32
5063.79
-1198.34
5156.65
-1188.17
5248.24
-1180.09
5337.8
-1174.21
5426.52
-1170.77
5513.57
-1170.03
5600.21
-1172.34
5685.93
-1176.54
-1191.39
1438.82
-805.453
1490.81
-788.092
1533.9
-788.584
1573.5
-790.06
1607.73
-780.012
1638.89
-751.985
1670.08
-725.4
1697.3
-711.567
1730.69
-705.19
1757.47
-709.562
1797.34
-711.073
1829.9
-713.465
1875.86
-714.872
1909.11
-716.725
1954.82
-708.367
1987.87
-693.951
2032.68
-667.301
2061.67
-633.435
2102.75
-588.327
2125.99
-537.67
2161.25
-485.072
2182.79
-437.059
2215.46
-390.726
2235.28
-352.571
2267.02
-320.21
2286.77
-297.246
2318.89
-280.219
2340.58
-269.284
2372.53
-259.533
2395.69
-248.771
2424.58
-234.818
2445.76
-215.548
2469.08
-191.519
2485.14
-163.11
2500.51
-132.554
2509.25
-100.025
2516.66
-66.7222
2518.29
-32.2579
2519.76
2.19312
2516.12
37.1982
2513.94
72.7643
2510.05
108.693
2507.91
144.019
2504.4
180.056
2496.22
217.647
2489.71
257.182
2498.24
301.857
2473.02
354.816
2470.25
406.496
2432.12
455.181
2427.63
485.803
2380.38
532.364
2364.01
580.572
2316.6
636.249
2314.96
643.469
2285.08
687.959
2226.08
824.57
2085.26
1019.34
1985.26
1121.93
1919.25
842.564
1926.98
458.32
1816.93
283.913
1753.64
155.836
1585.04
207.517
1598.92
99.4086
1656.51
-319.158
1763.48
-655.544
1870.64
-894.96
2022.03
-1082.02
2173.37
-1231.83
2345.78
-1347.36
2508.52
-1433.07
2679.94
-1493.71
2839.06
-1533.57
3000.62
-1557.39
3150.75
-1568.19
3301.09
-1569.4
3441.65
-1562.83
3580.77
-1550.78
3711.89
-1534.46
3840.91
-1515.33
3963.49
-1494.17
4083.44
-1471.87
4198.27
-1449.02
4310.29
-1426.1
4418.3
-1403.63
4523.42
-1381.8
4625.43
-1361.08
4724.6
-1341.52
4821.38
-1323.56
4915.49
-1307.15
5007.78
-1292.74
5097.63
-1280.24
5186.16
-1270.12
5272.59
-1262.32
5358.15
-1257.25
5441.93
-1255.02
5525.22
-1256.13
5607.48
-1259.35
-1273.27
1418.5
-841.427
1470.91
-827.04
1514.28
-828.455
1553.44
-830.2
1586.87
-818.433
1616.88
-787.811
1646.8
-758.609
1672.84
-742.403
1705.07
-735.336
1731.03
-740.23
1770.2
-742.932
1802.34
-746.139
1847.99
-749.2
1881.37
-752.184
1927.19
-744.581
1960.59
-729.118
2005.58
-701.134
2034.87
-664.295
2076.05
-615.675
2099.29
-561.256
2134.37
-504.205
2155.71
-451.276
2188.02
-400.977
2207.47
-359.05
2238.79
-324.417
2258.16
-299.828
2289.97
-282.22
2311.43
-271.207
2343.31
-262.136
2366.44
-252.347
2395.45
-239.503
2416.7
-220.573
2440.13
-196.826
2456.18
-167.485
2471.54
-136.155
2480.19
-102.208
2487.57
-67.3266
2489.09
-30.8635
2490.5
5.70198
2486.75
42.8416
2484.68
80.5953
2481.07
118.293
2478.78
156.338
2474.96
196.031
2466.55
237.903
2460.01
282.696
2468.57
333.606
2442.88
392.634
2439.51
450.908
2401
503.866
2395.51
543.603
2341.63
607.313
2322.78
675.936
2283.13
724.614
2293.11
707.465
2259.7
767.881
2183.59
950.817
2027.37
1201.05
1910.69
1310.24
1811.53
1004.61
1828.48
587.388
1682.11
515.79
1608.02
373.512
1403.4
485.155
1456.9
138.816
1544.83
-376.475
1673.85
-743.901
1805.69
-1016.3
1975.52
-1227.54
2140.15
-1389.65
2320.14
-1509.47
2487.35
-1594.35
2660.5
-1651.49
2820.05
-1686.55
2980.88
-1704.93
3129.75
-1710.22
3278.29
-1705.87
3416.84
-1694.01
3553.7
-1676.86
3682.45
-1655.78
3808.97
-1632.12
3929
-1606.78
4046.3
-1580.56
4158.47
-1554.08
4267.76
-1527.82
4373.04
-1502.23
4475.35
-1477.58
4574.56
-1454.23
4670.86
-1432.31
4764.78
-1412.15
4855.95
-1393.82
4945.32
-1377.61
5032.14
-1363.6
5117.66
-1352.07
5200.98
-1343.14
5283.4
-1337.04
5363.94
-1334.08
5443.95
-1334.54
5522.81
-1337.46
-1351.12
1401.47
-880.958
1452.8
-871.7
1495.18
-873.754
1533.17
-870.665
1565.51
-854.389
1594.42
-819.51
1623.34
-787.651
1648.62
-771.433
1680.17
-765.477
1705.79
-772.16
1744.67
-777.436
1776.71
-783.747
1822.29
-789.458
1855.95
-793.991
1902.01
-787.337
1935.78
-771.782
1981.02
-741.928
2010.59
-701.757
2051.91
-648.934
2075.13
-588.637
2110.08
-526.955
2131.19
-470.124
2163.23
-416.351
2182.27
-371.841
2213.23
-335.203
2232.15
-309.144
2263.62
-290.842
2284.78
-279.186
2316.55
-269.431
2339.62
-258.077
2368.75
-243.127
2390.03
-221.538
2413.57
-194.508
2429.56
-162.024
2444.96
-126.804
2453.57
-88.8764
2460.98
-49.9427
2462.42
-9.49381
2463.8
30.9627
2460.18
71.9475
2458.52
113.025
2455.29
153.083
2453.19
193.761
2449.32
236.475
2440.6
281.502
2433.83
328.812
2441.97
382.293
2415.44
446.372
2411.27
507.38
2372.36
562.589
2363.98
602.715
2303.75
679.344
2286.47
741.032
2256.03
757.634
2272.35
716.95
2228.63
800.228
2132.9
1055.61
1965.36
1359.7
1800.96
1493.33
1638.54
1128.3
1669.33
548.777
1532.56
605.409
1429.98
461.278
1242.15
616.963
1331.92
36.946
1443.18
-523.991
1597.52
-906.128
1753.13
-1195.35
1938.21
-1415.66
2112.52
-1579.2
2297.16
-1696.09
2466.6
-1775.61
2639.91
-1826.6
2798.77
-1855.05
2958.06
-1867
3105.09
-1865.91
3251.43
-1855.58
3387.65
-1837.91
3522.01
-1815.31
3648.2
-1788.99
3772.07
-1760.42
3889.43
-1730.39
4004
-1699.74
4113.44
-1669.07
4219.93
-1638.83
4322.42
-1609.51
4421.91
-1581.29
4518.29
-1554.62
4611.71
-1529.51
4702.75
-1506.44
4791
-1485.29
4877.43
-1466.54
4961.26
-1450.07
5043.76
-1436.37
5124
-1425.35
5203.31
-1417.47
5280.65
-1412.82
5357.38
-1411.89
5432.87
-1413.61
-1425.97
1384.48
-916.483
1434.48
-908.488
1475.8
-911.33
1512.82
-908.704
1544.45
-890.68
1572.72
-853.362
1601.1
-819.065
1626
-800.637
1657.15
-794.204
1682.58
-801.72
1721.22
-808.462
1753.14
-815.927
1798.58
-823.612
1832.44
-829.626
1878.63
-823.92
1912.73
-807.398
1958.12
-776.105
1987.93
-732.797
2029.29
-676.144
2052.45
-611.946
2087.11
-545.399
2107.92
-483.263
2139.51
-425.169
2158.08
-376.676
2188.56
-337.559
2206.99
-309.796
2238.1
-290.819
2259
-279.17
2290.71
-270.254
2313.74
-260.191
2342.97
-246.717
2364.28
-225.866
2387.95
-199.663
2403.99
-166.755
2419.47
-131.281
2428.06
-92.3121
2435.41
-52.1109
2436.65
-9.90107
2437.87
32.4669
2434.09
75.1874
2432.61
117.885
2429.22
159.919
2426.78
203.83
2422.65
250.469
2413.65
300.324
2406.79
353.808
2414.85
414.521
2387.74
485.537
2383.29
552.808
2343.19
612.54
2330.97
668.131
2264.57
766.295
2252.44
835.673
2230.32
831.852
2248.81
778.876
2192.86
905.253
2075.34
1218.72
1888.78
1568.69
1679.45
1768.55
1520.71
1338.72
1541.46
680.063
1389.28
841.544
1173.11
849.914
1088.78
759.763