/*--------------------------------*- C++ -*----------------------------------*\
| =========                 |                                                 |
| \\      /  F ield         | OpenFOAM: The Open Source CFD Toolbox           |
|  \\    /   O peration     | Version:  4.1                                   |
|   \\  /    A nd           | Web:      www.OpenFOAM.org                      |
|    \\/     M anipulation  |                                                 |
\*---------------------------------------------------------------------------*/
FoamFile
{
    version     2.0;
    format      ascii;
    class       volVectorField;
    location    "24";
    object      U;
}
// * * * * * * * * * * * * * * * * * * * * * * * * * * * * * * * * * * * * * //

dimensions      [0 1 -1 0 0 0 0];

internalField   nonuniform List<vector> 
26785
(
(-2.00417e-15 0.0007527 18.4594)
(-1.79111e-15 0.0042908 18.4423)
(-2.12535e-15 0.00321636 18.4028)
(-6.56387e-15 0.00218296 18.3681)
(-1.15788e-15 0.00226619 18.3149)
(-6.24602e-15 0.00245331 18.248)
(-2.04709e-15 0.00283055 18.185)
(-1.85852e-15 0.00272416 18.1244)
(-4.37604e-15 0.00267035 18.0733)
(-7.67102e-15 0.00216449 18.0285)
(-1.20977e-15 0.00193985 17.9987)
(-2.4631e-15 0.00168755 17.9839)
(-2.62193e-15 0.00149534 17.9831)
(-2.57139e-15 0.00126809 17.982)
(-2.57953e-15 0.00127163 17.978)
(-2.57327e-15 0.00150154 17.9744)
(-2.47864e-15 0.00188296 17.9676)
(-2.44794e-15 0.00246569 17.9548)
(-2.27476e-15 0.0030981 17.9372)
(-3.14791e-15 0.00394912 17.9141)
(-3.32706e-15 0.00459775 17.8857)
(-2.99938e-15 0.005327 17.858)
(-4.12543e-15 0.00575601 17.8285)
(-5.51506e-15 0.00625284 17.8004)
(-3.00158e-15 0.00638915 17.7733)
(-2.01153e-15 0.00660717 17.749)
(-5.09433e-15 0.00647913 17.7271)
(-3.30567e-15 0.00651919 17.7088)
(-4.11638e-16 0.00633477 17.6912)
(-1.47905e-14 0.00645838 17.676)
(-9.73745e-15 0.00647306 17.6583)
(-4.40963e-15 0.00681371 17.6395)
(-3.00068e-15 0.00710952 17.6167)
(-6.03849e-15 0.00762761 17.5913)
(-1.27543e-15 0.00808232 17.561)
(-6.16467e-15 0.00865231 17.5257)
(-5.90254e-15 0.00914607 17.4855)
(-6.30305e-15 0.0096937 17.4414)
(-6.51558e-15 0.0101611 17.3946)
(-4.71114e-15 0.010648 17.3454)
(-1.32004e-14 0.011069 17.2944)
(-8.89982e-15 0.0114973 17.2438)
(-6.6586e-15 0.0119031 17.1935)
(-8.32646e-15 0.0123153 17.1441)
(-7.25695e-15 0.0127561 17.0929)
(-7.46189e-15 0.0130807 17.041)
(-6.00257e-15 0.0132584 17.0002)
(-6.3645e-15 0.01413 16.9501)
(-6.85282e-15 0.0141183 16.8994)
(-6.78406e-15 0.0149078 16.8466)
(-1.48657e-14 0.0146631 16.7929)
(-4.54694e-15 0.0156127 16.7393)
(-4.24407e-15 0.0155186 16.6844)
(-3.70757e-15 0.016191 16.6302)
(-3.34231e-15 0.0157525 16.5737)
(-4.7907e-15 0.0160572 16.5189)
(-6.18948e-15 0.0160055 16.4616)
(-3.15741e-15 0.016261 16.4025)
(-3.65322e-15 0.014286 16.3473)
(-6.37371e-15 0.012113 16.3023)
(-4.79863e-15 0.00881941 16.2752)
(-4.02344e-15 0.00682191 16.2634)
(-3.50775e-15 0.00387583 16.2667)
(-3.13849e-16 0.00202232 16.2834)
(-9.59282e-15 -0.000817818 16.3141)
(-6.81048e-15 -0.00355566 16.3608)
(-7.37114e-15 -0.00766841 16.4256)
(-7.31485e-15 -0.0102995 16.5074)
(-7.31019e-15 -0.0129245 16.6015)
(-7.10905e-15 -0.0139289 16.7048)
(1.70312e-16 -0.0148259 16.8092)
(-8.20076e-15 -0.0148699 16.9145)
(-8.21642e-15 -0.0150094 17.0169)
(-8.48171e-15 -0.0147813 17.1177)
(-9.33395e-15 -0.0147004 17.2142)
(-5.40717e-15 -0.0144593 17.308)
(-5.30431e-15 -0.0143282 17.398)
(-7.64337e-15 -0.0141161 17.4854)
(-7.25847e-15 -0.0139689 17.5691)
(-7.11934e-15 -0.0137841 17.6502)
(-7.31921e-15 -0.0136333 17.7279)
(-7.81027e-15 -0.0134702 17.8032)
(-7.18722e-15 -0.0133265 17.8754)
(-6.85691e-15 -0.0131877 17.9453)
(-7.33566e-15 -0.0130628 18.0124)
(-7.30757e-15 -0.0129529 18.0774)
(-7.31822e-15 -0.0128584 18.14)
(-7.41014e-15 -0.0127843 18.2006)
(-6.60415e-15 -0.0127294 18.2591)
(-6.31802e-15 -0.0126981 18.3159)
(-6.8281e-15 -0.0126918 18.3709)
(-6.66666e-15 -0.0127104 18.4244)
(-6.47897e-15 -0.0127605 18.4764)
(-6.35754e-15 -0.0128332 18.5271)
(-6.19452e-15 -0.01295 18.5766)
(-6.11796e-15 -0.0130408 18.6253)
(-5.98079e-15 -0.0133189 18.6724)
(-5.82511e-15 -0.0129168 18.7208)
(-5.67249e-15 -0.0158487 18.7605)
(-5.44623e-15 -0.0127722 18.8346)
(-2.61006e-15 0.00642989 19.4496)
(-4.26825e-15 0.0152144 19.468)
(-3.52443e-16 0.0114441 19.4772)
(-2.90202e-15 0.00811901 19.4816)
(-7.46028e-15 0.00843569 19.4647)
(4.71299e-15 0.00937808 19.433)
(-3.81645e-15 0.0103956 19.4048)
(-5.21583e-15 0.0102354 19.3787)
(-3.34382e-15 0.0097575 19.3624)
(-2.67977e-15 0.00829431 19.3526)
(-2.66777e-15 0.00727274 19.3593)
(-2.4658e-15 0.00661292 19.3814)
(-2.12793e-15 0.00587287 19.4171)
(-1.89837e-15 0.0053553 19.4511)
(-2.59826e-15 0.00510856 19.4808)
(-2.52055e-15 0.00580341 19.5108)
(-1.60399e-15 0.00666427 19.5369)
(-1.54606e-15 0.00838261 19.5561)
(-1.63495e-15 0.0100484 19.5694)
(-2.70549e-16 0.0124865 19.576)
(-3.7725e-16 0.0142965 19.576)
(-2.2651e-15 0.016422 19.5757)
(-2.82205e-15 0.0176222 19.5727)
(-1.05808e-15 0.0190378 19.57)
(-2.66881e-16 0.0193515 19.5674)
(-1.00553e-15 0.0199096 19.5663)
(-2.22272e-15 0.0194894 19.5663)
(-1.66692e-15 0.0195264 19.5686)
(-1.31667e-15 0.0189705 19.5703)
(7.42874e-16 0.0191894 19.5732)
(-5.05037e-15 0.0191821 19.5724)
(3.21458e-15 0.0200062 19.5693)
(-1.84376e-15 0.0207885 19.5614)
(-2.24376e-15 0.0221791 19.5497)
(8.39479e-15 0.0234127 19.5323)
(-3.29069e-15 0.0248679 19.5094)
(-3.27497e-15 0.0261379 19.481)
(-3.24027e-15 0.0275417 19.4482)
(-3.34658e-15 0.0287331 19.4122)
(-3.40248e-15 0.0299751 19.3735)
(-3.76868e-15 0.0310181 19.3326)
(-2.61079e-15 0.0321298 19.2917)
(-2.23432e-16 0.0331845 19.2504)
(-7.93829e-15 0.0343118 19.2097)
(-4.78309e-15 0.0354638 19.1664)
(-2.90295e-15 0.0363526 19.1221)
(-3.09949e-15 0.0369933 19.0879)
(-1.9162e-16 0.0392182 19.044)
(-1.47851e-15 0.039379 18.9988)
(-6.9266e-15 0.0413517 18.9507)
(-2.74304e-15 0.0411152 18.9013)
(1.75417e-15 0.0436567 18.8515)
(-2.80325e-15 0.0438388 18.8004)
(-2.27557e-15 0.0454475 18.75)
(-2.77296e-15 0.0441605 18.697)
(-2.52142e-15 0.0449821 18.6445)
(2.92075e-15 0.0453535 18.5884)
(-7.7902e-15 0.0465316 18.529)
(-2.553e-15 0.042079 18.4726)
(-2.26528e-16 0.0360566 18.4254)
(-2.13131e-15 0.0270318 18.394)
(-4.70921e-15 0.0208334 18.3755)
(-1.15178e-15 0.0123929 18.369)
(-2.18071e-15 0.00628053 18.3726)
(-3.8264e-15 -0.00213276 18.386)
(-1.42688e-15 -0.0104541 18.4105)
(-1.14804e-15 -0.0217616 18.4484)
(-5.95833e-16 -0.0294666 18.4986)
(-2.05954e-15 -0.0364082 18.5566)
(-2.15742e-15 -0.0394358 18.6199)
(-2.63548e-15 -0.0416789 18.6808)
(-2.93791e-15 -0.0418087 18.7394)
(-1.26978e-15 -0.0418807 18.7921)
(-1.39267e-15 -0.0409908 18.8405)
(-7.05416e-16 -0.0403127 18.8819)
(6.33217e-15 -0.0391901 18.9182)
(-2.32343e-16 -0.0382774 18.948)
(-1.01591e-16 -0.0371453 18.973)
(-1.76859e-15 -0.0361674 18.9919)
(-7.21034e-16 -0.0351008 19.0059)
(1.24373e-15 -0.0341378 19.0144)
(8.98676e-16 -0.0331649 19.0183)
(3.62066e-16 -0.0322677 19.017)
(7.08913e-16 -0.0314092 19.0113)
(1.22986e-15 -0.0306087 19.0009)
(1.32335e-15 -0.0298737 18.9864)
(4.27254e-15 -0.0291919 18.9678)
(6.24658e-16 -0.0285875 18.9453)
(1.65075e-15 -0.0280361 18.9191)
(2.16636e-15 -0.0275665 18.8896)
(1.62009e-15 -0.0271565 18.8568)
(1.63934e-15 -0.026828 18.8211)
(1.72786e-15 -0.0265676 18.7826)
(1.55596e-15 -0.026384 18.7417)
(1.47334e-15 -0.0262764 18.6985)
(1.34972e-15 -0.0261872 18.6533)
(1.58943e-15 -0.0263282 18.6064)
(1.57603e-15 -0.0254863 18.5568)
(1.3388e-15 -0.0294231 18.5117)
(1.31117e-15 -0.025222 18.4367)
(-2.28859e-15 0.0155694 20.5546)
(-3.14608e-15 0.0257688 20.5988)
(-5.71065e-16 0.0194857 20.6384)
(-2.14906e-15 0.0147413 20.675)
(-6.05649e-15 0.0149666 20.6895)
(2.02788e-15 0.0165868 20.6887)
(-7.35088e-15 0.0176988 20.6906)
(-1.16894e-15 0.0175106 20.6937)
(-1.97159e-16 0.0162235 20.7051)
(4.04641e-16 0.0139197 20.7212)
(1.83589e-16 0.0117358 20.7507)
(1.81126e-16 0.0107145 20.792)
(2.55796e-16 0.00920737 20.843)
(1.27377e-16 0.00859436 20.8894)
(3.99486e-16 0.00806783 20.9284)
(-1.51831e-16 0.009352 20.9636)
(1.32583e-16 0.0107615 20.9911)
(-5.83568e-16 0.0137641 21.0081)
(1.09432e-15 0.0165521 21.0157)
(7.83972e-16 0.0206953 21.0132)
(1.26146e-15 0.0237776 21.0012)
(1.81688e-16 0.0272752 20.9855)
(-4.19028e-16 0.0294138 20.9641)
(1.14061e-15 0.0316993 20.9401)
(1.49095e-15 0.0324355 20.9129)
(2.62192e-16 0.03332 20.8843)
(4.08898e-16 0.0328758 20.8537)
(1.35729e-15 0.0328795 20.8224)
(4.09545e-16 0.0321744 20.7878)
(4.40515e-16 0.0323986 20.7516)
(3.23864e-15 0.0324888 20.7096)
(4.86336e-15 0.0336231 20.6633)
(-3.29538e-15 0.0348953 20.6104)
(-4.9251e-16 0.0369227 20.5525)
(-1.86508e-15 0.0388468 20.4877)
(-2.02374e-15 0.0409854 20.4165)
(-1.67745e-15 0.0429515 20.3391)
(-1.74973e-15 0.0450442 20.2567)
(-1.68361e-15 0.0468968 20.1705)
(-1.65638e-15 0.0487743 20.081)
(-1.50735e-15 0.0504377 19.9888)
(-9.25436e-16 0.0521875 19.8961)
(-7.46595e-16 0.0539015 19.8026)
(-3.41813e-16 0.055706 19.7093)
(2.23002e-17 0.0574699 19.6134)
(4.36547e-16 0.0589249 19.5161)
(7.94789e-16 0.0603664 19.4288)
(9.44397e-16 0.0632779 19.3315)
(8.45539e-16 0.0641682 19.2333)
(4.28099e-16 0.066458 19.1325)
(3.28451e-16 0.0667951 19.0319)
(6.31086e-16 0.0700942 18.9324)
(1.17448e-15 0.0715498 18.8311)
(1.83288e-15 0.0739882 18.7264)
(2.66109e-15 0.0726793 18.6133)
(5.73278e-15 0.0728675 18.502)
(-2.18744e-15 0.0735786 18.3943)
(-1.0192e-15 0.0747192 18.2908)
(-5.75242e-16 0.0689886 18.1891)
(-5.67762e-16 0.05927 18.0894)
(-2.37766e-15 0.0467099 17.9976)
(5.18885e-16 0.037076 17.91)
(9.38471e-16 0.0258443 17.8251)
(2.36351e-15 0.0167559 17.7414)
(1.0628e-14 0.00617172 17.6561)
(2.19356e-15 -0.00654037 17.5718)
(2.98942e-15 -0.0224212 17.4942)
(1.61771e-15 -0.0346691 17.4257)
(1.06744e-15 -0.0437112 17.3632)
(1.61419e-15 -0.0482944 17.3054)
(2.15444e-15 -0.0500628 17.245)
(2.17905e-15 -0.0498575 17.1824)
(3.21553e-15 -0.0484261 17.1145)
(-3.65074e-15 -0.0465389 17.0432)
(4.5632e-15 -0.044199 16.966)
(4.85744e-15 -0.0418966 16.8848)
(4.81058e-15 -0.0393357 16.7989)
(4.80069e-15 -0.0369308 16.7096)
(4.77192e-15 -0.0343384 16.616)
(4.8443e-15 -0.0319118 16.5192)
(4.86138e-15 -0.0293314 16.4186)
(4.76285e-15 -0.0269167 16.315)
(4.08081e-15 -0.0244055 16.2082)
(3.59262e-15 -0.0220514 16.0986)
(3.10606e-15 -0.0196521 15.9861)
(2.57547e-15 -0.0174054 15.8711)
(2.05672e-15 -0.0151717 15.7537)
(1.50966e-15 -0.0130863 15.6342)
(1.51895e-16 -0.0110652 15.5128)
(-1.83321e-15 -0.00919393 15.3897)
(2.86828e-16 -0.00743666 15.2652)
(-9.62267e-16 -0.00583861 15.1396)
(-2.17467e-15 -0.00439555 15.0131)
(-2.97665e-15 -0.00313352 14.8861)
(-3.77175e-15 -0.00202667 14.759)
(-4.74878e-15 -0.0011684 14.632)
(-5.07413e-15 -0.000193066 14.5062)
(-5.70063e-15 -0.000101915 14.3773)
(-6.78988e-15 0.00304317 14.2695)
(-7.75529e-15 -0.000950906 14.0766)
(-2.19036e-15 0.0260297 21.5733)
(1.98936e-15 0.0365523 21.6292)
(-5.42152e-15 0.0276081 21.6799)
(1.53467e-16 0.0212745 21.723)
(1.90116e-15 0.0214624 21.7388)
(1.87575e-15 0.0237151 21.7342)
(-4.399e-16 0.0250227 21.7269)
(-3.04865e-15 0.0248042 21.7153)
(1.93792e-15 0.0228645 21.7057)
(5.01518e-16 0.019808 21.6944)
(4.02304e-16 0.0167197 21.6889)
(8.5764e-16 0.0154 21.6874)
(8.03597e-16 0.0134488 21.6878)
(1.4306e-15 0.0127438 21.6765)
(1.63271e-15 0.0122217 21.6508)
(1.88384e-15 0.0140379 21.6143)
(1.90229e-15 0.0161722 21.564)
(2.80872e-15 0.0202599 21.4979)
(1.92024e-15 0.0242557 21.4178)
(1.81887e-15 0.0298167 21.3238)
(1.80169e-15 0.0341936 21.2167)
(2.25611e-15 0.038799 21.1027)
(2.04024e-15 0.0419122 20.9797)
(2.03139e-15 0.044823 20.8509)
(1.99518e-15 0.0460628 20.7156)
(1.94674e-15 0.0470418 20.5758)
(2.08169e-15 0.0466992 20.4312)
(1.9819e-15 0.0464402 20.2832)
(2.00619e-15 0.0456867 20.1297)
(4.06891e-15 0.0456377 19.973)
(7.23382e-15 0.0458148 19.8093)
(5.41404e-15 0.0469134 19.6409)
(3.51356e-16 0.0485415 19.4661)
(1.63828e-15 0.0508302 19.287)
(8.7896e-15 0.053189 19.1023)
(-3.63138e-15 0.0555735 18.9127)
(2.68944e-15 0.0579032 18.7189)
(4.64006e-15 0.0602747 18.5221)
(-1.00612e-15 0.0624387 18.3239)
(-1.3273e-15 0.0645442 18.1248)
(5.75396e-16 0.0664645 17.9257)
(-9.11428e-15 0.0684739 17.7289)
(2.24124e-15 0.0704835 17.5343)
(4.76246e-15 0.0726022 17.3428)
(5.95401e-15 0.0745417 17.1514)
(2.12476e-15 0.0763343 16.9616)
(-1.75586e-15 0.0786375 16.7861)
(9.9026e-15 0.0814658 16.602)
(4.54538e-15 0.0832996 16.419)
(1.35625e-14 0.0848054 16.2349)
(1.51812e-15 0.0852887 16.0545)
(5.9643e-15 0.0878803 15.8827)
(8.59356e-15 0.0911807 15.7161)
(4.84617e-15 0.0955559 15.548)
(1.67034e-15 0.0958148 15.3602)
(-1.53617e-15 0.0941572 15.1662)
(1.22958e-15 0.0929535 14.9796)
(-4.95297e-15 0.0918468 14.8105)
(3.22954e-15 0.085813 14.6494)
(-6.128e-15 0.073894 14.4887)
(3.35013e-15 0.0608467 14.3349)
(5.48981e-16 0.05025 14.1823)
(3.21395e-15 0.0397125 14.0281)
(4.49776e-15 0.0304287 13.8707)
(2.91848e-15 0.0217247 13.7043)
(7.0872e-15 0.00651118 13.5334)
(5.65389e-15 -0.0119542 13.3726)
(6.76947e-15 -0.0289847 13.2287)
(-5.11263e-15 -0.0393561 13.1003)
(-2.7174e-15 -0.0462209 12.9862)
(-3.00466e-15 -0.0474269 12.8772)
(-3.48685e-15 -0.047851 12.7737)
(-1.34762e-14 -0.0452675 12.6716)
(-4.30848e-15 -0.0434701 12.5728)
(-6.85848e-15 -0.0400762 12.4743)
(-5.80949e-15 -0.0376551 12.3779)
(-7.38203e-15 -0.0341223 12.2826)
(-1.30119e-14 -0.0314138 12.19)
(-5.63993e-15 -0.0279007 12.0988)
(-5.6324e-15 -0.0249808 12.0099)
(-6.5412e-15 -0.0214675 11.923)
(-7.03495e-15 -0.0184015 11.8385)
(-7.63983e-15 -0.0149656 11.756)
(-8.89767e-15 -0.0118637 11.6758)
(-9.56905e-15 -0.00857599 11.5976)
(-1.03186e-14 -0.0055643 11.5218)
(-1.29605e-14 -0.00253661 11.4482)
(-1.08754e-14 0.000244241 11.377)
(-1.09494e-14 0.00290269 11.3082)
(-1.15413e-14 0.00531163 11.2421)
(-1.48857e-14 0.00748101 11.1788)
(-1.35065e-14 0.00937099 11.1186)
(-1.53663e-14 0.0109311 11.0616)
(-1.27141e-14 0.0121528 11.0082)
(-1.39645e-14 0.0130228 10.9587)
(-1.48837e-14 0.0133905 10.9136)
(-1.37338e-14 0.0140832 10.8722)
(-1.38689e-14 0.011757 10.8371)
(-1.48276e-14 0.0217205 10.8059)
(-1.46912e-14 0.00525521 10.7752)
(-1.79303e-15 0.037156 22.3575)
(-1.37102e-15 0.0467992 22.3775)
(-5.6756e-16 0.0352932 22.379)
(9.01785e-16 0.0276417 22.3617)
(4.42961e-16 0.0278724 22.3096)
(-3.4746e-15 0.0307834 22.2315)
(4.59049e-15 0.0323739 22.1449)
(-4.61523e-16 0.0320646 22.048)
(1.14979e-15 0.0296159 21.9463)
(1.45147e-15 0.0257947 21.8354)
(1.52398e-15 0.0221278 21.7214)
(2.1633e-15 0.0205228 21.6023)
(1.86638e-15 0.0184956 21.4764)
(2.48567e-15 0.0176214 21.3309)
(2.37396e-15 0.0175259 21.1635)
(1.44178e-15 0.019747 20.9796)
(1.41179e-15 0.0228898 20.7778)
(1.16295e-15 0.0277389 20.558)
(8.63541e-16 0.0331192 20.3235)
(7.3019e-16 0.0396792 20.0755)
(2.89701e-16 0.0454968 19.8154)
(9.00341e-16 0.0508484 19.5499)
(1.27899e-15 0.0551469 19.2771)
(1.70804e-15 0.0584269 18.9999)
(2.01451e-15 0.0604746 18.7181)
(2.26109e-15 0.0613478 18.4337)
(3.55025e-15 0.0614245 18.1469)
(2.51153e-15 0.0607048 17.8595)
(6.96549e-16 0.0601284 17.5699)
(2.63646e-15 0.0595865 17.281)
(3.3954e-15 0.0599022 16.9893)
(2.94494e-15 0.0606946 16.6977)
(7.1939e-16 0.062585 16.4048)
(1.40992e-15 0.0648044 16.113)
(1.49334e-14 0.0673493 15.8211)
(2.15459e-15 0.0695721 15.5298)
(3.09822e-15 0.0719387 15.2398)
(3.04786e-15 0.0741462 14.9524)
(2.79662e-15 0.0762647 14.6694)
(2.75482e-15 0.0781329 14.3911)
(2.86269e-15 0.07997 14.1183)
(7.86103e-16 0.0818386 13.8535)
(-1.35283e-15 0.0837907 13.5963)
(1.73125e-15 0.0858571 13.3478)
(2.25274e-15 0.0875689 13.1039)
(7.02827e-16 0.0894781 12.866)
(4.82646e-16 0.0929353 12.651)
(1.03159e-15 0.0949862 12.429)
(2.78357e-15 0.0987851 12.2106)
(7.58013e-15 0.0989586 11.9908)
(-1.12767e-14 0.0995387 11.7739)
(-1.88475e-15 0.0985079 11.5719)
(-8.40615e-16 0.10216 11.3897)
(-6.13131e-15 0.108655 11.2226)
(-5.88105e-15 0.115061 11.0307)
(-5.82824e-15 0.113967 10.8112)
(-7.72864e-15 0.110781 10.5841)
(-6.25918e-15 0.104676 10.3785)
(-5.56779e-15 0.0973741 10.1895)
(-6.39951e-15 0.0801791 10.0099)
(-2.59877e-14 0.0656283 9.85221)
(8.94552e-15 0.0528843 9.70437)
(-5.963e-15 0.0437802 9.56072)
(-6.16361e-15 0.0345267 9.41948)
(-9.25881e-15 0.0294537 9.27253)
(-3.48256e-15 0.00981537 9.12967)
(1.53638e-15 -0.0151386 9.01474)
(-5.18456e-15 -0.042384 8.93719)
(-4.61701e-15 -0.0582237 8.88932)
(-8.76295e-15 -0.0710617 8.86662)
(-8.67756e-15 -0.0740734 8.85288)
(-1.20001e-15 -0.0768105 8.84783)
(7.75309e-15 -0.0741898 8.84429)
(-1.46133e-14 -0.0730646 8.84538)
(-8.92797e-15 -0.0692014 8.8465)
(-1.22934e-14 -0.0668857 8.85116)
(-1.66222e-14 -0.0629309 8.85773)
(-8.17025e-15 -0.0602254 8.86906)
(-1.21423e-14 -0.0565085 8.88329)
(-8.81443e-15 -0.0536178 8.90233)
(-6.56238e-15 -0.0500636 8.92504)
(-1.40125e-15 -0.0470639 8.95263)
(-8.27404e-15 -0.0436838 8.9838)
(-8.08272e-15 -0.0406631 9.01923)
(-8.26824e-15 -0.0374704 9.05799)
(-7.47731e-15 -0.034556 9.10047)
(-6.63429e-15 -0.0316527 9.14587)
(-5.79345e-15 -0.0290068 9.19438)
(-5.52454e-15 -0.02652 9.24543)
(-7.26794e-15 -0.0243218 9.29915)
(-3.16978e-15 -0.0224091 9.35515)
(-2.70517e-15 -0.0208462 9.4135)
(-2.71164e-15 -0.0196705 9.47394)
(-2.34471e-15 -0.0189253 9.53662)
(-2.15394e-15 -0.0186208 9.60121)
(-2.70912e-15 -0.0188671 9.66852)
(-1.62781e-15 -0.0190482 9.73613)
(-2.82543e-16 -0.0214863 9.81155)
(-2.52216e-16 -0.0146406 9.86997)
(1.78538e-16 -0.0307865 9.99522)
(-6.33841e-16 0.0486033 22.6446)
(1.08253e-15 0.057195 22.5455)
(1.87144e-16 0.0436399 22.4207)
(3.71754e-15 0.034549 22.2753)
(-7.11325e-16 0.0343042 22.0965)
(1.39586e-15 0.0373079 21.8917)
(5.79115e-15 0.0388143 21.6763)
(3.50851e-15 0.0381242 21.4459)
(3.58283e-15 0.0352276 21.2041)
(1.96835e-15 0.030805 20.9452)
(1.75866e-15 0.0270595 20.6751)
(1.43693e-15 0.0255354 20.3931)
(7.75502e-16 0.0240406 20.1009)
(8.63401e-16 0.0233052 19.7873)
(9.89453e-16 0.0241449 19.4522)
(7.80685e-16 0.0268503 19.1045)
(5.9402e-16 0.03122 18.7452)
(-2.55977e-16 0.0366239 18.3767)
(-6.60012e-17 0.0434704 18.0033)
(4.74975e-16 0.0507758 17.6268)
(9.74326e-16 0.0581828 17.2487)
(1.61469e-15 0.0641899 16.8759)
(2.67342e-15 0.0699785 16.5056)
(3.46346e-15 0.0736794 16.1402)
(3.80382e-15 0.0769356 15.7797)
(4.91966e-15 0.0777911 15.4255)
(4.32457e-15 0.0786867 15.0782)
(3.8977e-15 0.0775815 14.7392)
(1.84974e-15 0.0775119 14.407)
(-6.87399e-15 0.0765623 14.0841)
(7.20983e-15 0.077273 13.7662)
(6.73065e-15 0.0779106 13.4559)
(-4.62449e-15 0.0803294 13.1508)
(-1.04337e-15 0.0827148 12.8529)
(-1.46073e-15 0.085711 12.5597)
(-9.93615e-17 0.0880188 12.2712)
(3.03901e-15 0.090699 11.9874)
(3.35513e-15 0.0929995 11.7091)
(4.2929e-15 0.0953736 11.438)
(4.31168e-15 0.0972629 11.1737)
(1.10053e-14 0.0993823 10.9171)
(8.6496e-15 0.101489 10.6708)
(7.36219e-16 0.103828 10.4337)
(9.9033e-15 0.106253 10.2069)
(1.42504e-16 0.10818 9.98452)
(-2.39542e-16 0.110739 9.76902)
(-1.31651e-15 0.115851 9.58263)
(-2.451e-15 0.11765 9.38586)
(-3.03387e-15 0.124625 9.19352)
(-3.6543e-15 0.125048 8.99717)
(-3.62676e-15 0.127171 8.79875)
(-3.79186e-15 0.121753 8.61085)
(-2.98391e-15 0.123096 8.44525)
(-3.22808e-15 0.130071 8.30724)
(-2.88175e-15 0.145672 8.15299)
(-2.07377e-15 0.151599 7.96434)
(2.57577e-16 0.150718 7.74977)
(4.5188e-15 0.139529 7.54618)
(-4.11111e-16 0.128526 7.36161)
(-5.39265e-15 0.101996 7.19947)
(1.38702e-15 0.0824384 7.07683)
(9.3877e-15 0.0646757 6.97319)
(7.81345e-15 0.0525359 6.88685)
(7.67727e-15 0.0398979 6.82284)
(7.59694e-15 0.0336122 6.7675)
(1.14234e-14 0.00228765 6.73468)
(2.06079e-14 -0.0377711 6.74498)
(1.12429e-14 -0.0794988 6.80143)
(1.0759e-15 -0.102837 6.88139)
(-7.47579e-15 -0.119782 6.97799)
(1.63472e-14 -0.1227 7.07015)
(1.00097e-14 -0.124426 7.16141)
(7.03331e-15 -0.119691 7.24544)
(2.99521e-15 -0.116856 7.32962)
(-1.42088e-14 -0.111506 7.41042)
(1.86053e-15 -0.108264 7.49392)
(1.46962e-15 -0.103874 7.57869)
(-8.78113e-16 -0.101054 7.66852)
(-2.0806e-15 -0.097584 7.76088)
(-6.91924e-16 -0.0949874 7.85774)
(-8.82828e-16 -0.0919023 7.95713)
(-6.99478e-17 -0.089259 8.06)
(-1.95068e-16 -0.0862729 8.16435)
(-5.86896e-15 -0.0834817 8.27062)
(2.35476e-16 -0.0804872 8.37741)
(1.68373e-15 -0.0776211 8.48497)
(1.93943e-15 -0.0747112 8.59222)
(4.07862e-16 -0.0719533 8.69931)
(6.52771e-16 -0.0693042 8.80556)
(1.15125e-15 -0.066891 8.91112)
(3.32435e-15 -0.064734 9.01559)
(-2.36911e-16 -0.0629228 9.11909)
(2.29632e-16 -0.0615002 9.22142)
(-7.26643e-17 -0.0605437 9.32281)
(-1.05043e-15 -0.0600734 9.42301)
(1.20716e-15 -0.0601828 9.52299)
(-4.9715e-16 -0.0605163 9.6202)
(-3.78847e-16 -0.062285 9.72369)
(-3.32096e-16 -0.0595912 9.80351)
(-7.58523e-16 -0.0709937 9.95926)
(-9.56885e-17 0.0572124 22.1663)
(-3.5399e-16 0.0645987 21.946)
(-5.69683e-15 0.0492766 21.6929)
(1.79596e-15 0.0384915 21.4085)
(2.61932e-15 0.0372757 21.0853)
(1.82261e-15 0.0400461 20.7304)
(2.05454e-15 0.0415216 20.3588)
(1.89001e-15 0.0406428 19.9661)
(6.20822e-15 0.0379184 19.5585)
(8.19316e-16 0.0334259 19.1333)
(6.49038e-16 0.0304273 18.7014)
(3.78895e-16 0.0293138 18.2663)
(9.49845e-16 0.0287715 17.8353)
(1.1433e-15 0.0280801 17.399)
(1.21115e-15 0.0299947 16.9594)
(7.05919e-16 0.0328504 16.5273)
(4.62515e-16 0.0383114 16.104)
(1.42534e-15 0.0438555 15.6913)
(2.84093e-15 0.0521037 15.292)
(4.20481e-15 0.0600268 14.9058)
(2.09979e-15 0.0692014 14.5319)
(2.53631e-15 0.0760428 14.1763)
(4.44951e-15 0.0837023 13.8343)
(3.68744e-15 0.0882538 13.5067)
(2.3499e-15 0.0931616 13.193)
(2.37889e-15 0.094522 12.8931)
(2.78678e-15 0.0966023 12.6076)
(1.19761e-17 0.0956441 12.3364)
(-8.63916e-15 0.0963958 12.0773)
(1.22926e-14 0.0956406 11.8319)
(2.33486e-16 0.0971631 11.594)
(-1.07917e-15 0.0983952 11.3652)
(-8.35124e-16 0.101945 11.1413)
(5.16691e-16 0.10538 10.9235)
(5.01573e-15 0.10962 10.7078)
(6.4504e-15 0.113061 10.4936)
(-8.23168e-15 0.116982 10.2803)
(-2.31626e-15 0.120495 10.0684)
(-1.60167e-16 0.124109 9.85925)
(-2.186e-15 0.127216 9.65268)
(-5.87603e-15 0.130633 9.44942)
(-3.27773e-15 0.134149 9.25284)
(9.06753e-15 0.137965 9.06159)
(1.82032e-15 0.14188 8.87711)
(1.55758e-16 0.145252 8.69247)
(-2.98383e-15 0.149485 8.51135)
(-6.13556e-16 0.156292 8.35919)
(-7.43525e-15 0.159748 8.18979)
(-3.95467e-15 0.169207 8.02322)
(-8.238e-15 0.172493 7.8507)
(-2.22297e-14 0.176762 7.67531)
(-3.13143e-14 0.171058 7.50351)
(1.52463e-14 0.168838 7.34441)
(1.80459e-14 0.175363 7.20822)
(1.70336e-14 0.196568 7.058)
(1.84323e-14 0.211093 6.88533)
(2.79802e-14 0.214931 6.69055)
(1.33822e-14 0.20222 6.49876)
(-1.9434e-14 0.185384 6.31595)
(2.27747e-14 0.147762 6.15411)
(2.07502e-14 0.118863 6.0356)
(2.2834e-14 0.0927243 5.9506)
(2.3849e-14 0.0663758 5.91313)
(2.77747e-15 0.0438044 5.92126)
(2.7152e-14 0.02918 5.94034)
(2.41216e-14 -0.0160261 5.97904)
(1.00529e-14 -0.0717959 6.05178)
(6.57327e-15 -0.122041 6.15947)
(1.27704e-14 -0.147852 6.27568)
(4.05357e-15 -0.162633 6.3988)
(-4.77417e-16 -0.162659 6.51073)
(-1.58733e-15 -0.161212 6.62055)
(-1.39864e-14 -0.155218 6.72498)
(-1.47646e-14 -0.151833 6.83399)
(-1.56282e-14 -0.147666 6.94457)
(-2.53176e-14 -0.14579 7.06258)
(-2.24981e-14 -0.143598 7.1854)
(-1.47052e-14 -0.142576 7.31542)
(-1.72258e-14 -0.141059 7.44875)
(-2.04683e-14 -0.139817 7.58612)
(-1.82375e-14 -0.137958 7.72463)
(-1.66254e-14 -0.135991 7.86451)
(-2.11231e-14 -0.133482 8.00335)
(-1.47074e-14 -0.130773 8.14129)
(-1.51213e-14 -0.127694 8.27685)
(-1.31751e-14 -0.124503 8.41025)
(-1.27068e-14 -0.121158 8.54053)
(-1.25002e-14 -0.117851 8.66793)
(-1.09338e-14 -0.114599 8.79194)
(-1.10328e-14 -0.111562 8.91286)
(-1.11539e-14 -0.108774 9.0305)
(-1.0614e-14 -0.106375 9.14513)
(-1.11354e-14 -0.104398 9.25674)
(-1.14285e-14 -0.102972 9.36569)
(-1.11051e-14 -0.102108 9.47193)
(-1.03683e-14 -0.101911 9.57658)
(-9.91973e-15 -0.102216 9.67716)
(-1.03223e-14 -0.103666 9.78314)
(-9.89055e-15 -0.103295 9.864)
(-9.46097e-15 -0.112124 10.0185)
(2.84454e-15 0.0627066 21.162)
(1.40629e-15 0.0683897 20.8029)
(3.94554e-15 0.0517441 20.3841)
(-6.20604e-15 0.0392323 19.9118)
(1.38807e-15 0.0368501 19.3988)
(2.65873e-15 0.0394557 18.8589)
(3.2864e-15 0.0412621 18.3133)
(2.09428e-15 0.040465 17.7623)
(1.32875e-15 0.0381157 17.2185)
(1.10523e-15 0.0333988 16.683)
(1.05602e-15 0.0309242 16.1704)
(6.75708e-16 0.0296035 15.6856)
(8.87974e-16 0.0293547 15.2366)
(1.05334e-15 0.0278942 14.8107)
(7.03386e-16 0.0302334 14.406)
(1.59467e-15 0.0326784 14.0308)
(1.95998e-15 0.0388598 13.6817)
(2.14051e-15 0.0444829 13.356)
(2.37471e-15 0.0542679 13.0526)
(2.84931e-15 0.063333 12.7676)
(2.25867e-15 0.0747912 12.4972)
(9.90756e-16 0.0833243 12.247)
(2.58839e-15 0.0934345 12.0103)
(2.33369e-15 0.0997406 11.7877)
(-1.31575e-15 0.106723 11.5779)
(-1.54453e-15 0.109404 11.3804)
(-1.94546e-15 0.112898 11.1956)
(-5.77676e-15 0.112809 11.023)
(3.56092e-15 0.11454 10.8594)
(-1.58466e-15 0.11468 10.706)
(-1.76338e-15 0.11727 10.5556)
(-2.31723e-15 0.119846 10.4094)
(-3.84947e-16 0.12494 10.2625)
(1.27071e-15 0.130229 10.116)
(4.77268e-15 0.136345 9.96541)
(6.2368e-15 0.141852 9.81042)
(-9.006e-15 0.147826 9.65061)
(-1.7983e-15 0.153512 9.48674)
(-2.09637e-15 0.159243 9.32044)
(-3.81079e-15 0.164524 9.15192)
(-1.28307e-14 0.170081 8.98229)
(-1.42638e-14 0.17583 8.81555)
(8.32132e-16 0.181934 8.65068)
(-7.46476e-16 0.188145 8.48948)
(-1.16758e-14 0.193929 8.32503)
(-1.22448e-14 0.200546 8.16165)
(-1.36144e-14 0.209552 8.02541)
(-1.19629e-14 0.215963 7.86776)
(-2.26665e-15 0.227485 7.71082)
(-1.363e-14 0.233928 7.54743)
(-1.41068e-14 0.240015 7.38147)
(-1.09582e-14 0.23664 7.21897)
(-1.56742e-14 0.233854 7.06312)
(-6.42983e-15 0.242649 6.90721)
(-4.65772e-15 0.266262 6.73309)
(-2.74294e-15 0.283924 6.55739)
(2.86906e-15 0.291879 6.36315)
(-1.40417e-14 0.283847 6.16417)
(3.09603e-15 0.265439 5.96612)
(3.03419e-14 0.219442 5.76996)
(8.30931e-15 0.172182 5.63154)
(9.65664e-15 0.128189 5.58202)
(2.08289e-15 0.0838869 5.59836)
(-2.07974e-15 0.053036 5.63779)
(-5.68945e-15 0.0327977 5.66766)
(-1.57061e-14 -0.0239874 5.70833)
(-2.80713e-14 -0.0931112 5.77498)
(-2.84103e-14 -0.150291 5.87011)
(-2.42059e-14 -0.178648 5.96905)
(-2.79328e-14 -0.193372 6.076)
(-2.96884e-14 -0.194013 6.17722)
(-2.95346e-14 -0.194028 6.2853)
(-2.94441e-14 -0.191506 6.39865)
(-2.83094e-14 -0.191971 6.52626)
(-9.32671e-15 -0.192293 6.66324)
(-2.34426e-14 -0.194144 6.81244)
(-1.7764e-14 -0.195302 6.96885)
(-2.64271e-14 -0.196503 7.13253)
(-2.15573e-14 -0.196585 7.29826)
(-1.86241e-14 -0.196016 7.46568)
(-1.91943e-14 -0.194334 7.63145)
(-1.6333e-14 -0.191935 7.79549)
(-8.30257e-15 -0.188692 7.95548)
(-1.499e-14 -0.184916 8.11162)
(-1.92194e-14 -0.18063 8.26268)
(-1.22664e-14 -0.176091 8.40908)
(-1.15874e-14 -0.171365 8.55013)
(-1.08112e-14 -0.16666 8.68629)
(-1.02116e-14 -0.162044 8.8173)
(-1.23468e-14 -0.157702 8.94366)
(-9.59165e-15 -0.153687 9.06534)
(-7.22249e-15 -0.150162 9.1828)
(-1.22188e-14 -0.147167 9.29615)
(-9.15896e-15 -0.144852 9.40592)
(-9.37044e-15 -0.143239 9.51213)
(-5.68973e-15 -0.142431 9.61603)
(-6.72686e-15 -0.142405 9.71527)
(-6.89504e-15 -0.143509 9.81914)
(-6.03858e-15 -0.144179 9.89807)
(-5.01957e-15 -0.151769 10.0467)
(3.7355e-15 0.0625821 19.642)
(7.11079e-16 0.068894 19.0817)
(1.808e-15 0.052912 18.4414)
(4.1609e-15 0.03886 17.7606)
(1.71917e-15 0.0343987 17.0835)
(4.76987e-15 0.0360321 16.4252)
(1.86069e-15 0.0375002 15.8066)
(1.00548e-15 0.0359125 15.2248)
(2.21863e-15 0.0330467 14.6902)
(1.41955e-15 0.0271146 14.1991)
(-8.55885e-16 0.0243569 13.7621)
(-1.08017e-15 0.0221363 13.3783)
(-1.61022e-15 0.0216308 13.0494)
(-1.25032e-15 0.0192884 12.7555)
(-9.94725e-16 0.0220559 12.489)
(-6.79356e-16 0.0246823 12.254)
(-1.01627e-15 0.0321531 12.042)
(-1.68409e-15 0.0390614 11.8468)
(-2.18542e-15 0.0512432 11.6655)
(-1.29104e-14 0.0628571 11.4931)
(-2.11638e-15 0.0773662 11.3257)
(-3.53201e-15 0.0887225 11.1705)
(-4.2367e-15 0.101738 11.0211)
(-5.87388e-15 0.110564 10.8793)
(-6.82098e-15 0.11975 10.7443)
(-6.82134e-15 0.124223 10.6164)
(-1.53645e-15 0.129054 10.4963)
(-4.58169e-15 0.130117 10.3838)
(-7.7711e-15 0.132727 10.2759)
(-6.73474e-15 0.133977 10.1739)
(-1.14802e-14 0.137656 10.0705)
(-1.5898e-14 0.141802 9.96712)
(-1.70344e-14 0.148581 9.85889)
(-8.24077e-15 0.155962 9.74699)
(-1.03207e-14 0.164173 9.62732)
(-1.34225e-14 0.172003 9.4999)
(2.72825e-15 0.180245 9.36468)
(-4.52859e-15 0.188334 9.22274)
(-6.98693e-15 0.19637 9.076)
(-9.03492e-15 0.204058 8.92507)
(-1.0784e-14 0.211943 8.77133)
(-1.55616e-14 0.220124 8.61917)
(-7.27928e-15 0.228658 8.46772)
(-5.38137e-15 0.237301 8.31905)
(-1.53218e-14 0.24565 8.16637)
(-1.53539e-14 0.254816 8.01438)
(-1.50853e-14 0.266116 7.88949)
(-1.51357e-14 0.275814 7.74244)
(-1.52213e-14 0.28917 7.59334)
(-1.56575e-14 0.29872 7.43606)
(-1.58056e-14 0.305591 7.27707)
(-1.63579e-14 0.305042 7.12207)
(-1.65239e-14 0.3039 6.9659)
(-1.52007e-14 0.31705 6.79802)
(-1.37885e-14 0.339452 6.62173)
(-1.83877e-14 0.359408 6.45419)
(-9.82419e-15 0.372759 6.25562)
(-1.40975e-14 0.374191 6.03032)
(-1.46559e-14 0.355341 5.79582)
(5.05583e-15 0.29714 5.57175)
(1.69474e-14 0.228724 5.44043)
(-3.83952e-14 0.163514 5.43329)
(-3.63168e-14 0.0986279 5.4649)
(-3.66823e-14 0.061131 5.48636)
(-4.55849e-14 0.0389561 5.50237)
(-4.91565e-14 -0.0280846 5.52629)
(-5.57093e-14 -0.107322 5.56198)
(-4.59168e-14 -0.170064 5.62578)
(-3.77404e-14 -0.201341 5.69836)
(-3.86745e-14 -0.218438 5.78829)
(-5.26855e-14 -0.223954 5.88559)
(-2.72247e-14 -0.229969 6.00372)
(-2.41395e-14 -0.234804 6.1394)
(-6.48789e-15 -0.241589 6.29717)
(-2.38573e-14 -0.247512 6.46827)
(-1.15072e-14 -0.253136 6.65182)
(8.20647e-16 -0.256954 6.84072)
(-1.09414e-14 -0.259338 7.03356)
(-5.20645e-15 -0.2598 7.22474)
(-5.90055e-15 -0.258723 7.4137)
(-7.94289e-15 -0.256106 7.5974)
(-6.60702e-15 -0.252326 7.77605)
(-5.66459e-15 -0.247528 7.94777)
(-4.88796e-15 -0.242027 8.11311)
(-8.70925e-15 -0.235989 8.27124)
(-9.36032e-15 -0.229682 8.42288)
(-7.2552e-15 -0.223235 8.56763)
(-6.83647e-15 -0.216876 8.7062)
(-6.5321e-15 -0.210693 8.83852)
(-6.03255e-15 -0.204891 8.96523)
(-5.08834e-15 -0.199524 9.08648)
(-6.18649e-15 -0.194778 9.20283)
(-7.98594e-15 -0.190682 9.31449)
(-3.35494e-15 -0.187414 9.42204)
(-3.29841e-15 -0.184989 9.52563)
(-2.27694e-15 -0.183531 9.62648)
(-8.43122e-16 -0.18309 9.72243)
(-1.34681e-15 -0.183881 9.82242)