/*--------------------------------*- C++ -*----------------------------------*\
| =========                 |                                                 |
| \\      /  F ield         | OpenFOAM: The Open Source CFD Toolbox           |
|  \\    /   O peration     | Version:  4.1                                   |
|   \\  /    A nd           | Web:      www.OpenFOAM.org                      |
|    \\/     M anipulation  |                                                 |
\*---------------------------------------------------------------------------*/
FoamFile
{
    version     2.0;
    format      ascii;
    class       volScalarField;
    location    "5";
    object      p;
}
// * * * * * * * * * * * * * * * * * * * * * * * * * * * * * * * * * * * * * //

dimensions      [0 2 -2 0 0 0 0];

internalField   nonuniform List<scalar> 
26785
(
0.126709
0.234455
0.502033
0.813732
1.07417
1.50122
1.86905
2.32779
2.7216
3.18192
3.51003
3.76903
3.87704
3.92055
3.92827
3.93367
3.87459
3.75893
3.59644
3.38936
3.16624
2.91115
2.64464
2.37115
2.08649
1.77822
1.47578
1.19071
0.929595
0.682573
0.460935
0.260183
0.07082
-0.121208
-0.301248
-0.460518
-0.600399
-0.742986
-0.885932
-1.01115
-1.10634
-1.1765
-1.23251
-1.27838
-1.30975
-1.33291
-1.35695
-1.38363
-1.39734
-1.39978
-1.37348
-1.32874
-1.25026
-1.15981
-1.05499
-0.960652
-0.860046
-0.7614
-0.649484
-0.538117
-0.417488
-0.29745
-0.162808
-0.0219385
0.132128
0.284888
0.439793
0.585623
0.725877
0.852177
0.967422
1.06554
1.14961
1.21635
1.26996
1.30942
1.33848
1.3568
1.36712
1.36942
1.36606
1.35773
1.34649
1.33277
1.3173
1.29952
1.2788
1.25365
1.22259
1.18391
1.13597
1.07701
1.00546
0.919922
0.81993
0.704571
0.577415
0.431481
0.283611
0.0786635
0.109038
0.231923
0.502859
0.812451
1.07313
1.50063
1.86836
2.3271
2.72135
3.18288
3.51198
3.77096
3.87786
3.92071
3.92825
3.93387
3.87498
3.75937
3.59673
3.38935
3.16545
2.90935
2.64194
2.36888
2.08501
1.77758
1.47574
1.19057
0.928563
0.680836
0.45921
0.258685
0.06946
-0.121975
-0.301813
-0.461573
-0.601782
-0.7444
-0.886683
-1.0113
-1.1068
-1.17751
-1.23414
-1.27964
-1.30948
-1.33162
-1.35614
-1.38408
-1.39872
-1.40121
-1.3741
-1.32883
-1.24998
-1.15956
-1.05457
-0.959649
-0.858274
-0.759626
-0.648423
-0.53829
-0.418565
-0.298865
-0.163926
-0.0226306
0.131987
0.285207
0.440612
0.586733
0.727245
0.853617
0.96892
1.06692
1.15085
1.21731
1.2707
1.30991
1.33884
1.35698
1.36717
1.36926
1.36572
1.35722
1.34596
1.3323
1.31702
1.29946
1.279
1.25408
1.22326
1.18485
1.1372
1.07855
1.00725
0.921837
0.821821
0.70613
0.579206
0.431465
0.305084
0.057632
0.0764478
0.228069
0.504413
0.810025
1.07113
1.4998
1.86713
2.32622
2.72087
3.185
3.51622
3.77517
3.87993
3.92157
3.92913
3.93476
3.87629
3.76047
3.59757
3.38961
3.16467
2.90651
2.63747
2.365
2.08258
1.77638
1.47568
1.19041
0.926915
0.677953
0.457187
0.257348
0.0681797
-0.122521
-0.30184
-0.461905
-0.60271
-0.745534
-0.88678
-1.01043
-1.10611
-1.17831
-1.23659
-1.2816
-1.30861
-1.32883
-1.35403
-1.38422
-1.40068
-1.40355
-1.37587
-1.32991
-1.25014
-1.15965
-1.05455
-0.958644
-0.856107
-0.757342
-0.647289
-0.538879
-0.420521
-0.301103
-0.165705
-0.0236183
0.131768
0.285879
0.442019
0.588786
0.72966
0.856399
0.971871
1.07004
1.15396
1.22044
1.27376
1.31297
1.34182
1.35996
1.37003
1.37196
1.36817
1.3595
1.34812
1.33449
1.31933
1.30202
1.28179
1.2571
1.22645
1.18821
1.14077
1.08236
1.01129
0.925967
0.825966
0.709688
0.58299
0.43228
0.313132
0.0696601
0.0315185
0.225084
0.505889
0.805683
1.06772
1.49846
1.86511
2.32478
2.71977
3.18815
3.52266
3.78171
3.88306
3.92275
3.92998
3.93593
3.87794
3.76164
3.59831
3.38986
3.16389
2.90266
2.63099
2.35939
2.07945
1.77486
1.47529
1.18976
0.924232
0.673951
0.454455
0.255398
0.0664379
-0.123428
-0.302192
-0.462774
-0.6045
-0.747164
-0.886863
-1.009
-1.10463
-1.17899
-1.23931
-1.28378
-1.30769
-1.32564
-1.35129
-1.38336
-1.40136
-1.40416
-1.3758
-1.32837
-1.24827
-1.15784
-1.05311
-0.955881
-0.852751
-0.753892
-0.645536
-0.538427
-0.421319
-0.301603
-0.16608
-0.0232824
0.132128
0.286909
0.443106
0.590272
0.730872
0.857679
0.972706
1.07073
1.15407
1.22032
1.27315
1.31219
1.34061
1.35854
1.36815
1.36972
1.3654
1.35638
1.34459
1.33071
1.31528
1.29786
1.27746
1.25267
1.22185
1.18352
1.13598
1.0776
1.00657
0.921383
0.82139
0.705332
0.577783
0.429188
0.291962
0.0899121
-0.0210232
0.22762
0.50811
0.799968
1.06339
1.49668
1.86253
2.32263
2.71795
3.1919
3.53104
3.78976
3.88723
3.92399
3.93123
3.93758
3.88069
3.76361
3.60024
3.39125
3.16442
2.89896
2.62392
2.35364
2.07691
1.77384
1.47498
1.18886
0.921274
0.669817
0.451539
0.253506
0.0653998
-0.123234
-0.301701
-0.463608
-0.606235
-0.747861
-0.885278
-1.00567
-1.1015
-1.17812
-1.24004
-1.28426
-1.30654
-1.32378
-1.35065
-1.38373
-1.40329
-1.40523
-1.37668
-1.32815
-1.24944
-1.1595
-1.056
-0.957781
-0.855622
-0.757415
-0.651654
-0.545732
-0.429996
-0.309799
-0.174491
-0.0311539
0.12391
0.279303
0.435544
0.583393
0.723975
0.851131
0.965943
1.06412
1.14726
1.21378
1.26676
1.3063
1.33503
1.35343
1.36331
1.3652
1.36105
1.35232
1.3408
1.32731
1.31231
1.2954
1.27544
1.25106
1.22061
1.18263
1.1354
1.07736
1.00657
0.921593
0.821565
0.705765
0.57708
0.430625
0.281188
0.100505
-0.0784316
0.237342
0.510352
0.792865
1.05806
1.49414
1.85903
2.31936
2.71515
3.19566
3.54021
3.7986
3.89169
3.9247
3.93191
3.93908
3.88344
3.76518
3.60161
3.39162
3.16348
2.89338
2.61489
2.34643
2.07296
1.77087
1.47206
1.18497
0.91586
0.66428
0.447677
0.251166
0.0646083
-0.122628
-0.301337
-0.465421
-0.608927
-0.749193
-0.884568
-1.00386
-1.10014
-1.17812
-1.24034
-1.28356
-1.30447
-1.32135
-1.34924
-1.3829
-1.40328
-1.40404
-1.37514
-1.32592
-1.24809
-1.15818
-1.05477
-0.955777
-0.854626
-0.758017
-0.65493
-0.550779
-0.436367
-0.31633
-0.181242
-0.0376872
0.117271
0.272927
0.429155
0.577099
0.717317
0.844126
0.958507
1.05655
1.13965
1.20635
1.25948
1.29925
1.32805
1.34643
1.35615
1.35784
1.35347
1.34465
1.33317
1.31988
1.30524
1.28884
1.26946
1.24561
1.21553
1.17778
1.13077
1.07296
1.0024
0.917589
0.817496
0.70171
0.572041
0.426497
0.27143
0.101236
-0.140074
0.248632
0.508089
0.782777
1.05121
1.49001
1.85482
2.31507
2.71193
3.19861
3.54893
3.8058
3.8947
3.92314
3.93024
3.93725
3.88254
3.7622
3.59775
3.38527
3.15489
2.88053
2.60017
2.33506
2.06497
1.76328
1.46388
1.17553
0.90564
0.655071
0.441002
0.246919
0.0629274
-0.122068
-0.30022
-0.464675
-0.607626
-0.745952
-0.87935
-0.997538
-1.09377
-1.17203
-1.23409
-1.27692
-1.29744
-1.31444
-1.34347
-1.37861
-1.40014
-1.40084
-1.37251
-1.32387
-1.24713
-1.15744
-1.05404
-0.95489
-0.855213
-0.761133
-0.661351
-0.559804
-0.447391
-0.328306
-0.193781
-0.0500348
0.105317
0.261642
0.418234
0.566452
0.706439
0.832742
0.946614
1.04458
1.12786
1.19507
1.24873
1.28902
1.31814
1.33664
1.34625
1.34778
1.34326
1.33447
1.3232
1.31028
1.29619
1.28057
1.26208
1.23905
1.20956
1.17225
1.1256
1.06812
0.997891
0.913357
0.813317
0.697564
0.567288
0.422443
0.264894
0.100594
-0.192445
0.264179
0.503286
0.772155
1.04403
1.48472
1.84994
2.30949
2.70744
3.19848
3.55326
3.80753
3.89223
3.91578
3.92179
3.92794
3.87374
3.75133
3.58574
3.37066
3.13789
2.86062
2.58061
2.32074
2.05462
1.75295
1.45248
1.16356
0.894132
0.645867
0.435108
0.243885
0.0625479
-0.120572
-0.299044
-0.463261
-0.60466
-0.741684
-0.87436
-0.992204
-1.0882
-1.16609
-1.22758
-1.26991
-1.28993
-1.30697
-1.33739
-1.37435
-1.39688
-1.39724
-1.36878
-1.32007
-1.24343
-1.15332
-1.04972
-0.95099
-0.853341
-0.762444
-0.666143
-0.567429
-0.457342
-0.339663
-0.205885
-0.062004
0.0939291
0.25091
0.407741
0.555952
0.695626
0.821233
0.934373
1.03218
1.11567
1.18338
1.2376
1.27835
1.30769
1.32616
1.33554
1.3368
1.33202
1.32315
1.31207
1.29953
1.28598
1.27111
1.25357
1.23143
1.20262
1.16577
1.11944
1.06215
0.992097
0.907766
0.807762
0.692033
0.561429
0.417216
0.258765
0.098514
-0.227507
0.27942
0.494762
0.760956
1.03596
1.4767
1.84321
2.30114
2.7001
3.19295
3.55128
3.80223
3.88378
3.90326
3.90887
3.9146
3.86157
3.73765
3.57033
3.35206
3.11678
2.83745
2.5593
2.30578
2.04298
1.74029
1.43729
1.14777
0.879754
0.634578
0.427661
0.239994
0.0615181
-0.119954
-0.298786
-0.461927
-0.60153
-0.738034
-0.870403
-0.987248
-1.08178
-1.1582
-1.21853
-1.25996
-1.27935
-1.29685
-1.32931
-1.36845
-1.39161
-1.39111
-1.36175
-1.3123
-1.23517
-1.14452
-1.04122
-0.943772
-0.848894
-0.761686
-0.669086
-0.57339
-0.465987
-0.350044
-0.217233
-0.0733699
0.0830592
0.240504
0.397255
0.545098
0.684122
0.808812
0.920945
1.01848
1.10222
1.17052
1.22533
1.26649
1.29587
1.31411
1.32312
1.32406
1.31902
1.3101
1.29926
1.28725
1.27439
1.26033
1.24382
1.22269
1.19463
1.1583
1.11227
1.05513
0.985261
0.901182
0.801317
0.685742
0.555101
0.411611
0.253254
0.096311
-0.243733
0.284464
0.480208
0.748798
1.02621
1.46547
1.83347
2.289
2.68874
3.18292
3.54517
3.79385
3.87237
3.88798
3.89303
3.89911
3.84687
3.72025
3.54929
3.32682
3.08894
2.80836
2.53402
2.28837
2.02858
1.72415
1.41843
1.12926
0.863427
0.622053
0.419974
0.236784
0.0617089
-0.118041
-0.296985
-0.458929
-0.597427
-0.734093
-0.865818
-0.980555
-1.07259
-1.14707
-1.20633
-1.24711
-1.26625
-1.28488
-1.32015
-1.36156
-1.38482
-1.38286
-1.35202
-1.3014
-1.22366
-1.13262
-1.03016
-0.934668
-0.843034
-0.759749
-0.670892
-0.578285
-0.473589
-0.359441
-0.227597
-0.0838242
0.0730462
0.23074
0.387143
0.534323
0.672423
0.795984
0.907006
1.00421
1.08827
1.15726
1.21273
1.25421
1.28343
1.30117
1.30957
1.31012
1.30494
1.29612
1.28565
1.2743
1.2623
1.2491
1.23357
1.21344
1.18614
1.15032
1.10453
1.04754
0.977891
0.894106
0.794451
0.679129
0.548633
0.405952
0.248191
0.0942942
-0.238119
0.272224
0.459097
0.735858
1.01496
1.45202
1.82202
2.27468
2.67504
3.17128
3.53814
3.78425
3.8584
3.86869
3.87251
3.87924
3.82728
3.69732
3.52251
3.29625
3.05701
2.77567
2.50684
2.27061
2.0135
1.70658
1.398
1.1101
0.846655
0.609166
0.412616
0.234528
0.0630205
-0.115057
-0.294389
-0.455578
-0.593763
-0.730687
-0.860973
-0.972465
-1.06135
-1.13374
-1.19215
-1.23252
-1.25185
-1.27236
-1.31092
-1.35431
-1.37679
-1.37265
-1.33983
-1.28774
-1.20931
-1.11812
-1.01713
-0.92414
-0.836081
-0.756774
-0.671618
-0.582104
-0.480013
-0.367474
-0.236477
-0.0928475
0.0642729
0.221931
0.377689
0.523934
0.660822
0.782998
0.892829
0.989776
1.07423
1.14397
1.20002
1.24166
1.2705
1.28745
1.295
1.29513
1.28997
1.28144
1.27153
1.26098
1.24995
1.23768
1.22308
1.20387
1.17729
1.14197
1.09643
1.03963
0.970302
0.886858
0.787486
0.67246
0.542237
0.400461
0.243497
0.0925679
-0.195614
0.258103
0.439375
0.72441
1.00295
1.43791
1.80958
2.2581
2.65819
3.15756
3.52914
3.77192
3.83988
3.84402
3.84635
3.85462
3.8019
3.66825
3.48997
3.26097
3.02184
2.74021
2.47879
2.25292
1.99753
1.6867
1.37506
1.08979
0.829277
0.595976
0.40549
0.232839
0.064848
-0.111938
-0.291969
-0.452613
-0.590783
-0.72738
-0.855049
-0.962317
-1.04759
-1.11786
-1.17561
-1.21588
-1.23587
-1.259
-1.30122
-1.34614
-1.367
-1.35991
-1.32484
-1.27131
-1.19235
-1.10141
-1.00241
-0.912374
-0.828192
-0.752899
-0.671349
-0.584912
-0.485179
-0.374032
-0.243712
-0.100338
0.0567276
0.214019
0.368884
0.513922
0.649315
0.769853
0.878458
0.975299
1.0603
1.13076
1.18724
1.22877
1.25698
1.27296
1.27954
1.27928
1.27436
1.26634
1.25718
1.24759
1.2376
1.22632
1.21263
1.19427
1.16837
1.1335
1.0882
1.0317
0.962818
0.879767
0.780735
0.665984
0.536113
0.395341
0.23922
0.0912139
-0.142807
0.236608
0.418497
0.712085
0.989851
1.42351
1.79701
2.24
2.63932
3.14229
3.51874
3.75682
3.81764
3.81613
3.81708
3.82649
3.77172
3.63472
3.45404
3.22325
2.9857
2.70435
2.4518
2.23592
1.98071
1.665
1.35065
1.06909
0.811807
0.583002
0.39865
0.231343
0.0665728
-0.109402
-0.290604
-0.450998
-0.589299
-0.72469
-0.84853
-0.950786
-1.03218
-1.10042
-1.15754
-1.19793
-1.21915
-1.24555
-1.29146
-1.33732
-1.35563
-1.34485
-1.30745
-1.25272
-1.17338
-1.08314
-0.986545
-0.899772
-0.819658
-0.748371
-0.670232
-0.586653
-0.488955
-0.378934
-0.249136
-0.106118
0.0505031
0.207098
0.360845
0.504433
0.638047
0.756816
0.864257
0.961113
1.04685
1.11797
1.17464
1.21574
1.243
1.25784
1.26356
1.26308
1.25854
1.25117
1.24296
1.23446
1.22556
1.21535
1.20257
1.185
1.15971
1.12521
1.08022
1.02414
0.955805
0.873191
0.774505
0.659963
0.530474
0.390698
0.235398
0.0902185
-0.0955849
0.21462
0.400911
0.701259
0.977765
1.41017
1.78507
2.22137
2.61926
3.12641
3.50714
3.73903
3.79139
3.78514
3.7852
3.79481
3.73648
3.59651
3.41472
3.18332
2.94892
2.66883
2.42597
2.21871
1.96209
1.64088
1.3246
1.04741
0.793515
0.569715
0.391593
0.229529
0.067792
-0.10787
-0.290631
-0.45105
-0.589213
-0.722273
-0.84115
-0.937798
-1.01508
-1.08143
-1.13779
-1.17848
-1.20143
-1.23165
-1.28117
-1.32731
-1.3421
-1.32713
-1.28764
-1.23203
-1.15263
-1.06363
-0.96968
-0.886372
-0.81048
-0.743182
-0.668217
-0.5872
-0.491124
-0.382022
-0.252714
-0.110244
0.045582
0.201136
0.353501
0.495354
0.626937
0.743842
0.850303
0.947234
1.03382
1.10551
1.16211
1.20242
1.22839
1.24197
1.24704
1.2467
1.24275
1.23615
1.229
1.22168
1.21395
1.20491
1.19305
1.17622
1.15143
1.11724
1.07268
1.01719
0.949447
0.86727
0.768828
0.654467
0.525416
0.386598
0.23193
0.0895295
-0.0590403
0.195956
0.386107
0.691974
0.966899
1.39799
1.77377
2.20293
2.59984
3.1116
3.49549
3.71928
3.76238
3.75253
3.75258
3.76082
3.69811
3.55591
3.37455
3.14341
2.91288
2.6357
2.40229
2.20147
1.94194
1.61547
1.2983
1.02545
0.774661
0.556012
0.384118
0.227113
0.0681692
-0.107466
-0.292078
-0.452949
-0.590649
-0.720486
-0.833755
-0.924429
-0.99758
-1.06217
-1.11756
-1.15848
-1.18368
-1.21812
-1.27079
-1.31636
-1.32665
-1.30732
-1.26607
-1.20987
-1.13066
-1.04341
-0.952267
-0.872538
-0.800862
-0.737389
-0.665327
-0.586495
-0.491638
-0.383233
-0.254461
-0.112778
0.0419239
0.19616
0.346872
0.486732
0.61613
0.731164
0.836854
0.934031
1.02146
1.0936
1.14981
1.18893
1.21332
1.22561
1.23026
1.23042
1.22742
1.22173
1.21562
1.20953
1.20307
1.19533
1.18446
1.16826
1.14382
1.10995
1.06597
1.01121
0.944026
0.862178
0.763754
0.649561
0.521054
0.383127
0.228771
0.0890731
-0.0321364
0.181848
0.373336
0.684731
0.957722
1.38792
1.76323
2.18499
2.58181
3.09874
3.48356
3.69728
3.73018
3.71802
3.71898
3.72406
3.65673
3.51278
3.33324
3.10359
2.877
2.60452
2.37968
2.18323
1.91959
1.5885
1.27164
1.00275
0.754524
0.541189
0.375676
0.223748
0.067634
-0.108034
-0.294542
-0.45603
-0.592754
-0.718833
-0.826269
-0.910843
-0.979972
-1.04273
-1.09682
-1.13794
-1.16595
-1.20471
-1.2599
-1.30386
-1.30891
-1.28537
-1.24274
-1.18622
-1.10754
-1.02253
-0.9343
-0.858267
-0.790708
-0.730785
-0.661387
-0.584418
-0.490367
-0.382516
-0.254415
-0.113785
0.0394729
0.192087
0.340842
0.478422
0.605566
0.718779
0.823821
0.921469
1.00963
1.08203
1.13749
1.17499
1.19758
1.20868
1.21322
1.21425
1.21256
1.20798
1.20285
1.19802
1.19294
1.18665
1.17685
1.16112
1.13696
1.10348
1.06024
1.00634
0.939615
0.857844
0.759194
0.64519
0.517296
0.380168
0.225909
0.0888506
-0.00863093
0.17183
0.362023
0.679221
0.950814
1.38019
1.75361
2.16779
2.56627
3.08856
3.47192
3.67379
3.69639
3.68314
3.68572
3.68586
3.6146
3.46985
3.2931
3.06531
2.84238
2.57589
2.3583
2.16411
1.89566
1.5612
1.24571
0.980017
0.733576
0.52538
0.366068
0.219461
0.0663442
-0.109175
-0.29752
-0.459897
-0.595287
-0.717522
-0.819343
-0.898045
-0.963558
-1.02442
-1.0769
-1.11806
-1.14936
-1.19217
-1.24887
-1.29006
-1.28927
-1.26209
-1.21837
-1.16173
-1.08391
-1.00141
-0.91617
-0.843859
-0.780177
-0.723395
-0.656362
-0.580918
-0.487351
-0.379911
-0.252727
-0.113367
0.0382015
0.188911
0.335442
0.470537
0.595382
0.706966
0.811407
0.909704
0.998511
1.07093
1.12521
1.16068
1.18138
1.19147
1.19634
1.19865
1.19836
1.19496
1.19086
1.18733
1.18378
1.17907
1.1703
1.15491
1.131
1.09804
1.05574
1.00277
0.93629
0.854168
0.755151
0.641425
0.514051
0.377509
0.22339
0.0888661
0.0109557
0.162487
0.35123
0.674868
0.945844
1.3746
1.74452
2.15101
2.55338
3.0813
3.45994
3.64828
3.66062
3.64764
3.65201
3.64629
3.57179
3.42678
3.25312
3.02751
2.80842
2.54844
2.33664
2.14323
1.86993
1.53309
1.21995
0.956841
0.711667
0.50796
0.355001
0.214337
0.064373
-0.110708
-0.300758
-0.464013
-0.59763
-0.716044
-0.812492
-0.885842
-0.948148
-1.00699
-1.05781
-1.09903
-1.13397
-1.18024
-1.23733
-1.27448
-1.26753
-1.23744
-1.19294
-1.13642
-1.05979
-0.979952
-0.897806
-0.829211
-0.76912
-0.715011
-0.650029
-0.575883
-0.482602
-0.375566
-0.249634
-0.111729
0.0380117
0.186557
0.330611
0.463046
0.585507
0.695581
0.799534
0.898495
0.98787
1.05999
1.11259
1.14569
1.16451
1.17407
1.1799
1.18366
1.18464
1.18241
1.17945
1.17729
1.17544
1.17242
1.16464
1.14952
1.12588
1.09364
1.05256
1.00045
0.933819
0.850935
0.751601
0.638278
0.511251
0.375101
0.221218
0.0889695
0.0267012
0.153029
0.341179
0.671653
0.9428
1.37074
1.73582
2.13481
2.54398
3.07681
3.44777
3.62156
3.62458
3.61323
3.61841
3.60717
3.53024
3.3857
3.21472
2.99099
2.776
2.52249
2.31471
2.12078
1.84303
1.50487
1.19517
0.934149
0.689694
0.489678
0.343258
0.208594
0.0613758
-0.112838
-0.304476
-0.468566
-0.599997
-0.714639
-0.806004
-0.874582
-0.934116
-0.990995
-1.04066
-1.08194
-1.12074
-1.16952
-1.22564
-1.2575
-1.24443
-1.21208
-1.16705
-1.11087
-1.03573
-0.958629
-0.879581
-0.814549
-0.757579
-0.705647
-0.642444
-0.569427
-0.476403
-0.369728
-0.245388
-0.109032
0.0388073
0.185058
0.32645
0.456168
0.57618
0.684747
0.78835
0.887943
0.977732
1.04916
1.09959
1.1301
1.14717
1.15702
1.16436
1.16941
1.17144
1.17033
1.16863
1.16794
1.16794
1.16664
1.15981
1.14495
1.12156
1.09033
1.05067
0.999069
0.931894
0.848192
0.748735
0.635797
0.50889
0.373052
0.219289
0.0888712
0.0392495
0.143796
0.332587
0.669508
0.941275
1.36867
1.72732
2.11918
2.53843
3.07471
3.43461
3.59289
3.58786
3.57963
3.58409
3.56824
3.48967
3.34532
3.17588
2.95425
2.74394
2.49634
2.29077
2.09552
1.81402
1.47549
1.17108
0.911516
0.666991
0.470159
0.330823
0.202007
0.057174
-0.115942
-0.309314
-0.473904
-0.602677
-0.713274
-0.79923
-0.863271
-0.920446
-0.975717
-1.025
-1.06655
-1.10928
-1.15952
-1.21349
-1.23875
-1.21996
-1.18582
-1.14052
-1.08498
-1.01163
-0.937332
-0.861392
-0.799754
-0.745337
-0.695122
-0.633481
-0.561549
-0.468895
-0.362482
-0.239995
-0.105401
0.0405099
0.18436
0.322922
0.449842
0.567371
0.674409
0.777694
0.877789
0.967724
1.03798
1.08579
1.11357
1.12944
1.1405
1.14966
1.15576
1.1586
1.15855
1.15817
1.15911
1.16104
1.16139
1.15554
1.14099
1.11799
1.08799
1.04961
0.998073
0.930201
0.846025
0.746732
0.634054
0.507013
0.371426
0.217518
0.0886795
0.0488259
0.134646
0.325485
0.668349
0.941431
1.36815
1.71878
2.10454
2.53725
3.07399
3.42061
3.56342
3.55226
3.54778
3.55018
3.53092
3.45163
3.30692
3.13732
2.91792
2.71266
2.47025
2.26501
2.06754
1.783
1.44522
1.14764
0.889148
0.643688
0.44978
0.317859
0.194297
0.0515386
-0.120271
-0.315704
-0.480506
-0.606233
-0.712415
-0.792173
-0.851858
-0.90721
-0.961464
-1.01101
-1.0533
-1.09979
-1.1504
-1.20093
-1.21879
-1.19486
-1.15933
-1.11399
-1.0593
-0.987879
-0.916461
-0.843573
-0.785003
-0.732357
-0.683501
-0.623249
-0.552344
-0.460275
-0.354266
-0.233598
-0.100904
0.0430217
0.184376
0.320005
0.444006
0.559148
0.664781
0.767722
0.868125
0.957833
1.02638
1.07124
1.09635
1.11197
1.12487
1.13584
1.14259
1.14589
1.14682
1.14801
1.15076
1.15461
1.15651
1.15167
1.1375
1.11503
1.08617
1.04872
0.997115
0.928687
0.844438
0.745523
0.632857
0.505627
0.37024
0.215745
0.0886084
0.0577837
0.12694
0.320499
0.668372
0.943033
1.36938
1.70994
2.09165
2.54067
3.07397
3.40533
3.5328
3.517
3.51652
3.51641
3.49493
3.41514
3.26834
3.09689
2.8806
2.68087
2.44281
2.2363
2.03609
1.74947
1.4135
1.12364
0.866171
0.619189
0.428004
0.304451
0.185493
0.0444244
-0.125817
-0.323295
-0.487843
-0.610546
-0.711862
-0.784394
-0.840015
-0.893811
-0.947478
-0.9977
-1.04136
-1.09127
-1.14124
-1.18726
-1.19744
-1.16911
-1.13253
-1.08731
-1.03359
-0.964252
-0.895572
-0.825714
-0.770046
-0.718491
-0.67073
-0.611742
-0.541717
-0.450224
-0.345308
-0.226288
-0.0954904
0.046313
0.184996
0.317584
0.438597
0.551253
0.655611
0.758315
0.858739
0.947759
1.01402
1.05566
1.0785
1.09498
1.10992
1.12232
1.12933
1.13279
1.13473
1.13786
1.1425
1.14833
1.15179
1.14799
1.13436
1.11236
1.08439
1.04767
0.996032
0.927286
0.84331
0.744794
0.631917
0.504659
0.369454
0.214085
0.089161
0.0649799
0.120225
0.317269
0.669584
0.946348
1.37162
1.70062
2.0812
2.5487
3.07374
3.38932
3.50216
3.48368
3.48623
3.48397
3.4615
3.38094
3.23029
3.05553
2.84311
2.64938
2.41509
2.20556
2.00135
1.71365
1.38171
1.10029
0.843514
0.595037
0.406614
0.292022
0.176841
0.036345
-0.132515
-0.331392
-0.495343
-0.615172
-0.711342
-0.776476
-0.828517
-0.880969
-0.934203
-0.9853
-1.03073
-1.0836
-1.1319
-1.17244
-1.17532
-1.14333
-1.10601
-1.06102
-1.00834
-0.941234
-0.874783
-0.807717
-0.754917
-0.704089
-0.65708
-0.599309
-0.530013
-0.438925
-0.335733
-0.218174
-0.0891475
0.0502911
0.186169
0.315721
0.434001
0.543947
0.646971
0.7494
0.849511
0.937392
1.00098
1.03919
1.06068
1.0787
1.09543
1.10873
1.11572
1.11923
1.12213
1.12708
1.13392
1.14209
1.1473
1.14458
1.13138
1.10962
1.0825
1.04656
0.994744
0.926005
0.842672
0.744242
0.631092
0.503878
0.368448
0.212412
0.0906674
0.0704153
0.115234
0.316319
0.672299
0.951337
1.37372
1.69072
2.07445
2.56152
3.07281
3.37195
3.47066
3.45116
3.45566
3.45216
3.42949
3.34707
3.19015
3.01159
2.80435
2.61704
2.3853
2.17071
1.96156
1.67468
1.35019
1.07754
0.820639
0.57115
0.385927
0.28102
0.169011
0.0276698
-0.140228
-0.339121
-0.502371
-0.619393
-0.710428
-0.768716
-0.817541
-0.868688
-0.921266
-0.97313
-1.02044
-1.07587
-1.1217
-1.15632
-1.15214
-1.1172
-1.07942
-1.03476
-0.983113
-0.918307
-0.853824
-0.789202
-0.739092
-0.689098
-0.64249
-0.585865
-0.517363
-0.426784
-0.325403
-0.209098
-0.0818923
0.0548557
0.187741
0.314454
0.430055
0.537307
0.638868
0.740785
0.840078
0.926268
0.986922
1.02169
1.04265
1.06302
1.08153
1.09501
1.10137
1.10489
1.10849
1.11472
1.12446
1.13525
1.14261
1.1412
1.12827
1.10675
1.08073
1.04566
0.993444
0.925136
0.842558
0.7436
0.630168
0.502796
0.367078
0.211364
0.0928589
0.0737731
0.111527
0.317045
0.676642
0.957941
1.37424
1.6806
2.07393
2.57773
3.07022
3.3536
3.43928
3.42026
3.42523
3.4218
3.39949
3.31381
3.14894
2.9663
2.76507
2.58425
2.35401
2.13267
1.91744
1.63345
1.32071
1.05595
0.797491
0.547502
0.366208
0.271491
0.161985
0.0183847
-0.148495
-0.345553
-0.508653
-0.623227
-0.709442
-0.76181
-0.807873
-0.85768
-0.909248
-0.961722
-1.01079
-1.06825
-1.11093
-1.13922
-1.12839
-1.09113
-1.05312
-1.00882
-0.958134
-0.895499
-0.833057
-0.770593
-0.722794
-0.673812
-0.627182
-0.571306
-0.503606
-0.414293
-0.31431
-0.199106
-0.0739443
0.0597774
0.189616
0.313906
0.426867
0.531449
0.63143
0.732579
0.830619
0.91437
0.971766
1.00341
1.02484
1.04792
1.06776
1.08089
1.08618
1.08949
1.0937
1.10155
1.11394
1.12734
1.13723
1.13744
1.12488
1.10423
1.07971
1.04521
0.992683
0.925181
0.842758
0.742703
0.628653
0.500593
0.365538
0.211277
0.0946401
0.0753634
0.110086
0.319936
0.682993
0.965948
1.37358
1.67164
2.08597
2.59545
3.0657
3.33338
3.40727
3.38895
3.39417
3.39217
3.37002
3.27889
3.10495
2.91843
2.7243
2.55029
2.32013
2.09068
1.86869
1.59165
1.29529
1.03509
0.77233
0.521515
0.344916
0.261275
0.153604
0.00669422
-0.157843
-0.350906
-0.513875
-0.626532
-0.708254
-0.755403
-0.799122
-0.847604
-0.89798
-0.950468
-1.00119
-1.06018
-1.0992
-1.121
-1.10399
-1.06482
-1.02667
-0.982697
-0.93297
-0.872469
-0.812045
-0.751867
-0.705952
-0.658142
-0.611221
-0.555721
-0.488763
-0.401346
-0.302274
-0.188244
-0.065516
0.0649902
0.192161
0.31416
0.424385
0.526162
0.624308
0.724364
0.820843
0.90174
0.955349
0.984293
1.0071
1.03245
1.05308
1.06558
1.06998
1.07285
1.07785
1.08787
1.10219
1.11815
1.13104
1.13302
1.1218
1.10296
1.07981
1.04533
0.993025
0.926375
0.842948
0.74136
0.626249
0.497637
0.364427
0.211709
0.0952144
0.0762653
0.11024
0.324663
0.691304
0.975535
1.37222
1.66589
2.11013
2.6116
3.05921
3.3115
3.37497
3.35724
3.36325
3.3639
3.34138
3.24268
3.05981
2.86998
2.68358
2.51622
2.28481
2.04683
1.81839
1.5531
1.27557
1.01426
0.74476
0.492164
0.320947
0.249002
0.142151
-0.00886855
-0.168889
-0.355631
-0.517891
-0.628986
-0.706557
-0.749266
-0.791154
-0.838602
-0.887893
-0.939652
-0.992039
-1.05195
-1.08704
-1.10198
-1.07938
-1.03871
-1.00052
-0.956859
-0.908025
-0.849756
-0.791152
-0.733272
-0.68864
-0.642021
-0.594953
-0.539767
-0.473615
-0.387746
-0.289437
-0.176825
-0.056758
0.0705634
0.195589
0.315072
0.422402
0.521299
0.617321
0.715973
0.810965
0.889577
0.938462
0.964901
0.990072
1.01709
1.0373
1.04871
1.05231
1.05477
1.06094
1.07334
1.08934
1.10805
1.12377
1.12785
1.11903
1.10266
1.08043
1.04597
0.994679
0.928249
0.842907
0.739471
0.623106
0.494775
0.363352
0.211653
0.0947766
0.0764874
0.112647
0.332005
0.701726
0.98677
1.37025
1.66495
2.14032
2.62523
3.05052
3.28652
3.34148
3.32403
3.33163
3.33558
3.31153
3.20315
3.0126
2.8206
2.64155
2.47962
2.24562
2.00022
1.76523
1.51717
1.26058
0.991853
0.714388
0.45861
0.292793
0.232461
0.126173
-0.0283368
-0.18213
-0.360312
-0.520871
-0.63011
-0.703521
-0.742468
-0.783215
-0.829974
-0.878243
-0.928769
-0.98278
-1.04302
-1.07428
-1.08211
-1.0544
-1.01249
-0.974411
-0.931085
-0.883014
-0.82701
-0.770139
-0.714362
-0.670636
-0.62502
-0.578073
-0.523294
-0.458096
-0.373187
-0.275944
-0.164895
-0.0475295
0.0768899
0.199657
0.316437
0.420832
0.516771
0.610336
0.707713
0.801539
0.876755
0.920185
0.944976
0.973007
1.00129
1.02043
1.0298
1.03242
1.03502
1.043
1.05735
1.07558
1.09693
1.1148
1.1215
1.11641
1.10306
1.08144
1.04687
0.997306
0.930059
0.842397
0.737264
0.619787
0.49221
0.361798
0.210643
0.0939268
0.0760289
0.116205
0.341831
0.714425
0.99866
1.36724
1.66946
2.17001
2.63585
3.04019
3.26053
3.30825
3.29056
3.29955
3.30721
3.28081
3.16159
2.96529
2.77135
2.59772
2.43917
2.20145
1.95173
1.70979
1.48081
1.24567
0.967729
0.683007
0.424439
0.266023
0.215489
0.109272
-0.0480957
-0.196498
-0.365033
-0.52285
-0.629718
-0.698569
-0.734847
-0.77531
-0.821693
-0.869073
-0.918269
-0.973839
-1.03365
-1.06135
-1.06185
-1.0294
-0.986651
-0.948826
-0.905828
-0.858356
-0.804482
-0.749276
-0.695344
-0.652411
-0.607522
-0.560764
-0.506444
-0.442131
-0.358049
-0.262048
-0.152555
-0.0379172
0.083977
0.204181
0.318189
0.419569
0.512394
0.603665
0.700334
0.792049
0.86222
0.900444
0.92559
0.956075
0.984985
1.00235
1.00842
1.00994
1.01398
1.02426
1.04011
1.06093
1.08504
1.1044
1.11439
1.11491
1.10474
1.08285
1.04763
0.999244
0.930419
0.840966
0.734263
0.616312
0.489034
0.359152
0.208658
0.0929344
0.076106
0.12201
0.355158
0.729447
1.00974
1.36459
1.68097
2.19878
2.64412
3.02832
3.23296
3.27334
3.25605
3.26611
3.27761
3.24781
3.11729
2.91619
2.72064
2.55064
2.39363
2.1513
1.90288
1.65568
1.44091
1.22634
0.94018
0.649069
0.391218
0.247771
0.204179
0.0945309
-0.0651818
-0.211259
-0.370298
-0.523636
-0.627262
-0.691115
-0.72622
-0.767047
-0.813103
-0.859725
-0.907583
-0.964511
-1.02335
-1.04772
-1.04109
-1.00443
-0.961084
-0.923484
-0.880646
-0.833631
-0.781751
-0.728206
-0.676019
-0.633785
-0.589468
-0.542946
-0.489066
-0.425534
-0.342427
-0.247459
-0.139732
-0.0277639
0.091792
0.209353
0.320324
0.41817
0.508015
0.59799
0.693067
0.781444
0.845922
0.880437
0.906889
0.939055
0.967409
0.981803
0.985156
0.985916
0.992103
1.00479
1.02147
1.04475
1.07165
1.09317
1.10802
1.1153
1.10726
1.08482
1.0491
0.999561
0.928919
0.83851
0.730448
0.611903
0.484631
0.35544
0.205958
0.0918182
0.077644
0.129712
0.371309
0.745289
1.01878
1.36409
1.69864
2.22441
2.65021
3.01544
3.20408
3.23687
3.22114
3.23242
3.24759
3.21313
3.07212
2.86664
2.66966
2.5023
2.34471
2.09939
1.85874
1.61482
1.40405
1.20193
0.908611
0.611901
0.359093
0.237302
0.197922
0.0821938
-0.0791375
-0.226336
-0.376119
-0.522859
-0.622328
-0.6815
-0.717007
-0.758527
-0.804154
-0.850428
-0.897011
-0.954964
-1.01238
-1.03348
-1.02026
-0.979942
-0.936165
-0.898766
-0.855913
-0.809298
-0.759268
-0.707292
-0.656692
-0.614998
-0.571242
-0.525028
-0.471445
-0.408602
-0.326412
-0.232253
-0.12681
-0.0172506
0.100237
0.215073
0.322255
0.416249
0.504363
0.593055
0.685301
0.769802
0.82913
0.860666
0.888363
0.921898
0.947913
0.958227
0.960282
0.9618
0.969251
0.983752
1.0008
1.0257
1.05572
1.08098
1.10158
1.11599
1.11008
1.08798
1.05116
0.998494
0.926117
0.834135
0.724757
0.60576
0.478775
0.350672
0.202653
0.0905363
0.0822366
0.141524
0.39113
0.761567
1.02679
1.36812
1.72291
2.24633
2.65404
3.0009
3.17148
3.19755
3.18488
3.19775
3.21544
3.17463
3.02398
2.81501
2.61799
2.45346
2.2933
2.04752
1.81288
1.5818
1.3733
1.17027
0.872389
0.571214
0.327755
0.230754
0.193182
0.0716809
-0.0918693
-0.242934
-0.383171
-0.520165
-0.614477
-0.669811
-0.707015
-0.74934
-0.794421
-0.840515
-0.885665
-0.944181
-1.0001
-1.01813
-0.998927
-0.955597
-0.911567
-0.874269
-0.831199
-0.785046
-0.736722
-0.686281
-0.63707
-0.595867
-0.55273
-0.506892
-0.453482
-0.391287
-0.309889
-0.216694
-0.113566
-0.0060595
0.109492
0.221048
0.323512
0.414667
0.501763
0.588004
0.676747
0.757791
0.811887
0.840453
0.869647
0.904061
0.925877
0.93286
0.933233
0.937533
0.944973
0.960441
0.977692
1.00357
1.03473
1.06576
1.09478
1.11642
1.11331
1.09128
1.05225
0.996293
0.921371
0.826808
0.716455
0.597645
0.471565
0.345022
0.19888
0.0890829
0.0897776
0.156544
0.413033
0.777212
1.03458
1.37668
1.75057
2.26297
2.65516
2.98458
3.13518
3.15645
3.14782
3.16231
3.1816
3.13303
2.97366
2.76247
2.5672
2.40464
2.23861
1.99445
1.76098
1.54987
1.34575
1.13244
0.831652
0.528269
0.300589
0.229488
0.188359
0.0613588
-0.104303
-0.259369
-0.392059
-0.515793
-0.604013
-0.656641
-0.696404
-0.739696
-0.784375
-0.829792
-0.873593
-0.932645
-0.986995
-1.00223
-0.977398
-0.931624
-0.88768
-0.850337
-0.806934
-0.761367
-0.714497
-0.665498
-0.617414
-0.576874
-0.534256
-0.488708
-0.435415
-0.373814
-0.293212
-0.201826
-0.100009
0.00604795
0.119166
0.2265
0.324677
0.414232
0.49961
0.582552
0.668147
0.745725
0.794003
0.81955
0.851032
0.88465
0.901674
0.906216
0.906106
0.910988
0.919251
0.936721
0.95547
0.98097
1.01324
1.04997
1.08789
1.11643
1.11507
1.09126
1.04948
0.99157
0.913311
0.816277
0.705593
0.587752
0.463187
0.338598
0.194689
0.0874446
0.101493
0.176214
0.436535
0.792453
1.04335
1.38948
1.77876
2.27571
2.65338
2.96505
3.09311
3.113
3.10907
3.12514
3.14532
3.08703
2.91973
2.70821
2.5161
2.35382
2.17953
1.93776
1.70697
1.51354
1.31459
1.09014
0.786156
0.483043
0.279312
0.232887
0.181499
0.0488539
-0.117746
-0.27354
-0.401837
-0.5106
-0.591091
-0.642292
-0.684992
-0.729465