/*--------------------------------*- C++ -*----------------------------------*\
| =========                 |                                                 |
| \\      /  F ield         | OpenFOAM: The Open Source CFD Toolbox           |
|  \\    /   O peration     | Version:  4.1                                   |
|   \\  /    A nd           | Web:      www.OpenFOAM.org                      |
|    \\/     M anipulation  |                                                 |
\*---------------------------------------------------------------------------*/
FoamFile
{
    version     2.0;
    format      ascii;
    class       volVectorField;
    location    "6";
    object      U;
}
// * * * * * * * * * * * * * * * * * * * * * * * * * * * * * * * * * * * * * //

dimensions      [0 1 -1 0 0 0 0];

internalField   nonuniform List<vector> 
26785
(
(1.10987e-15 0.00318622 13.4121)
(1.07682e-15 0.00671532 13.2982)
(1.05143e-15 0.00605913 13.1465)
(4.8678e-16 0.00249222 13.0942)
(1.33493e-15 -0.00425031 13.1362)
(3.38228e-16 -0.00628533 13.232)
(7.68476e-16 -0.00920193 13.3858)
(7.90081e-16 -0.0143476 13.6023)
(2.51925e-15 -0.0182874 13.8983)
(3.55778e-16 -0.0190564 14.207)
(9.42143e-16 -0.0169191 14.5026)
(1.09034e-15 -0.0135665 14.7377)
(1.1599e-15 -0.0115323 14.9277)
(1.15419e-15 -0.0088374 15.0726)
(1.15704e-15 -0.00407053 15.1675)
(1.1605e-15 6.06617e-05 15.1902)
(1.19904e-15 0.0031783 15.1571)
(1.26971e-15 0.00514661 15.1049)
(8.92836e-16 0.00703367 15.032)
(1.37655e-15 0.00913065 14.9482)
(1.79271e-15 0.0112451 14.8491)
(1.2203e-15 0.0128891 14.73)
(2.21275e-15 0.0136861 14.6039)
(1.77684e-15 0.0135953 14.4857)
(2.47027e-15 0.014578 14.373)
(1.57221e-15 0.0166479 14.2545)
(1.49818e-15 0.0170952 14.1219)
(1.09673e-15 0.0150622 14.0065)
(1.84114e-15 0.0122333 13.9276)
(2.14216e-15 0.0103345 13.8727)
(2.57185e-15 0.00890966 13.8328)
(5.59215e-16 0.00702243 13.8141)
(9.25687e-16 0.00558861 13.8137)
(1.64515e-16 0.00380841 13.8286)
(2.41931e-15 -0.000621274 13.869)
(1.20484e-15 -0.00861546 13.968)
(1.08689e-15 -0.0164927 14.1382)
(1.03826e-15 -0.0183202 14.3421)
(1.1008e-15 -0.0154194 14.5325)
(9.52265e-16 -0.0122073 14.687)
(2.51333e-15 -0.0101087 14.8114)
(1.13775e-15 -0.00850488 14.913)
(1.48802e-15 -0.00762237 14.996)
(1.10001e-15 -0.00953567 15.0783)
(1.10968e-15 -0.0141463 15.1843)
(-4.64264e-16 -0.017374 15.3197)
(6.70788e-16 -0.0184482 15.4734)
(8.1906e-16 -0.0182071 15.6188)
(9.26271e-16 -0.0170077 15.7496)
(7.23094e-16 -0.0151406 15.8668)
(1.00735e-15 -0.0132263 15.9662)
(1.33219e-15 -0.0116437 16.0516)
(1.21701e-15 -0.0105162 16.1246)
(1.16808e-15 -0.00959312 16.1906)
(1.17931e-15 -0.00862579 16.2486)
(1.24817e-15 -0.00750203 16.3006)
(7.47901e-16 -0.00611956 16.3438)
(1.16213e-15 -0.00468126 16.3783)
(1.26173e-15 -0.00312442 16.4039)
(9.42115e-16 -0.00166019 16.4211)
(1.2692e-15 -0.000137165 16.4293)
(1.35847e-15 0.00115949 16.4295)
(1.36417e-15 0.00232988 16.4228)
(9.26888e-16 0.00307064 16.4111)
(1.45311e-15 0.00364356 16.3964)
(1.54427e-15 0.00404352 16.3797)
(1.54942e-15 0.00453525 16.3613)
(1.53965e-15 0.00488869 16.3409)
(1.5821e-15 0.00518356 16.319)
(1.48979e-15 0.00523821 16.2962)
(1.62773e-15 0.00520272 16.2736)
(1.73636e-15 0.00498222 16.2516)
(1.70047e-15 0.00479018 16.2308)
(1.70413e-15 0.00456453 16.211)
(1.78823e-15 0.00441449 16.1919)
(1.39124e-15 0.00420309 16.1734)
(1.51855e-15 0.00397319 16.1555)
(1.59308e-15 0.00361871 16.1384)
(1.59231e-15 0.00318938 16.1228)
(1.59939e-15 0.00265682 16.1086)
(1.51789e-15 0.00210672 16.0964)
(1.88527e-15 0.00158633 16.0857)
(1.71105e-15 0.00113317 16.0764)
(1.46979e-15 0.000653623 16.0681)
(2.03139e-15 6.96756e-05 16.061)
(1.76799e-15 -0.000641594 16.0557)
(1.62586e-15 -0.00145703 16.0526)
(1.52722e-15 -0.00234232 16.0519)
(1.8742e-15 -0.0032713 16.0539)
(1.62364e-15 -0.00424317 16.0585)
(1.49907e-15 -0.00528462 16.0661)
(1.50199e-15 -0.00639628 16.0768)
(1.46884e-15 -0.00752919 16.091)
(1.44508e-15 -0.00862972 16.1084)
(1.38569e-15 -0.00968482 16.1289)
(1.57402e-15 -0.0106833 16.1523)
(1.45542e-15 -0.0116279 16.1782)
(1.39329e-15 -0.0125741 16.2074)
(1.36032e-15 -0.0178419 16.2401)
(1.35082e-15 -0.0123834 16.2998)
(1.45446e-15 0.0134756 14.4473)
(1.54083e-15 0.0293318 14.3051)
(1.00106e-15 0.0276971 14.1292)
(1.25555e-15 0.0107502 14.1046)
(2.23316e-15 -0.0145273 14.2094)
(9.35712e-17 -0.0237377 14.3821)
(2.07696e-15 -0.0325402 14.6173)
(1.86495e-15 -0.0510245 14.9201)
(9.47077e-16 -0.0627441 15.3042)
(1.4014e-15 -0.0641566 15.6891)
(1.5533e-15 -0.055516 16.0446)
(1.58487e-15 -0.0433676 16.3192)
(1.6568e-15 -0.0365775 16.5386)
(1.39433e-15 -0.0275721 16.7045)
(8.99284e-16 -0.012179 16.812)
(1.92126e-15 0.00168361 16.8381)
(8.16851e-16 0.0111047 16.8065)
(1.8066e-15 0.0169175 16.7619)
(2.00858e-15 0.02227 16.7025)
(1.17865e-15 0.0282248 16.6384)
(1.74066e-15 0.0337578 16.5668)
(1.54714e-15 0.0382147 16.4858)
(1.8446e-15 0.0393019 16.4104)
(1.92792e-15 0.0382488 16.3561)
(1.60933e-15 0.0402309 16.3149)
(3.16117e-15 0.0457814 16.2695)
(2.05186e-15 0.0459221 16.2116)
(1.85369e-15 0.0385021 16.1741)
(1.82364e-15 0.0291891 16.1713)
(2.16694e-15 0.0231599 16.1876)
(1.29251e-15 0.0186206 16.2132)
(1.94585e-15 0.0129929 16.251)
(2.0933e-15 0.00891637 16.2946)
(1.98537e-15 0.00448668 16.3383)
(1.56502e-15 -0.00688108 16.3915)
(2.44654e-15 -0.0281403 16.4887)
(2.15663e-15 -0.049526 16.6481)
(2.14522e-15 -0.0543224 16.8354)
(2.13896e-15 -0.0462037 17.0039)
(2.19799e-15 -0.037402 17.1319)
(1.9781e-15 -0.0316672 17.2253)
(2.32487e-15 -0.0269421 17.2915)
(2.31549e-15 -0.0240974 17.3349)
(2.49323e-15 -0.0292756 17.3704)
(2.67651e-15 -0.0414968 17.4185)
(2.72208e-15 -0.0496466 17.4835)
(1.88716e-15 -0.0520692 17.5568)
(2.61424e-15 -0.0507901 17.617)
(1.92934e-15 -0.0471296 17.6626)
(2.62776e-15 -0.0415367 17.6984)
(1.45184e-15 -0.03601 17.7232)
(2.10903e-15 -0.0312794 17.742)
(2.2914e-15 -0.0280066 17.7565)
(1.60069e-15 -0.0252682 17.7712)
(2.56483e-15 -0.0225742 17.7851)
(2.34609e-15 -0.0195687 17.7996)
(1.68629e-15 -0.0160022 17.8124)
(2.01569e-15 -0.0122729 17.8232)
(2.57835e-15 -0.0083162 17.8317)
(2.24998e-15 -0.00451258 17.8374)
(2.17173e-15 -0.000636933 17.8392)
(1.69244e-15 0.00281991 17.8364)
(2.34013e-15 0.00591837 17.8291)
(2.64161e-15 0.00798418 17.8176)
(2.17308e-15 0.00943048 17.8033)
(2.16692e-15 0.010488 17.7867)
(2.25972e-15 0.0117651 17.7682)
(2.11596e-15 0.0128589 17.7465)
(2.06941e-15 0.0137902 17.7214)
(2.35591e-15 0.014234 17.6925)
(2.28415e-15 0.014381 17.6601)
(1.84022e-15 0.0141297 17.6244)
(2.46472e-15 0.0138781 17.5853)
(2.56735e-15 0.0136316 17.5425)
(2.11662e-15 0.0135651 17.4956)
(2.46809e-15 0.0134571 17.4439)
(2.37539e-15 0.0133079 17.3874)
(2.32527e-15 0.0129383 17.3258)
(2.07859e-15 0.0123753 17.2596)
(2.32966e-15 0.0116095 17.1888)
(2.32299e-15 0.0107802 17.1137)
(2.36802e-15 0.010089 17.034)
(2.46267e-15 0.00961249 16.9494)
(2.51016e-15 0.00915945 16.8594)
(2.19472e-15 0.00848533 16.7641)
(2.01659e-15 0.00753619 16.664)
(2.53146e-15 0.00633962 16.5599)
(2.47709e-15 0.00496793 16.4521)
(1.91302e-15 0.00346573 16.3413)
(2.16949e-15 0.00182481 16.2278)
(2.26656e-15 -2.28034e-05 16.1122)
(2.23458e-15 -0.00209439 15.9952)
(2.12428e-15 -0.00424383 15.8776)
(2.63799e-15 -0.00637148 15.7598)
(2.29547e-15 -0.00835598 15.6422)
(2.14798e-15 -0.0103721 15.5248)
(2.19409e-15 -0.0120982 15.4088)
(2.18894e-15 -0.0137238 15.2921)
(2.09187e-15 -0.0237727 15.185)
(2.05231e-15 -0.0167461 15.0391)
(1.59314e-15 0.0257384 15.6612)
(1.14544e-15 0.0495057 15.5873)
(1.87323e-15 0.0454856 15.5149)
(8.78123e-16 0.0138908 15.5906)
(1.84664e-15 -0.0255552 15.7784)
(9.19813e-16 -0.0420749 16.0205)
(2.65788e-15 -0.0546278 16.3036)
(2.30536e-15 -0.0850396 16.6353)
(2.22148e-15 -0.101959 17.0253)
(2.13097e-15 -0.103559 17.403)
(2.13635e-15 -0.0880043 17.7433)
(2.12095e-15 -0.0669433 18.0021)
(2.10307e-15 -0.0550053 18.207)
(2.17944e-15 -0.0390413 18.361)
(1.86804e-15 -0.0135012 18.4587)
(1.80946e-15 0.00966876 18.4817)
(2.04558e-15 0.0237768 18.4566)
(2.09692e-15 0.031896 18.4273)
(1.15287e-15 0.0388296 18.3924)
(2.24874e-15 0.0469912 18.3587)
(3.08135e-15 0.0541935 18.3214)
(1.23742e-15 0.0597942 18.2766)
(1.37146e-15 0.0595845 18.2356)
(2.96894e-15 0.0561747 18.2096)
(2.48832e-15 0.0580665 18.1862)
(2.12678e-15 0.0664213 18.144)
(3.32818e-15 0.066715 18.0713)
(2.57141e-15 0.0555431 17.9947)
(2.41385e-15 0.0418997 17.927)
(2.47184e-15 0.0337084 17.8523)
(2.37969e-15 0.0279462 17.7592)
(1.62837e-15 0.0205325 17.6512)
(2.99522e-15 0.0154949 17.5251)
(4.63063e-15 0.010099 17.3794)
(2.49038e-15 -0.00659701 17.2316)
(2.59879e-15 -0.0387126 17.1271)
(2.63957e-15 -0.0713698 17.0876)
(2.66413e-15 -0.0779422 17.075)
(2.68519e-15 -0.0646432 17.0342)
(2.58946e-15 -0.0506393 16.9383)
(2.53009e-15 -0.0416164 16.7962)
(2.45744e-15 -0.0336112 16.6221)
(2.54899e-15 -0.0264128 16.414)
(2.57194e-15 -0.0298811 16.167)
(2.54438e-15 -0.0448297 15.8933)
(2.39404e-15 -0.0542632 15.6087)
(2.35368e-15 -0.0553808 15.3244)
(2.40105e-15 -0.0526938 15.0375)
(2.50568e-15 -0.0471109 14.7623)
(2.58239e-15 -0.0410433 14.5171)
(2.56829e-15 -0.0359712 14.3052)
(2.5346e-15 -0.0331657 14.1326)
(2.45711e-15 -0.0326617 13.9973)
(2.41784e-15 -0.0329551 13.9005)
(2.51928e-15 -0.033287 13.8359)
(2.06165e-15 -0.0327585 13.8008)
(2.28941e-15 -0.0316176 13.7892)
(2.68776e-15 -0.0296091 13.7986)
(2.62855e-15 -0.027241 13.8263)
(2.88095e-15 -0.0242197 13.869)
(2.41705e-15 -0.0208571 13.9223)
(2.3722e-15 -0.016986 13.9821)
(2.43076e-15 -0.0132092 14.0448)
(2.36026e-15 -0.0100242 14.1067)
(2.126e-15 -0.00784109 14.1664)
(2.59763e-15 -0.00589538 14.2245)
(2.71239e-15 -0.00362129 14.2816)
(2.29947e-15 -0.000832055 14.3355)
(2.34071e-15 0.00207665 14.3837)
(2.3517e-15 0.00493815 14.4246)
(2.28474e-15 0.00750883 14.4569)
(2.33462e-15 0.00988639 14.4795)
(2.39407e-15 0.0122439 14.4922)
(2.13322e-15 0.0149146 14.4943)
(1.9217e-15 0.017967 14.4854)
(1.96843e-15 0.0213569 14.4641)
(2.03869e-15 0.024806 14.4298)
(2.06189e-15 0.0281799 14.382)
(2.06881e-15 0.031305 14.3206)
(2.0753e-15 0.0342675 14.2455)
(2.10374e-15 0.0370993 14.1566)
(1.82621e-15 0.0402498 14.0538)
(2.52521e-15 0.0438603 13.9367)
(2.40416e-15 0.0476747 13.8041)
(2.20271e-15 0.0511567 13.6561)
(2.10756e-15 0.0541405 13.4931)
(2.08265e-15 0.056617 13.3164)
(2.06226e-15 0.0586681 13.1268)
(1.90777e-15 0.0603025 12.9254)
(2.55677e-15 0.0614358 12.7133)
(2.1217e-15 0.0619378 12.4913)
(1.82241e-15 0.0616803 12.2607)
(2.36117e-15 0.0609429 12.0232)
(2.09004e-15 0.0598231 11.7799)
(1.8328e-15 0.0586727 11.5321)
(1.72302e-15 0.0570286 11.2804)
(1.96931e-15 0.0554239 11.0257)
(1.71483e-15 0.0537625 10.7683)
(1.59039e-15 0.0472996 10.5329)
(1.54452e-15 0.037147 10.1582)
(1.82642e-15 0.0401889 16.909)
(1.73571e-15 0.0671354 16.8917)
(2.31108e-15 0.0597202 16.8864)
(2.56187e-15 0.0150648 17.0041)
(2.13148e-15 -0.0381601 17.2028)
(3.13652e-15 -0.0600699 17.4295)
(2.84443e-15 -0.0756533 17.6713)
(1.60548e-15 -0.115852 17.9391)
(2.48509e-15 -0.137363 18.2457)
(2.69727e-15 -0.139014 18.5333)
(2.64873e-15 -0.117492 18.7907)
(2.5765e-15 -0.089005 18.987)
(2.5313e-15 -0.0730638 19.1443)
(2.48522e-15 -0.0517507 19.2658)
(2.65224e-15 -0.0169574 19.3476)
(2.32182e-15 0.0142112 19.3683)
(2.65092e-15 0.0324502 19.3473)
(2.0487e-15 0.0417912 19.3225)
(2.09858e-15 0.0498463 19.2935)
(2.65093e-15 0.0598713 19.2648)
(2.83562e-15 0.0695231 19.2233)
(2.03191e-15 0.0776672 19.1545)
(2.22651e-15 0.0785233 19.0615)
(2.36073e-15 0.0753658 18.9503)
(2.38512e-15 0.0801608 18.8118)
(2.39238e-15 0.0948819 18.6263)
(2.44061e-15 0.0999446 18.3752)
(2.48744e-15 0.0895303 18.0813)
(2.55876e-15 0.0757358 17.7668)
(2.44649e-15 0.0700244 17.4155)
(1.31859e-15 0.0682035 17.0099)
(1.29492e-15 0.0640595 16.5617)
(3.20515e-15 0.0625272 16.0769)
(3.23236e-15 0.0595707 15.5554)
(4.2765e-15 0.0375989 15.0276)
(2.34312e-15 -0.00879214 14.569)
(2.51572e-15 -0.0565518 14.2155)
(2.29263e-15 -0.0632465 13.9085)
(2.86251e-15 -0.0393115 13.5505)
(3.8597e-15 -0.0151783 13.0901)
(9.74077e-16 -0.000471937 12.5492)
(1.78792e-15 0.0116515 11.9732)
(2.64715e-15 0.0264798 11.3549)
(4.03809e-15 0.029717 10.6415)
(3.67086e-16 0.0193023 9.81722)
(1.54159e-16 0.0188646 8.93677)
(4.73997e-16 0.0221063 8.09386)
(1.69208e-15 0.0132925 7.35594)
(1.91104e-15 0.00198761 6.76603)
(-1.02255e-15 -0.0153562 6.33769)
(1.70852e-15 -0.0336596 6.04512)
(-5.11946e-16 -0.054562 5.87312)
(2.07342e-15 -0.0755134 5.79856)
(2.62752e-15 -0.0941589 5.80886)
(2.13641e-15 -0.109591 5.8817)
(2.12298e-15 -0.120344 6.00312)
(1.24912e-15 -0.128695 6.15631)
(2.80517e-15 -0.133388 6.33326)
(2.23694e-15 -0.136825 6.52886)
(2.68578e-15 -0.137376 6.73902)
(2.06461e-15 -0.136642 6.95809)
(2.494e-15 -0.133098 7.18202)
(2.19336e-15 -0.128656 7.40738)
(2.02552e-15 -0.123241 7.63033)
(2.02545e-15 -0.119118 7.84876)
(1.84316e-15 -0.114871 8.06404)
(1.75947e-15 -0.110137 8.27787)
(1.85776e-15 -0.103637 8.48793)
(2.4515e-15 -0.096478 8.69186)
(2.64103e-15 -0.0884165 8.88775)
(2.24849e-15 -0.0803321 9.07401)
(2.23466e-15 -0.0719394 9.24883)
(1.61263e-15 -0.0635291 9.41185)
(2.1201e-15 -0.0542604 9.56232)
(3.02739e-15 -0.0442538 9.69882)
(2.31625e-15 -0.0333955 9.81962)
(2.32346e-15 -0.0223281 9.92407)
(1.87749e-15 -0.0110481 10.0111)
(2.23791e-15 3.77026e-05 10.0807)
(2.12444e-15 0.0110475 10.1319)
(2.01062e-15 0.021879 10.1652)
(1.94349e-15 0.0330773 10.1793)
(1.81501e-15 0.0449285 10.1737)
(2.85407e-15 0.0571616 10.147)
(2.16619e-15 0.0689433 10.0994)
(1.81753e-15 0.0800253 10.0314)
(1.12701e-15 0.0903137 9.94421)
(1.51778e-15 0.0997525 9.83906)
(1.54062e-15 0.108335 9.71803)
(2.61295e-15 0.115989 9.58219)
(1.09748e-15 0.122459 9.43283)
(1.07829e-15 0.127443 9.27157)
(1.70863e-15 0.13138 9.10083)
(1.46641e-15 0.134402 8.92192)
(1.57454e-15 0.136868 8.73643)
(1.0712e-15 0.138562 8.54648)
(1.07306e-15 0.139281 8.35039)
(8.30875e-16 0.139284 8.15144)
(1.01853e-15 0.143132 7.97762)
(1.13894e-15 0.111688 7.68366)
(2.22537e-15 0.05595 18.0129)
(2.26825e-15 0.0836019 18.0059)
(2.30756e-15 0.0740717 17.9694)
(1.97657e-15 0.0187079 18.0093)
(3.02286e-15 -0.0469511 18.1013)
(2.09338e-15 -0.0726191 18.1984)
(3.45139e-15 -0.0902678 18.2852)
(3.31317e-15 -0.139017 18.3668)
(3.3103e-15 -0.165781 18.4603)
(3.08402e-15 -0.169794 18.5242)
(2.8699e-15 -0.146751 18.5798)
(3.66074e-15 -0.115561 18.6201)
(3.18564e-15 -0.0993598 18.6538)
(3.5585e-15 -0.0767547 18.6835)
(2.36491e-15 -0.0353732 18.7127)
(2.13715e-15 0.0018043 18.71)
(2.92107e-15 0.0240823 18.6751)
(2.97974e-15 0.0343654 18.6357)
(3.0064e-15 0.0435572 18.5977)
(3.089e-15 0.0561068 18.5663)
(3.24429e-15 0.0708787 18.5155)
(2.34291e-15 0.0859939 18.4147)
(2.42687e-15 0.0936918 18.2566)
(2.52141e-15 0.0965296 18.0444)
(2.44921e-15 0.110553 17.7772)
(2.14938e-15 0.138913 17.4423)
(3.26158e-15 0.15624 17.0124)
(1.61579e-15 0.153032 16.5157)
(2.25389e-15 0.145163 15.9939)
(2.36666e-15 0.149251 15.425)
(2.39332e-15 0.158768 14.7745)
(2.12984e-15 0.16421 14.0756)
(1.34228e-15 0.173838 13.3469)
(-5.7138e-17 0.183187 12.5753)
(2.42898e-15 0.161183 11.7863)
(-2.5287e-16 0.0874034 11.1064)
(8.71785e-16 -0.00160901 10.641)
(8.88248e-16 -0.0132288 10.2915)
(9.28988e-16 0.0380609 9.86962)
(8.50308e-16 0.0942515 9.22937)
(9.95557e-16 0.126191 8.37891)
(1.16132e-15 0.150479 7.42968)
(-1.22768e-14 0.18988 6.28441)
(-2.28547e-15 0.226475 4.90952)
(-3.27279e-15 0.221857 3.56749)
(-2.96517e-15 0.200863 2.62464)
(-2.33959e-15 0.145392 2.16567)
(-1.5585e-15 0.0627572 2.02857)
(-1.08558e-16 -0.000996588 2.07256)
(-2.33027e-15 -0.0552259 2.20714)
(1.31501e-15 -0.0982447 2.37045)
(1.914e-15 -0.138882 2.55197)
(2.6109e-15 -0.175551 2.7442)
(3.12265e-15 -0.205706 2.95325)
(2.73462e-15 -0.228589 3.16919)
(3.64996e-15 -0.242757 3.38837)
(2.52492e-15 -0.252891 3.59975)
(2.18723e-15 -0.258058 3.80334)
(9.40283e-16 -0.262434 4.00185)
(1.53571e-15 -0.263465 4.19729)
(3.94517e-16 -0.26338 4.3886)
(2.76132e-15 -0.25958 4.57654)
(1.41788e-15 -0.254743 4.76209)
(1.5667e-15 -0.24826 4.94514)
(1.38606e-15 -0.243768 5.12554)
(6.38309e-16 -0.239617 5.30591)
(1.25417e-15 -0.235315 5.4906)
(1.35335e-15 -0.228389 5.67907)
(1.81836e-15 -0.220284 5.86903)
(1.42233e-15 -0.210461 6.05822)
(2.30608e-15 -0.200149 6.24533)
(2.61136e-15 -0.188925 6.42836)
(1.47512e-15 -0.177475 6.60672)
(1.20627e-15 -0.164521 6.78022)
(2.7347e-15 -0.150013 6.94797)
(2.77197e-15 -0.133734 7.10708)
(3.51439e-15 -0.116705 7.25535)
(2.56854e-15 -0.0990116 7.39081)
(2.60257e-15 -0.0812455 7.51329)
(1.63145e-15 -0.0633033 7.62179)
(1.12858e-15 -0.0455201 7.71623)
(2.22112e-15 -0.0267559 7.79715)
(2.3767e-15 -0.0062989 7.86273)
(1.79113e-15 0.015378 7.90946)
(2.99016e-15 0.0368411 7.93481)
(2.29298e-15 0.057364 7.9386)
(1.91588e-15 0.0765992 7.92272)
(1.66304e-15 0.0943305 7.88878)
(1.73487e-15 0.110632 7.83875)
(4.72116e-16 0.12565 7.77338)
(9.30245e-16 0.138882 7.6931)
(9.80611e-16 0.149699 7.59953)
(1.83567e-15 0.158583 7.49566)
(1.46241e-15 0.165893 7.38395)
(1.14658e-15 0.171949 7.26608)
(6.37178e-16 0.177078 7.14417)
(7.32996e-16 0.180896 7.01569)
(8.48729e-16 0.183107 6.88223)
(1.40751e-15 0.189833 6.77026)
(9.42162e-16 0.156023 6.56197)
(2.58689e-15 0.070664 18.7626)
(2.46014e-15 0.101221 18.6288)
(2.73929e-15 0.0932962 18.4234)
(2.94365e-15 0.0294386 18.2803)
(3.35726e-15 -0.0496488 18.1836)
(3.35016e-15 -0.0777288 18.0637)
(4.0956e-15 -0.0964338 17.8824)
(4.36145e-15 -0.150937 17.6178)
(3.37585e-15 -0.183127 17.2972)
(2.01788e-15 -0.193026 16.9116)
(2.62118e-15 -0.176393 16.5574)
(4.27638e-15 -0.150994 16.2748)
(2.96706e-15 -0.141469 16.0473)
(2.91262e-15 -0.1255 15.8777)
(2.8957e-15 -0.0843728 15.7974)
(2.99864e-15 -0.045825 15.7663)
(2.79192e-15 -0.0205715 15.7478)
(3.21155e-15 -0.0100508 15.7453)
(3.75312e-15 -6.87103e-05 15.7727)
(2.69908e-15 0.0154948 15.8353)
(2.69441e-15 0.0383735 15.8902)
(2.64475e-15 0.065793 15.8927)
(2.47167e-15 0.087924 15.8269)
(7.59667e-16 0.103616 15.6868)
(3.17843e-15 0.134186 15.4796)
(2.72338e-15 0.184887 15.1819)
(2.42041e-15 0.220839 14.7628)
(2.31221e-15 0.22642 14.2721)
(2.2428e-15 0.22613 13.7756)
(3.83569e-15 0.246594 13.2511)
(2.96181e-15 0.274416 12.6304)
(4.31935e-15 0.286977 11.9455)
(-3.39009e-16 0.300943 11.2531)
(1.65149e-15 0.315162 10.5621)
(2.62197e-15 0.285528 9.92453)
(-1.59425e-15 0.186264 9.43112)
(-1.75974e-15 0.0614737 8.95557)
(8.40572e-16 0.0433038 8.28424)
(3.90686e-16 0.135783 7.43049)
(1.34018e-15 0.243636 6.48119)
(-2.1169e-14 0.306885 5.48362)
(-4.83596e-15 0.365447 4.51572)
(-3.69449e-15 0.473309 3.39611)
(-2.37929e-14 0.491956 2.69371)
(-5.91753e-15 0.386343 2.09272)
(-3.68634e-15 0.251187 1.84618)
(-2.79159e-15 0.11153 1.8958)
(-1.37067e-15 -0.0089001 2.05752)
(-7.59686e-17 -0.0838709 2.25121)
(1.58398e-15 -0.130388 2.44414)
(3.1868e-15 -0.16353 2.61254)
(4.49755e-15 -0.196482 2.76554)
(4.59076e-15 -0.229781 2.90909)
(3.83535e-15 -0.258887 3.05874)
(2.76281e-15 -0.280918 3.211)
(2.0992e-15 -0.293452 3.36444)
(1.817e-15 -0.301095 3.50652)
(1.85885e-15 -0.304629 3.63671)
(1.14451e-15 -0.308256 3.75844)
(1.25585e-15 -0.309483 3.875)
(1.35862e-15 -0.30983 3.98539)
(2.63695e-15 -0.306847 4.09117)
(1.32232e-15 -0.302979 4.19458)
(1.00901e-15 -0.297798 4.29652)
(6.26866e-16 -0.295395 4.39666)
(2.00724e-15 -0.294631 4.4979)
(1.24984e-15 -0.29455 4.60626)
(-2.52946e-16 -0.291613 4.72302)
(1.35738e-15 -0.286801 4.84711)
(2.65289e-15 -0.279525 4.97673)
(4.74708e-16 -0.271054 5.11062)
(1.39701e-15 -0.261112 5.24586)
(7.95978e-16 -0.250605 5.38144)
(1.44614e-15 -0.238212 5.51808)
(1.20945e-15 -0.223452 5.65566)
(1.30128e-16 -0.205706 5.79129)
(4.94294e-16 -0.186272 5.92264)
(1.67626e-17 -0.165574 6.04723)
(8.13533e-18 -0.144407 6.16469)
(-5.52767e-17 -0.122636 6.27358)
(6.06666e-16 -0.100829 6.37331)
(1.32608e-15 -0.0776126 6.46407)
(-4.93685e-16 -0.0515025 6.54512)
(-1.07638e-15 -0.0227352 6.61288)
(-1.39693e-16 0.00663434 6.66384)
(1.14734e-15 0.0349891 6.69658)
(1.60898e-15 0.0615593 6.71193)
(1.31754e-15 0.0861135 6.71055)
(9.09253e-16 0.108859 6.69438)
(1.17661e-15 0.130316 6.66443)
(5.29783e-16 0.149831 6.62036)
(2.83294e-16 0.166226 6.56259)
(1.51801e-15 0.17978 6.49357)
(1.7604e-15 0.191038 6.41528)
(2.30228e-16 0.200473 6.32873)
(3.63096e-16 0.208835 6.23627)
(1.01691e-15 0.215994 6.13597)
(1.20788e-15 0.221045 6.02906)
(7.55497e-16 0.23147 5.9364)
(1.03032e-15 0.198083 5.74878)
(2.89079e-15 0.0845056 18.6977)
(2.89278e-15 0.120635 18.4445)
(2.53498e-15 0.116482 18.0879)
(3.2254e-15 0.0449062 17.764)
(3.62179e-15 -0.0472277 17.4366)
(3.36336e-15 -0.0719368 16.9914)
(2.99035e-15 -0.0848233 16.3559)
(2.87156e-15 -0.137354 15.4709)
(1.23195e-15 -0.172222 14.4187)
(1.12313e-15 -0.192779 13.2766)
(3.41208e-15 -0.195824 12.2883)
(2.43993e-15 -0.190197 11.5437)
(2.43688e-15 -0.199019 10.9732)
(2.49154e-15 -0.2034 10.5801)
(2.22721e-15 -0.176564 10.4294)
(1.92823e-15 -0.148473 10.4657)
(3.45929e-15 -0.125077 10.5964)
(2.76538e-15 -0.11712 10.7781)
(2.2784e-15 -0.108339 11.0258)
(1.57484e-15 -0.0894973 11.3373)
(2.18191e-15 -0.0564825 11.6438)
(3.75874e-15 -0.0153165 11.8978)
(2.14208e-15 0.0242036 12.0945)
(1.92422e-15 0.0570811 12.2033)
(2.06772e-15 0.105528 12.2148)
(1.91654e-15 0.179893 12.153)
(4.03028e-15 0.239871 11.9771)
(4.26976e-15 0.257885 11.6773)
(1.06591e-15 0.260504 11.3458)
(2.6176e-15 0.293795 11.0151)
(1.73461e-15 0.345246 10.6135)
(1.43182e-15 0.376609 10.1192)
(1.04394e-15 0.40501 9.52615)
(9.85814e-16 0.426788 8.85615)
(-2.42713e-15 0.374058 8.24684)
(-1.77563e-15 0.257593 8.02917)
(2.25786e-15 0.160946 7.75621)
(-2.18801e-16 0.212044 6.95836)
(-3.54541e-16 0.32435 6.075)
(9.36707e-16 0.418866 5.29276)
(-2.58707e-15 0.463949 4.53353)
(-2.93404e-15 0.525314 3.8047)
(-7.29744e-15 0.639357 2.92303)
(-6.97264e-15 0.601963 2.22743)
(-4.22457e-15 0.427757 1.68094)
(-3.36621e-15 0.236329 1.57399)
(-2.89031e-15 0.0644292 1.72454)
(1.14969e-15 -0.0679762 1.92747)
(2.56158e-15 -0.144646 2.12468)
(8.25189e-15 -0.184571 2.30394)
(5.28153e-15 -0.211673 2.45268)
(4.15287e-15 -0.241313 2.58324)
(1.61955e-15 -0.274952 2.70416)
(1.82773e-16 -0.305871 2.83321)
(7.62299e-17 -0.328957 2.96703)
(3.61607e-16 -0.340691 3.10289)
(5.05802e-16 -0.345766 3.22744)
(2.32243e-15 -0.346762 3.33943)
(-1.33059e-16 -0.348239 3.44123)
(1.10139e-15 -0.347856 3.53568)
(1.37597e-15 -0.346514 3.62124)
(1.53918e-15 -0.342328 3.69928)
(1.99817e-15 -0.3376 3.77204)
(3.16132e-15 -0.332085 3.84142)
(2.44548e-15 -0.3301 3.90698)
(3.30886e-15 -0.33143 3.97107)
(2.36745e-15 -0.334689 4.04027)
(1.32008e-15 -0.335514 4.1173)
(2.40526e-15 -0.334179 4.20251)
(3.64616e-15 -0.329932 4.29496)
(3.06676e-15 -0.32377 4.39359)
(1.58663e-15 -0.315463 4.49571)
(3.16317e-15 -0.306605 4.59967)
(2.86863e-15 -0.296128 4.70624)
(3.82051e-16 -0.282807 4.81602)
(-5.86234e-16 -0.26565 4.92688)
(5.42821e-16 -0.24599 5.03707)
(-7.22522e-16 -0.224437 5.14425)
(-7.2045e-16 -0.201903 5.24805)
(2.11535e-16 -0.178235 5.3469)
(7.75303e-16 -0.154486 5.44016)
(-4.67185e-16 -0.12932 5.52766)
(-4.1352e-16 -0.100013 5.60948)
(-8.84712e-16 -0.0665474 5.68172)
(-8.8391e-16 -0.0312117 5.74114)
(-2.04219e-16 0.00364259 5.78524)
(5.01989e-16 0.036822 5.81412)
(7.61161e-16 0.0677747 5.8281)
(-1.47475e-16 0.0965296 5.8284)
(1.24787e-15 0.123993 5.81538)
(7.57355e-17 0.149535 5.78875)
(5.02109e-16 0.171497 5.74856)
(2.24073e-15 0.189935 5.69691)
(1.98433e-15 0.20555 5.63569)
(1.76879e-15 0.21883 5.56593)
(4.95358e-16 0.230678 5.48933)
(6.77956e-16 0.241387 5.40343)
(8.7584e-16 0.250042 5.31102)
(1.19105e-15 0.26551 5.22782)
(1.02631e-15 0.233339 5.05913)
(2.86363e-15 0.0971632 18.15)
(3.13181e-15 0.138834 17.7666)
(3.15987e-15 0.14143 17.2102)
(2.48311e-15 0.067021 16.6014)
(3.2825e-15 -0.0320956 15.884)
(2.87301e-15 -0.0413232 14.9006)
(2.70853e-15 -0.0351688 13.553)
(9.38753e-16 -0.0744872 11.7655)
(1.22477e-15 -0.112233 9.80241)
(1.27586e-15 -0.157329 7.93153)
(1.08898e-15 -0.202841 6.55064)
(1.32216e-15 -0.235639 5.6714)
(1.43834e-15 -0.277183 5.12202)
(1.19879e-15 -0.316728 4.87082)
(1.25651e-15 -0.316512 4.94442)
(1.10019e-15 -0.309011 5.23845)
(1.78933e-15 -0.291223 5.6203)
(1.22503e-15 -0.287436 6.04187)
(1.6278e-15 -0.280259 6.50751)
(1.9264e-15 -0.259859 7.01184)
(2.3819e-15 -0.21788 7.52218)
(2.74896e-15 -0.162864 7.99298)
(1.13782e-15 -0.106563 8.40282)
(-2.58889e-17 -0.0566906 8.75006)
(1.3065e-15 0.0135024 9.04437)
(1.43037e-15 0.115504 9.279)
(4.57211e-15 0.207612 9.37471)
(1.71154e-15 0.251195 9.28059)
(1.35376e-15 0.262489 9.11586)
(1.50329e-15 0.303308 8.99219)
(1.88558e-15 0.374903 8.85226)
(2.26683e-15 0.431837 8.58818)
(2.01631e-15 0.48575 8.16364)
(1.48659e-15 0.522861 7.63057)
(-3.02991e-15 0.430057 7.18212)
(-1.83539e-15 0.275118 7.33334)
(3.34911e-15 0.261688 6.78701)
(-1.2252e-15 0.35973 5.88467)
(-9.31193e-16 0.464313 5.20465)
(2.669e-16 0.564844 4.54841)
(-2.63082e-14 0.61053 3.81724)
(-5.29315e-15 0.687903 3.13681)
(-7.88463e-15 0.850034 2.34247)
(-5.94686e-15 0.725274 1.64956)
(-3.41015e-15 0.448157 1.27128)
(-2.95172e-15 0.199233 1.33729)
(-2.05335e-15 0.00578547 1.56394)
(-1.53786e-15 -0.131256 1.77682)
(1.62798e-15 -0.204579 1.95628)
(2.14316e-15 -0.235922 2.10882)
(-1.52929e-15 -0.25633 2.22894)
(-9.05431e-16 -0.283559 2.33195)
(-2.14694e-15 -0.319327 2.43015)
(-1.98813e-15 -0.353832 2.5429)
(-1.32637e-15 -0.379197 2.66507)
(-7.40785e-16 -0.390695 2.79137)
(-2.39022e-15 -0.393299 2.90731)
(4.14478e-16 -0.391175 3.01087)
(-6.44974e-16 -0.389623 3.10401)
(1.24187e-15 -0.386587 3.18971)
(4.20493e-16 -0.382527 3.2657)
(9.62915e-16 -0.375974 3.33235)
(1.95946e-15 -0.369323 3.39106)
(2.66498e-15 -0.362543 3.44389)
(3.42615e-15 -0.360038 3.49061)
(3.72799e-15 -0.362298 3.53397)
(3.92043e-15 -0.367678 3.58116)
(5.08809e-15 -0.371232 3.63544)
(4.21992e-15 -0.372583 3.69792)
(5.34806e-15 -0.370777 3.76809)
(5.61681e-15 -0.366567 3.84461)
(4.08191e-15 -0.359753 3.92473)
(3.65568e-15 -0.352321 4.00752)
(3.71837e-15 -0.343597 4.09349)
(2.61879e-15 -0.331695 4.18333)
(3.15134e-15 -0.315341 4.27514)
(2.78328e-15 -0.295936 4.3677)
(2.08228e-15 -0.274144 4.4592)
(2.05768e-15 -0.250948 4.54943)
(1.81794e-15 -0.226185 4.63657)
(1.83393e-15 -0.201111 4.72014)
(2.62006e-15 -0.175164 4.80042)
(3.40688e-15 -0.143765 4.87704)
(2.4076e-15 -0.107033 4.94585)
(2.19924e-16 -0.0671673 5.00484)
(1.25895e-15 -0.0270891 5.05113)
(1.38649e-15 0.0114642 5.0844)
(1.40174e-15 0.0477743 5.10494)
(1.86129e-15 0.0819243 5.11358)
(5.60098e-16 0.114971 5.10948)
(9.28932e-16 0.146056 5.09211)
(2.71889e-15 0.173131 5.06208)
(3.4344e-15 0.196102 5.02155)
(1.35415e-15 0.215807 4.97208)
(-3.12837e-16 0.232883 4.91439)
(9.13727e-16 0.248538 4.85014)
(6.32441e-16 0.263223 4.77484)
(9.77684e-16 0.275911 4.69322)
(8.68949e-16 0.296459 4.61745)
(8.2076e-16 0.265668 4.4659)
(2.8712e-15 0.104565 17.115)
(2.96226e-15 0.156076 16.5348)
(2.57912e-15 0.174531 15.6677)
(3.09217e-15 0.108229 14.6491)
(2.64587e-15 0.00986373 13.4291)
(1.72264e-15 0.03147 11.8324)
(2.48899e-15 0.0694928 9.76932)
(8.71443e-16 0.0474243 7.26054)
(-2.91264e-16 -0.0121226 4.99296)
(2.45334e-15 -0.113478 3.4061)
(-2.96464e-16 -0.218444 2.65378)
(-4.71468e-16 -0.288231 2.37713)
(1.31627e-17 -0.358147 2.31801)
(-3.18417e-17 -0.427479 2.42819)
(2.5143e-16 -0.445087 2.7177)
(1.10973e-15 -0.452586 3.11112)
(1.3597e-15 -0.435947 3.52521)
(2.52027e-15 -0.436181 3.92872)
(8.49928e-16 -0.432987 4.36515)
(3.77895e-15 -0.415469 4.85437)
(2.4923e-15 -0.37106 5.3645)
(2.9236e-15 -0.307018 5.8474)
(1.63887e-16 -0.233944 6.28448)
(3.43124e-15 -0.173811 6.6795)
(2.96484e-15 -0.0917458 7.04192)
(-8.46153e-16 0.0338914 7.36897)
(-7.88931e-16 0.160032 7.57511)
(4.23118e-15 0.231801 7.57637)
(2.47387e-15 0.245587 7.48635)
(2.62725e-15 0.281155 7.49512)
(6.56271e-15 0.36987 7.52724)
(1.85709e-15 0.460609 7.377)
(2.30896e-15 0.548682 7.04482)
(3.3851e-16 0.594653 6.62329)
(-1.9492e-15 0.451915 6.42385)
(1.23805e-14 0.305744 6.30391)
(2.9316e-15 0.411444 5.45395)
(-2.20225e-15 0.471268 4.82848)
(-1.29323e-15 0.577157 4.40277)
(-5.3994e-16 0.710225 3.82237)
(-1.414e-15 0.753267 3.07927)
(-9.68439e-16 0.835041 2.49424)
(-6.07398e-15 1.03765 1.86574)
(-5.09997e-15 0.805617 1.27157)
(-2.38051e-15 0.437452 1.07923)
(-1.53067e-15 0.151178 1.25183)
(-6.46883e-16 -0.0498727 1.49225)
(2.7901e-17 -0.185463 1.67924)
(-1.35398e-16 -0.253129 1.82484)
(-9.28341e-16 -0.275664 1.94366)
(-1.18508e-15 -0.290163 2.03096)
(-1.148e-15 -0.316947 2.10389)
(-1.35874e-15 -0.357235 2.17931)
(-1.26833e-15 -0.397271 2.27773)
(-7.18875e-16 -0.426015 2.3907)
(-5.76077e-16 -0.437755 2.51022)
(-2.65311e-15 -0.437728 2.62072)
(-1.22643e-15 -0.432 2.7189)
(-1.4196e-15 -0.427365 2.80659)
(-1.3423e-15 -0.421835 2.8877)
(-6.49512e-16 -0.415032 2.95925)
(9.63333e-16 -0.405648 3.02005)
(1.86181e-15 -0.396318 3.0705)
(2.46248e-15 -0.387391 3.11229)
(2.48706e-15 -0.383692 3.14525)
(3.93748e-15 -0.386468 3.17328)
(2.72513e-15 -0.393703 3.2045)
(3.70443e-15 -0.399801 3.24269)
(4.72354e-15 -0.403795 3.28959)
(5.0716e-15 -0.404337 3.34456)
(5.57853e-15 -0.401894 3.40538)
(4.44285e-15 -0.396693 3.46965)
(4.35684e-15 -0.390841 3.53718)
(4.12623e-15 -0.38405 3.60836)
(4.8024e-15 -0.37366 3.68399)
(4.97444e-15 -0.358154 3.76178)
(3.9253e-15 -0.339253 3.84085)
(2.73031e-15 -0.317582 3.91984)
(1.50976e-15 -0.294056 3.99858)
(9.00437e-16 -0.268561 4.07495)
(2.04724e-15 -0.242818 4.14885)
(4.56287e-15 -0.216793 4.22162)
(3.7507e-15 -0.183852 4.29135)
(6.29303e-16 -0.144434 4.35416)
(2.56567e-15 -0.101018 4.40875)
(4.14148e-15 -0.0566537 4.4528)
(2.75326e-15 -0.013601 4.48551)
(1.8086e-15 0.0272001 4.50751)
(1.62639e-15 0.0661767 4.51943)
(1.62399e-15 0.104614 4.51902)
(1.27515e-15 0.140842 4.50571)
(1.95351e-15 0.172312 4.48099)
(2.69212e-15 0.199179 4.44707)
(1.98808e-15 0.222561 4.40508)
(2.36759e-15 0.243104 4.35555)
(4.93686e-16 0.26263 4.30004)
(-1.88818e-16 0.281567 4.23217)
(6.88591e-16 0.298158 4.15845)
(4.36538e-16 0.323122 4.08855)
(3.42315e-16 0.293551 3.95274)
(2.95944e-15 0.103883 15.4581)
(2.75971e-15 0.173088 14.5823)
(2.46701e-15 0.221395 13.4367)
(2.18976e-15 0.177635 12.1225)
(5.64259e-16 0.0837049 10.5775)
(1.44604e-15 0.150789 8.65333)
(-2.14666e-15 0.227298 6.36279)
(-9.21455e-16 0.2032 4.06569)
(-9.63423e-16 0.0692695 2.79285)
(-1.9612e-15 -0.103254 2.34944)
(-1.11392e-15 -0.235495 2.32044)