/*--------------------------------*- C++ -*----------------------------------*\
| =========                 |                                                 |
| \\      /  F ield         | OpenFOAM: The Open Source CFD Toolbox           |
|  \\    /   O peration     | Version:  4.1                                   |
|   \\  /    A nd           | Web:      www.OpenFOAM.org                      |
|    \\/     M anipulation  |                                                 |
\*---------------------------------------------------------------------------*/
FoamFile
{
    version     2.0;
    format      ascii;
    class       volVectorField;
    location    "7";
    object      U;
}
// * * * * * * * * * * * * * * * * * * * * * * * * * * * * * * * * * * * * * //

dimensions      [0 1 -1 0 0 0 0];

internalField   nonuniform List<vector> 
26785
(
(1.164e-15 -0.00860447 14.4486)
(1.2414e-15 -0.00540617 14.5721)
(8.54618e-16 -0.00307815 14.652)
(2.44464e-16 -0.00200077 14.7089)
(1.604e-15 0.00464295 14.7868)
(3.70742e-15 0.0104319 14.7655)
(2.0261e-15 0.0199296 14.5206)
(2.17116e-15 0.0248266 14.1394)
(-6.31121e-16 0.0256208 13.7278)
(2.79658e-15 0.0270487 13.3538)
(2.01514e-15 0.0288154 12.9511)
(1.34611e-15 0.0180028 12.65)
(1.3782e-15 0.0055067 12.5699)
(1.31538e-15 0.00103746 12.6509)
(1.28754e-15 0.000164948 12.7514)
(1.24302e-15 -0.00311083 12.8443)
(1.22589e-15 -0.0106549 13.0046)
(1.22446e-15 -0.0142472 13.2353)
(1.16269e-15 -0.0125039 13.4743)
(5.64784e-16 -0.0109235 13.6627)
(1.25141e-15 -0.0114849 13.8221)
(1.21121e-15 -0.0132711 13.9859)
(6.81287e-16 -0.0136671 14.1587)
(1.01297e-15 -0.0126855 14.3172)
(1.02351e-15 -0.0112161 14.4582)
(1.17016e-15 -0.00944285 14.5766)
(1.21116e-15 -0.00733017 14.6695)
(1.06404e-15 -0.00549337 14.7379)
(7.06171e-16 -0.00451919 14.7929)
(7.21457e-16 -0.00337747 14.8402)
(1.41935e-15 -0.00240491 14.8778)
(1.5381e-15 -0.001954 14.9094)
(1.2762e-15 -0.00153171 14.9411)
(7.04938e-16 -0.000573354 14.9697)
(1.20731e-15 0.000799497 14.9886)
(1.38977e-15 0.00217018 14.9963)
(1.32888e-15 0.00348326 14.9928)
(1.27569e-15 0.004323 14.9812)
(1.22293e-15 0.00388722 14.9694)
(1.38985e-15 0.00269179 14.9677)
(4.86924e-16 0.00166107 14.9776)
(8.99099e-16 0.00136992 14.9947)
(8.61013e-16 0.0015999 15.0116)
(1.86289e-15 0.00137412 15.0262)
(1.3395e-15 0.000114559 15.0458)
(2.16322e-15 -0.00147565 15.0761)
(1.25216e-15 -0.00301163 15.1202)
(1.11256e-15 -0.00424176 15.1729)
(1.0862e-15 -0.00511902 15.2309)
(1.07952e-15 -0.00550085 15.2893)
(8.40419e-16 -0.00616312 15.3485)
(1.10908e-15 -0.00670269 15.409)
(1.03135e-15 -0.0073777 15.4711)
(1.04278e-15 -0.00765413 15.534)
(1.04992e-15 -0.00805249 15.5955)
(9.9841e-16 -0.0082211 15.6565)
(1.09382e-15 -0.00846033 15.717)
(1.10509e-15 -0.00826815 15.777)
(1.05766e-15 -0.00782294 15.8327)
(1.13786e-15 -0.00700186 15.8829)
(1.03931e-15 -0.00623563 15.9262)
(1.05812e-15 -0.00568221 15.9644)
(9.94561e-16 -0.00545468 15.9996)
(1.06539e-15 -0.00531697 16.0334)
(1.12284e-15 -0.00528771 16.0666)
(1.06119e-15 -0.0052725 16.0996)
(1.06264e-15 -0.0053687 16.1327)
(1.07072e-15 -0.00552589 16.1662)
(1.08796e-15 -0.00576999 16.2008)
(1.11847e-15 -0.00598925 16.2367)
(1.00436e-15 -0.00615796 16.2737)
(1.02217e-15 -0.00621363 16.3112)
(1.1009e-15 -0.00623162 16.3486)
(1.09969e-15 -0.00623951 16.3859)
(1.11627e-15 -0.00628821 16.423)
(1.13806e-15 -0.00632586 16.46)
(1.14274e-15 -0.00631643 16.4966)
(1.16915e-15 -0.00621935 16.5324)
(1.19471e-15 -0.00603613 16.5668)
(1.19373e-15 -0.00576206 16.5993)
(1.21288e-15 -0.00544492 16.6295)
(1.22525e-15 -0.00514612 16.6572)
(1.208e-15 -0.00494506 16.6827)
(1.2261e-15 -0.00486239 16.7063)
(1.24106e-15 -0.00488681 16.7286)
(1.21852e-15 -0.0049682 16.7497)
(1.19425e-15 -0.00507908 16.7698)
(1.24099e-15 -0.00520468 16.789)
(1.26228e-15 -0.00535942 16.8076)
(1.23522e-15 -0.0055412 16.8257)
(1.22826e-15 -0.00574807 16.8436)
(1.25278e-15 -0.00594908 16.8616)
(1.27331e-15 -0.00611874 16.8797)
(1.28752e-15 -0.00622616 16.8979)
(1.30574e-15 -0.00628161 16.9159)
(1.12537e-15 -0.00621372 16.9335)
(1.33978e-15 -0.00636234 16.9508)
(1.35138e-15 -0.0060097 16.9674)
(1.36718e-15 -0.00372503 16.9816)
(1.39463e-15 -0.00391548 16.9832)
(1.22938e-15 -0.0242735 15.5039)
(1.44241e-15 -0.0178796 15.6835)
(1.6572e-15 -0.0111183 15.8119)
(2.27186e-15 -0.00891775 15.9111)
(6.38373e-16 0.00883728 16.0497)
(3.50854e-15 0.0311532 16.0518)
(9.1355e-16 0.067276 15.7771)
(1.22291e-16 0.0871918 15.3663)
(3.04876e-15 0.0884324 14.9408)
(1.74886e-15 0.092672 14.5726)
(1.33562e-15 0.0947991 14.2006)
(1.33679e-15 0.0538542 13.9925)
(1.37938e-15 0.011097 14.026)
(1.52503e-15 -0.00161422 14.2056)
(2.43029e-15 -0.00186211 14.3754)
(1.41839e-15 -0.0124492 14.5371)
(2.05002e-15 -0.0376241 14.785)
(1.63093e-15 -0.0476275 15.0998)
(1.77018e-15 -0.0401372 15.3967)
(2.41348e-15 -0.0334638 15.6201)
(1.31281e-15 -0.0345605 15.8044)
(2.14925e-15 -0.0397812 15.9894)
(8.47137e-16 -0.040778 16.181)
(1.8736e-15 -0.0375032 16.3571)
(2.00357e-15 -0.0328023 16.5144)
(1.59852e-15 -0.0274016 16.647)
(2.03358e-15 -0.0213819 16.7539)
(2.15385e-15 -0.0166313 16.8402)
(2.08306e-15 -0.0145319 16.918)
(2.23596e-15 -0.0117597 16.9906)
(2.46323e-15 -0.00914006 17.0544)
(2.06522e-15 -0.00811796 17.1129)
(2.15889e-15 -0.00697113 17.1703)
(2.15667e-15 -0.00425387 17.2222)
(2.66113e-15 -0.000148199 17.2623)
(2.47401e-15 0.00398952 17.2891)
(2.43748e-15 0.0079103 17.3028)
(2.37975e-15 0.0102097 17.3071)
(2.40685e-15 0.00865796 17.3101)
(2.39622e-15 0.0052251 17.3194)
(2.6504e-15 0.00269023 17.3341)
(1.7905e-15 0.00243694 17.3487)
(2.33305e-15 0.00374239 17.3562)
(1.67133e-15 0.00367877 17.3554)
(2.20246e-15 0.000443801 17.3531)
(2.3371e-15 -0.00364999 17.3539)
(3.05326e-15 -0.00732405 17.3604)
(2.5566e-15 -0.0101911 17.3688)
(3.17648e-15 -0.0119097 17.3778)
(2.34636e-15 -0.0124241 17.3839)
(2.68493e-15 -0.0135799 17.388)
(2.54734e-15 -0.0147424 17.3909)
(2.50682e-15 -0.0160702 17.3931)
(2.82154e-15 -0.0165943 17.394)
(2.60546e-15 -0.0173076 17.3913)
(2.58343e-15 -0.0177622 17.3859)
(2.82122e-15 -0.0184546 17.3785)
(2.70391e-15 -0.0181342 17.3714)
(2.46573e-15 -0.0169757 17.362)
(2.58552e-15 -0.0147639 17.349)
(2.62802e-15 -0.0125394 17.3296)
(2.57342e-15 -0.0109202 17.3041)
(2.6647e-15 -0.0102567 17.2732)
(2.61767e-15 -0.00995281 17.2389)
(2.54702e-15 -0.0100228 17.2014)
(2.61962e-15 -0.0102078 17.1616)
(2.61879e-15 -0.0107155 17.1192)
(2.61506e-15 -0.0114267 17.0748)
(2.84204e-15 -0.0124309 17.0287)
(2.60206e-15 -0.0134711 16.9816)
(2.62337e-15 -0.01445 16.9335)
(2.75091e-15 -0.0151594 16.8844)
(2.52588e-15 -0.0157352 16.8337)
(2.61055e-15 -0.0162604 16.7812)
(2.58232e-15 -0.0168828 16.7271)
(2.71178e-15 -0.0174946 16.6718)
(2.45308e-15 -0.0179999 16.6157)
(2.53647e-15 -0.0182698 16.5588)
(2.54985e-15 -0.0182651 16.5013)
(2.49395e-15 -0.0179414 16.4428)
(2.48864e-15 -0.0173487 16.3832)
(2.51609e-15 -0.0166038 16.3219)
(2.48239e-15 -0.0158745 16.2587)
(2.4408e-15 -0.0152671 16.1933)
(2.47849e-15 -0.0147878 16.126)
(2.53332e-15 -0.0143798 16.0572)
(2.39696e-15 -0.0139886 15.9874)
(2.29441e-15 -0.013623 15.9173)
(2.20433e-15 -0.0133314 15.8476)
(2.46407e-15 -0.0131631 15.7795)
(2.41101e-15 -0.0131112 15.7144)
(2.38935e-15 -0.013124 15.6536)
(2.46989e-15 -0.0131133 15.5981)
(2.5559e-15 -0.0129875 15.5485)
(2.22687e-15 -0.0127802 15.505)
(2.3039e-15 -0.0123505 15.4675)
(2.27659e-15 -0.01208 15.4371)
(2.25669e-15 -0.0128443 15.4088)
(2.27938e-15 -0.0067769 15.4018)
(2.29248e-15 -0.00640194 15.3761)
(1.93714e-15 -0.0363292 16.6993)
(1.33072e-15 -0.0263848 16.8882)
(1.71607e-15 -0.0156734 17.017)
(3.79366e-15 -0.00952693 17.1139)
(-6.36794e-17 0.0186873 17.234)
(1.24048e-15 0.0620045 17.1938)
(1.08201e-15 0.11779 16.9018)
(6.35005e-16 0.147331 16.5425)
(9.99591e-16 0.142121 16.2208)
(1.24502e-15 0.145014 15.9907)
(1.31778e-15 0.142497 15.7904)
(1.48194e-15 0.0744718 15.7619)
(1.63004e-15 0.00933101 15.911)
(1.75124e-15 -0.00715575 16.1424)
(1.71491e-15 -0.00537862 16.3319)
(1.69433e-15 -0.0227657 16.5077)
(3.01029e-15 -0.0632236 16.7577)
(2.2189e-15 -0.0767464 17.0461)
(1.9002e-15 -0.0629587 17.2891)
(1.7545e-15 -0.05088 17.4467)
(2.33092e-15 -0.052241 17.5587)
(3.16907e-15 -0.0599591 17.6646)
(2.63158e-15 -0.0616106 17.7711)
(2.02839e-15 -0.0568321 17.8585)
(2.50659e-15 -0.0499626 17.9271)
(2.2216e-15 -0.0419985 17.9774)
(2.43853e-15 -0.0330507 18.0101)
(2.79283e-15 -0.0264081 18.0254)
(2.83535e-15 -0.0238754 18.0321)
(2.81848e-15 -0.0200702 18.037)
(3.02743e-15 -0.015993 18.0349)
(2.72687e-15 -0.0144677 18.0247)
(2.11456e-15 -0.0127207 18.012)
(3.03173e-15 -0.00862809 17.996)
(3.24633e-15 -0.00218794 17.9709)
(3.04159e-15 0.00429617 17.9325)
(2.96616e-15 0.0109696 17.8805)
(3.00538e-15 0.01588 17.8116)
(2.9943e-15 0.0152728 17.7211)
(3.00384e-15 0.011571 17.6142)
(3.03305e-15 0.00898156 17.4971)
(3.00533e-15 0.00973953 17.371)
(2.95769e-15 0.0131347 17.2312)
(2.98053e-15 0.0150261 17.0741)
(2.99634e-15 0.0123805 16.8989)
(2.98684e-15 0.00803476 16.7082)
(2.94824e-15 0.00350918 16.5113)
(2.92304e-15 -0.00127264 16.3119)
(2.90883e-15 -0.00445658 16.1155)
(2.8695e-15 -0.00609044 15.922)
(2.84222e-15 -0.00755504 15.7292)
(2.82521e-15 -0.00958972 15.5351)
(2.7833e-15 -0.0111831 15.3412)
(2.75105e-15 -0.0122625 15.1477)
(2.69148e-15 -0.0126899 14.9513)
(2.79583e-15 -0.0135318 14.7503)
(2.70636e-15 -0.0151209 14.5474)
(2.44646e-15 -0.0165314 14.3529)
(2.64729e-15 -0.0165031 14.1699)
(2.34072e-15 -0.0148335 13.9997)
(2.40704e-15 -0.012082 13.8388)
(2.39467e-15 -0.00967703 13.6814)
(2.35423e-15 -0.00824835 13.5238)
(2.25977e-15 -0.00739847 13.3658)
(2.5061e-15 -0.00691081 13.2074)
(2.44473e-15 -0.00654678 13.0478)
(2.22115e-15 -0.0064356 12.8862)
(2.13171e-15 -0.00653001 12.7215)
(2.23599e-15 -0.00691499 12.5539)
(2.23025e-15 -0.00745608 12.383)
(2.1992e-15 -0.00795368 12.2101)
(2.17302e-15 -0.00812041 12.0353)
(2.27358e-15 -0.00789751 11.8588)
(1.90293e-15 -0.00743419 11.6788)
(2.22434e-15 -0.00693328 11.4946)
(2.26183e-15 -0.00649951 11.305)
(2.20778e-15 -0.00603514 11.111)
(2.1584e-15 -0.00554779 10.9126)
(2.10979e-15 -0.00489528 10.7115)
(2.06776e-15 -0.00408531 10.5084)
(1.99996e-15 -0.00295664 10.3048)
(1.96413e-15 -0.00157492 10.1004)
(1.91329e-15 2.97209e-05 9.89438)
(1.85396e-15 0.00155589 9.6851)
(1.7835e-15 0.00288464 9.47231)
(1.73312e-15 0.00379793 9.25657)
(1.6964e-15 0.00425539 9.03994)
(1.6436e-15 0.00400088 8.8253)
(1.58608e-15 0.00283903 8.61678)
(1.29561e-15 0.000502314 8.41939)
(1.67321e-15 -0.0030137 8.23831)
(1.59911e-15 -0.00759438 8.07817)
(1.52544e-15 -0.0129065 7.9423)
(1.46397e-15 -0.0185557 7.8325)
(1.4899e-15 -0.0243366 7.74913)
(1.54314e-15 -0.0302265 7.69072)
(1.50784e-15 -0.0352819 7.66024)
(1.50617e-15 -0.0445586 7.64638)
(1.57467e-15 -0.0462972 7.65785)
(1.6334e-15 -0.0473652 7.75133)
(2.08185e-15 -0.0440323 17.8753)
(2.15061e-15 -0.0314177 18.0575)
(2.15588e-15 -0.0164993 18.185)
(1.2094e-15 -0.00666751 18.2854)
(1.12552e-15 0.0338544 18.4021)
(3.47229e-16 0.0972723 18.3619)
(2.20031e-16 0.169344 18.0973)
(4.23452e-15 0.202784 17.7982)
(2.29396e-15 0.188086 17.5631)
(1.60734e-15 0.188064 17.4185)
(1.76926e-15 0.180545 17.2899)
(2.01841e-15 0.088202 17.2842)
(2.14822e-15 0.00532496 17.3855)
(1.4451e-15 -0.0107001 17.5096)
(2.57336e-15 -0.00628465 17.5687)
(2.66832e-15 -0.0289556 17.5936)
(2.64689e-15 -0.083343 17.644)
(3.29742e-15 -0.0976532 17.672)
(3.31224e-15 -0.0772659 17.6206)
(2.65882e-15 -0.0599672 17.469)
(2.65963e-15 -0.062218 17.2585)
(3.08647e-15 -0.0728253 17.0323)
(2.78927e-15 -0.0751832 16.8039)
(2.63338e-15 -0.0690675 16.5576)
(2.6067e-15 -0.0620996 16.3096)
(2.57074e-15 -0.0551297 16.0842)
(2.52679e-15 -0.0460674 15.8904)
(2.52712e-15 -0.0390695 15.7137)
(2.48723e-15 -0.037805 15.5525)
(2.51176e-15 -0.0353418 15.4236)
(2.49462e-15 -0.0308883 15.319)
(2.81574e-15 -0.0293946 15.2213)
(2.25805e-15 -0.0283114 15.1353)
(2.25943e-15 -0.0248398 15.0683)
(3.07603e-15 -0.0170694 15.016)
(1.8455e-15 -0.00845478 14.9628)
(2.63237e-15 0.00178827 14.9058)
(3.12893e-15 0.0128699 14.8334)
(1.66096e-15 0.0196233 14.7172)
(2.96303e-15 0.0221244 14.5493)
(3.2185e-15 0.0241882 14.3433)
(1.65898e-15 0.0290256 14.1123)
(1.83594e-15 0.0368869 13.8578)
(3.39589e-15 0.0440846 13.5796)
(2.74033e-15 0.0472004 13.2683)
(2.52604e-15 0.0481425 12.9173)
(1.50395e-15 0.0474876 12.5403)
(1.39262e-15 0.0431611 12.137)
(2.01343e-15 0.0392277 11.7278)
(2.61267e-15 0.0353293 11.3215)
(1.4528e-15 0.033519 10.9247)
(2.29767e-15 0.0294931 10.5281)
(1.60258e-15 0.0272258 10.1381)
(9.22625e-16 0.0235499 9.75671)
(1.29965e-15 0.0229355 9.38562)
(1.27435e-15 0.0208019 9.01697)
(1.42643e-15 0.0175927 8.64964)
(4.05866e-16 0.0109629 8.29677)
(8.70475e-16 0.00475805 7.96984)
(9.61985e-16 -0.00111473 7.68469)
(5.67882e-16 -0.004078 7.44931)
(4.59694e-16 -0.00575957 7.2546)
(-4.33483e-18 -0.00643685 7.08843)
(2.62743e-16 -0.00690338 6.94315)
(2.82366e-16 -0.00669887 6.81412)
(5.75928e-16 -0.00601284 6.69607)
(1.15909e-15 -0.00466777 6.58538)
(6.81519e-16 -0.00296372 6.47709)
(7.11685e-16 -0.000994689 6.36929)
(5.40033e-16 0.000671187 6.25874)
(6.02942e-16 0.00219915 6.14646)
(5.04458e-16 0.00384393 6.03147)
(2.19434e-16 0.00640589 5.91412)
(5.90004e-16 0.00989792 5.79085)
(3.59701e-16 0.0141898 5.6599)
(5.63664e-16 0.0185063 5.51831)
(1.36652e-16 0.0226604 5.36714)
(2.05487e-16 0.0259781 5.20633)
(1.5639e-16 0.0286197 5.03877)
(1.09751e-16 0.0303846 4.86657)
(1.13339e-16 0.0320506 4.69308)
(8.76299e-17 0.0339299 4.51953)
(1.58135e-16 0.0365163 4.34707)
(5.08904e-17 0.039134 4.17618)
(-7.4514e-17 0.0412616 4.00903)
(-1.38381e-16 0.0418594 3.84851)
(3.68576e-17 0.0404714 3.69843)
(2.13355e-16 0.0362057 3.56267)
(4.69003e-16 0.0285724 3.4454)
(1.00616e-16 0.0171323 3.35075)
(3.64399e-16 0.00227329 3.28187)
(6.75005e-16 -0.0152702 3.24065)
(4.72928e-16 -0.0342848 3.22721)
(5.35038e-16 -0.0535185 3.24005)
(6.30899e-16 -0.0720954 3.27677)
(4.58144e-16 -0.0903799 3.33319)
(9.40963e-16 -0.106163 3.40898)
(1.45006e-15 -0.125444 3.50284)
(1.23086e-15 -0.148619 3.57912)
(1.26045e-15 -0.149593 3.78309)
(2.48731e-15 -0.0475834 18.8399)
(2.33552e-15 -0.0345361 18.9922)
(2.48837e-15 -0.0173025 19.1138)
(2.16088e-15 -0.00540113 19.2138)
(1.2902e-15 0.0460071 19.3388)
(3.23058e-15 0.127553 19.3455)
(5.87845e-16 0.215482 19.1346)
(1.12874e-15 0.25197 18.8621)
(1.70831e-15 0.228799 18.6352)
(2.05762e-15 0.227754 18.4726)
(2.49908e-15 0.219621 18.2617)
(1.60569e-15 0.10935 18.062)
(2.35516e-15 0.0136548 17.8819)
(1.68665e-15 0.000702074 17.6761)
(2.68281e-15 0.00892515 17.3993)
(2.70341e-15 -0.011693 17.0394)
(2.56733e-15 -0.0710249 16.5816)
(2.36242e-15 -0.0793581 15.9776)
(2.33839e-15 -0.0526352 15.2544)
(2.14271e-15 -0.0318741 14.4313)
(2.09227e-15 -0.0372427 13.5416)
(2.3155e-15 -0.0526568 12.6437)
(1.77461e-15 -0.0596562 11.7957)
(1.55439e-15 -0.058939 11.0045)
(1.46049e-15 -0.063003 10.3123)
(1.21524e-15 -0.0717784 9.77036)
(6.17079e-16 -0.0765676 9.40015)
(1.53641e-15 -0.0795254 9.15846)
(1.34925e-15 -0.0878227 9.00308)
(1.26357e-15 -0.095 8.94165)
(1.43685e-15 -0.0957233 8.95919)
(1.54336e-15 -0.0968949 9.01385)
(1.99964e-15 -0.0983562 9.09478)
(1.58968e-15 -0.0984089 9.2119)
(1.45044e-15 -0.0905372 9.36568)
(1.97674e-15 -0.0788072 9.52848)
(1.99732e-15 -0.0626957 9.68851)
(1.92422e-15 -0.0409242 9.83477)
(1.91722e-15 -0.0186989 9.93301)
(1.90391e-15 -1.96772e-05 9.96327)
(1.94988e-15 0.0166401 9.93151)
(1.63563e-15 0.0337043 9.84906)
(3.51256e-15 0.0518742 9.72018)
(2.55285e-15 0.0693063 9.55412)
(1.86746e-15 0.0838113 9.34565)
(1.77125e-15 0.0968298 9.09021)
(1.60881e-15 0.109276 8.80192)
(1.39147e-15 0.115157 8.45842)
(9.18354e-16 0.117232 8.08253)
(2.80733e-15 0.113594 7.68858)
(1.14519e-15 0.112617 7.29975)
(1.628e-15 0.106237 6.90805)
(6.43706e-16 0.102171 6.52379)
(3.45668e-16 0.0922601 6.15416)
(3.66758e-16 0.0883953 5.80316)
(-8.47404e-16 0.082653 5.46934)
(-1.07249e-15 0.0765579 5.14847)
(-1.15042e-15 0.0623566 4.85145)
(-1.45837e-15 0.0447727 4.57795)
(-7.59245e-16 0.0215003 4.34478)
(-3.18835e-16 0.00175419 4.16018)
(-1.51962e-15 -0.0130352 4.01813)
(-1.10516e-15 -0.0223052 3.90803)
(-8.97266e-16 -0.0291604 3.8244)
(-1.12185e-15 -0.0334186 3.7632)
(-3.88293e-16 -0.0358523 3.72096)
(-1.84345e-16 -0.0359734 3.69332)
(-4.64e-16 -0.0342943 3.67622)
(-5.38299e-16 -0.0310708 3.66711)
(6.07543e-16 -0.0276517 3.66358)
(-2.75731e-16 -0.024215 3.66487)
(-6.19078e-16 -0.0204067 3.66937)
(-1.03701e-15 -0.0148402 3.67489)
(-1.75531e-15 -0.00727851 3.67785)
(-1.04236e-15 0.00195661 3.6759)
(3.80496e-16 0.0115876 3.66671)
(-1.45589e-15 0.0209229 3.65009)
(-2.5269e-15 0.0289472 3.62582)
(-1.19924e-15 0.035605 3.59419)
(-1.05139e-15 0.0407795 3.55525)
(-7.48883e-16 0.0452785 3.50931)
(-7.0586e-16 0.0496298 3.45656)
(-5.24774e-16 0.0541193 3.39745)
(2.42623e-16 0.0578928 3.33337)
(-8.92669e-16 0.060106 3.26647)
(-4.27164e-16 0.0597632 3.19925)
(-2.92642e-16 0.0563804 3.13384)
(-9.52783e-17 0.0491584 3.0723)
(-9.64142e-18 0.0374681 3.01689)
(-7.82889e-16 0.0209373 2.97063)
(4.29401e-16 0.000112497 2.93636)
(7.12091e-16 -0.0239488 2.91673)
(5.23288e-16 -0.049598 2.91339)
(4.23458e-16 -0.075139 2.92664)
(4.56769e-16 -0.0993215 2.95583)
(1.89074e-16 -0.122557 2.99849)
(8.24511e-16 -0.143567 3.05347)
(8.51257e-16 -0.164777 3.12671)
(5.78698e-16 -0.197195 3.17505)
(8.60139e-16 -0.201008 3.32177)
(2.85747e-15 -0.0529613 19.3466)
(2.78317e-15 -0.0413041 19.4068)
(2.62628e-15 -0.0228271 19.4789)
(1.42286e-15 -0.0106693 19.5369)
(2.46165e-15 0.0488188 19.6568)
(2.67773e-15 0.1465 19.7332)
(1.87825e-15 0.254473 19.5923)
(-7.63432e-16 0.297652 19.32)
(1.64753e-15 0.268052 19.0307)
(4.31552e-15 0.270243 18.7631)
(3.08278e-15 0.273649 18.3258)
(1.28195e-15 0.159378 17.727)
(2.22481e-15 0.0586411 17.058)
(2.32502e-15 0.0487783 16.3483)
(2.22773e-15 0.0644732 15.6352)
(2.17175e-15 0.0664938 14.7598)
(1.94729e-15 0.016244 13.6189)
(3.01964e-15 0.0266605 12.2305)
(1.90586e-15 0.0547974 10.7069)
(3.42684e-15 0.0744846 9.09025)
(1.85758e-15 0.0623177 7.47256)
(6.70725e-16 0.0317765 5.99074)
(1.40622e-15 -0.00734541 4.80545)
(9.82181e-16 -0.0422587 3.94307)
(-4.72638e-16 -0.0841521 3.39883)
(-6.09792e-16 -0.131832 3.13615)
(-7.98897e-16 -0.16731 3.10574)
(-6.35922e-16 -0.189452 3.21962)
(-7.73009e-16 -0.2109 3.40813)
(-6.08045e-16 -0.229455 3.65997)
(3.02336e-16 -0.235321 3.95802)
(1.94985e-16 -0.237204 4.27045)
(3.45382e-16 -0.237657 4.59064)
(1.04603e-15 -0.238365 4.92931)
(1.27156e-15 -0.228143 5.28106)
(2.06792e-16 -0.211078 5.61711)
(-8.77517e-17 -0.186985 5.93033)
(6.5146e-16 -0.154026 6.21621)
(1.01622e-15 -0.11766 6.45528)
(3.56945e-16 -0.0838434 6.64487)
(1.79952e-15 -0.0516481 6.79154)
(3.81534e-15 -0.0187917 6.90196)
(2.29056e-15 0.0154167 6.96054)
(3.81979e-15 0.048451 6.95635)
(2.33804e-15 0.0762843 6.89488)
(1.56734e-15 0.101528 6.79703)
(1.37294e-15 0.128375 6.68456)
(1.17499e-15 0.149733 6.5287)
(9.22729e-16 0.163714 6.3298)
(8.32679e-16 0.167384 6.09824)
(7.48117e-16 0.170447 5.85526)
(6.01402e-16 0.166945 5.60832)
(2.51464e-16 0.163375 5.36342)
(-1.78286e-16 0.152434 5.12729)
(-4.65022e-16 0.146584 4.89316)
(-5.54688e-16 0.139515 4.66153)
(-5.71531e-16 0.131188 4.42922)
(-7.21351e-16 0.114609 4.21344)
(-4.38931e-16 0.0930616 4.00814)
(-8.6577e-16 0.0637395 3.81594)
(-3.11939e-16 0.036069 3.63597)
(-1.29536e-16 0.0128932 3.4755)
(-1.31808e-15 -0.00440385 3.33842)
(-1.13942e-15 -0.0184761 3.22572)
(-7.23887e-16 -0.0290977 3.13236)
(1.35609e-15 -0.0370512 3.05556)
(1.03341e-15 -0.0420381 2.99303)
(-9.52196e-18 -0.044418 2.94368)
(-4.29838e-16 -0.044718 2.90694)
(-4.67798e-16 -0.0444811 2.88278)
(-3.95938e-16 -0.0438083 2.87029)
(-9.41102e-16 -0.0417395 2.86778)
(-8.77823e-16 -0.036504 2.8722)
(-9.43063e-16 -0.0278461 2.87986)
(-8.43649e-16 -0.0164443 2.88808)
(-8.04407e-16 -0.00394861 2.89572)
(-8.16554e-16 0.00845737 2.90198)
(-2.04391e-15 0.0196257 2.90524)
(-4.05402e-16 0.0295771 2.9046)
(-2.69006e-16 0.0383311 2.8997)
(-3.67771e-16 0.0466655 2.8893)
(-1.80662e-16 0.0550762 2.87219)
(-2.03359e-17 0.0634665 2.84729)
(4.23816e-16 0.0705679 2.81489)
(8.27602e-16 0.075138 2.77644)
(1.83538e-15 0.0761565 2.73399)
(1.19554e-16 0.0732105 2.68909)
(-1.74389e-17 0.0654918 2.64304)
(1.45887e-16 0.0521349 2.59743)
(-6.60398e-17 0.0326096 2.55494)
(8.31252e-17 0.00739678 2.51845)
(3.59745e-16 -0.0223271 2.49129)
(-4.68305e-17 -0.0545051 2.47672)
(-4.89968e-16 -0.0867905 2.47694)
(-3.791e-16 -0.117362 2.49272)
(-6.91577e-16 -0.146371 2.52266)
(-2.20224e-16 -0.173309 2.56496)
(-2.28119e-16 -0.198632 2.62647)
(5.68899e-17 -0.236337 2.66873)
(-3.49739e-17 -0.247312 2.79216)
(2.93301e-15 -0.0607067 18.9961)
(3.20087e-15 -0.056317 18.9416)
(3.65885e-15 -0.0390413 18.9541)
(3.38554e-15 -0.0299349 18.9534)
(1.2604e-15 0.0317255 19.0698)
(3.6891e-15 0.140433 19.2612)
(3.03248e-15 0.273415 19.2515)
(2.40328e-15 0.333481 19.0048)
(4.29845e-15 0.304639 18.6199)
(5.7388e-15 0.321374 18.2062)
(1.84939e-15 0.35592 17.522)
(2.38996e-15 0.25704 16.5445)
(2.49993e-15 0.162949 15.374)
(2.37139e-15 0.159763 14.1854)
(1.96965e-15 0.168133 13.2001)
(2.33813e-15 0.193526 12.3641)
(2.16794e-15 0.169403 10.92)
(-3.74036e-15 0.226903 8.94771)
(1.29831e-15 0.293476 7.06485)
(-2.48914e-15 0.324506 5.26245)
(-3.36199e-15 0.253896 3.82924)
(-2.38706e-16 0.146816 2.84326)
(1.31516e-15 0.0404893 2.27975)
(-1.78381e-15 -0.0343954 2.00995)
(-2.40143e-15 -0.107031 1.93943)
(-2.74109e-15 -0.183118 1.99372)
(-3.6715e-15 -0.23749 2.13745)
(-3.22529e-15 -0.268643 2.32676)
(-1.06466e-15 -0.295828 2.53001)
(-1.40071e-15 -0.320234 2.75401)
(-1.60301e-15 -0.329471 2.99936)
(-1.20486e-15 -0.333665 3.25367)
(-8.90543e-16 -0.33689 3.51875)
(-5.29515e-16 -0.342304 3.8093)
(4.1156e-16 -0.332375 4.11632)
(-9.99884e-16 -0.311653 4.40539)
(-5.15374e-16 -0.281653 4.67868)
(1.74957e-16 -0.240322 4.93618)
(7.08704e-16 -0.194773 5.14708)
(-1.73796e-16 -0.151953 5.30774)
(2.27461e-15 -0.110538 5.44609)
(1.64965e-15 -0.0667349 5.57427)
(3.55563e-15 -0.0173985 5.66958)
(2.24139e-15 0.0320797 5.71048)
(1.39472e-15 0.071288 5.69497)
(1.20917e-15 0.103232 5.63915)
(1.21902e-15 0.13703 5.58036)
(-1.25716e-15 0.169548 5.50489)
(-7.20419e-16 0.195527 5.39686)
(-3.37866e-15 0.209329 5.24914)
(-3.40193e-15 0.218347 5.07788)
(-3.53673e-15 0.21878 4.88881)
(-1.07722e-15 0.216399 4.6904)
(-8.33879e-16 0.206237 4.49724)
(-7.33249e-16 0.20049 4.31331)
(-8.05466e-16 0.194708 4.13286)
(-7.56527e-16 0.185239 3.93833)
(-2.02055e-15 0.166037 3.75509)
(-7.44111e-16 0.142235 3.58221)
(-1.11195e-15 0.112156 3.42154)
(-8.70151e-16 0.0826782 3.26376)
(-8.59348e-16 0.0551771 3.1144)
(-4.59444e-16 0.0318966 2.98094)
(-6.81823e-16 0.0125273 2.86387)
(-9.08038e-16 -0.00265016 2.75951)
(-1.9618e-15 -0.0150354 2.66833)
(-4.34568e-17 -0.024839 2.58838)
(-5.97067e-18 -0.0320125 2.52034)
(-1.01791e-15 -0.0372669 2.46466)
(-8.44692e-16 -0.0421596 2.42319)
(-1.85344e-15 -0.046672 2.39659)
(-2.32601e-16 -0.0490311 2.38425)
(-9.22783e-16 -0.046937 2.38258)
(-2.41613e-16 -0.0399575 2.38783)
(-2.96439e-16 -0.0296177 2.39718)
(-6.00321e-16 -0.0175914 2.40986)
(3.31912e-17 -0.00524386 2.42484)
(-1.20372e-17 0.00629448 2.44049)
(-2.53153e-17 0.0168816 2.45557)
(-2.72552e-16 0.0267995 2.46869)
(-2.44968e-16 0.0370153 2.47769)
(-1.22842e-16 0.048106 2.48035)
(-2.71383e-16 0.0596384 2.47463)
(-2.43742e-16 0.0698976 2.46019)
(-2.15676e-16 0.0772502 2.43811)
(-3.02846e-16 0.08061 2.40998)
(-4.46432e-16 0.0796578 2.37626)
(-7.73414e-16 0.073522 2.33675)
(-5.14133e-16 0.0609522 2.29177)
(-6.99698e-16 0.041063 2.24329)
(-2.02887e-15 0.0139848 2.19412)
(-9.24236e-16 -0.0194482 2.14869)
(-2.26821e-15 -0.0571182 2.11283)
(-1.42765e-15 -0.0959591 2.09185)
(-1.69267e-15 -0.133297 2.08869)
(-1.44211e-15 -0.168726 2.10294)
(-1.55195e-15 -0.202079 2.13216)
(-4.45994e-16 -0.232641 2.18248)
(-1.02009e-15 -0.275677 2.21958)
(-8.82219e-16 -0.294414 2.32847)
(2.94371e-15 -0.0722081 17.9894)
(2.8403e-15 -0.0808374 17.7528)
(3.20986e-15 -0.0689998 17.6394)
(1.03155e-15 -0.0692136 17.5174)
(2.28577e-15 -0.0173901 17.6217)
(2.37451e-15 0.095614 18.0133)
(2.05784e-15 0.261984 18.2012)
(5.77535e-15 0.353892 18.0043)
(3.17339e-15 0.33742 17.5609)
(2.66585e-15 0.387314 17.0582)
(2.71877e-15 0.480049 16.2696)
(2.73916e-15 0.404855 15.1926)
(2.70218e-15 0.309353 13.7684)
(2.51175e-15 0.312254 12.5235)
(2.11759e-15 0.312853 11.0653)
(1.12261e-15 0.366596 9.53558)
(2.56396e-15 0.35709 8.19379)
(1.57073e-15 0.411512 6.841)
(1.08853e-17 0.501451 6.25657)
(-8.44096e-17 0.514539 5.33379)
(-1.64934e-16 0.399278 4.33562)
(-7.56436e-16 0.243836 3.45158)
(-3.35876e-16 0.0970317 2.82753)
(-1.43975e-15 -0.00930332 2.4765)
(-3.53696e-15 -0.104941 2.34656)
(-3.79745e-15 -0.198374 2.3535)
(-4.296e-15 -0.263374 2.44112)
(-2.88465e-15 -0.298852 2.55693)
(-2.89778e-15 -0.33013 2.66753)
(-2.54316e-15 -0.359447 2.7891)
(-1.70055e-15 -0.372703 2.93456)
(-1.00386e-15 -0.38131 3.09721)
(-6.26214e-16 -0.390522 3.2844)
(-3.65147e-16 -0.402866 3.50713)
(3.66148e-16 -0.394088 3.75062)
(8.62609e-16 -0.372376 3.9697)
(-6.05491e-16 -0.341654 4.17693)
(8.37667e-17 -0.29591 4.38551)
(6.22363e-16 -0.242497 4.55657)
(-2.13037e-16 -0.194334 4.67496)
(1.55813e-15 -0.150342 4.76957)
(3.43936e-15 -0.103727 4.86208)
(5.05173e-15 -0.0461861 4.94542)
(2.57034e-15 0.0161981 4.99162)
(1.27108e-15 0.0662084 4.98481)
(9.88299e-16 0.104426 4.93943)
(6.64636e-16 0.142231 4.88535)
(7.84727e-16 0.180629 4.82292)
(-1.8455e-15 0.214694 4.74738)
(-1.68813e-15 0.237615 4.64062)
(-3.75407e-17 0.253737 4.50892)
(-2.25733e-15 0.259632 4.35643)
(-1.47233e-15 0.258992 4.18975)
(-1.38853e-15 0.248096 4.02462)
(-1.03257e-15 0.240001 3.85866)
(-1.61145e-15 0.235293 3.70493)
(-1.02984e-15 0.226657 3.53604)
(-1.19894e-15 0.204891 3.37137)
(-2.46137e-15 0.177516 3.21843)
(-2.64114e-15 0.146132 3.0777)
(-1.77807e-15 0.116149 2.93725)
(-1.44255e-15 0.0865356 2.80284)
(-1.11263e-15 0.0604372 2.67721)
(-9.81601e-16 0.0387577 2.56182)
(-1.15308e-15 0.020705 2.45618)
(-1.47387e-15 0.00509858 2.36089)
(-1.08846e-15 -0.00786869 2.27341)
(-1.71941e-15 -0.0182973 2.19602)
(-2.07823e-15 -0.0273525 2.13087)
(-1.83299e-15 -0.0369891 2.08203)
(-4.00369e-15 -0.047003 2.05111)
(-2.49579e-15 -0.0542811 2.0383)
(-2.71156e-15 -0.055589 2.03953)
(-2.87037e-15 -0.0503822 2.05049)
(-2.74507e-15 -0.0410139 2.06799)
(-2.80154e-15 -0.0295941 2.09105)
(-2.85165e-15 -0.0175819 2.1183)
(-2.84839e-15 -0.00613333 2.14788)
(-2.78946e-15 0.00468088 2.17753)
(-2.55478e-15 0.0156091 2.20543)
(-2.4031e-15 0.0277994 2.22865)
(-2.54575e-15 0.0419251 2.24438)
(-2.43927e-15 0.0571358 2.25022)
(-2.4429e-15 0.0710973 2.24583)
(-2.17809e-15 0.0818158 2.23214)
(-1.97681e-15 0.0883059 2.21009)
(-1.8488e-15 0.0904879 2.1789)
(-1.80179e-15 0.0875407 2.13689)
(-2.10558e-15 0.0777286 2.08344)
(-1.74649e-15 0.059594 2.02053)
(-1.57232e-15 0.0326065 1.95146)
(-1.80963e-15 -0.00338393 1.88213)
(-2.7522e-15 -0.0467311 1.82169)
(-3.60976e-15 -0.0934683 1.77933)
(-1.77064e-15 -0.139421 1.75994)
(-2.20868e-15 -0.183044 1.76286)
(-1.423e-15 -0.224062 1.78394)
(-1.54508e-15 -0.261048 1.82721)
(-1.3697e-15 -0.309911 1.86173)
(-1.5758e-15 -0.336666 1.95897)
(2.77658e-15 -0.087731 16.2139)
(2.36369e-15 -0.114058 15.6292)
(2.03756e-15 -0.113505 15.2476)
(1.12744e-15 -0.133571 14.9115)
(3.26874e-15 -0.109877 14.9932)
(2.70198e-15 -0.0074519 15.6543)
(1.33993e-15 0.202711 16.1569)
(1.84242e-15 0.346963 16.0891)
(2.38681e-15 0.348175 15.6928)
(-1.43889e-15 0.414252 15.3999)
(1.62404e-15 0.562762 14.8336)
(2.83558e-15 0.546429 13.7269)
(2.24033e-15 0.456005 11.9542)
(2.36495e-15 0.455951 10.7408)
(2.14861e-15 0.486163 9.68263)
(2.48265e-15 0.531897 8.59679)
(2.49964e-15 0.495496 7.71201)
(3.42151e-16 0.484433 6.62331)
(2.32844e-15 0.59567 5.98972)
(2.30349e-15 0.637775 5.28564)
(-1.10215e-15 0.527638 4.41275)
(-1.59533e-15 0.353536 3.53332)
(-1.1832e-15 0.171266 2.84547)
(-7.26663e-15 0.025832 2.44578)
(-2.15695e-15 -0.101912 2.30695)
(-2.79888e-15 -0.217112 2.32226)
(-3.2987e-15 -0.291789 2.40821)
(-3.2843e-15 -0.327236 2.5031)
(-2.21748e-15 -0.359328 2.57058)
(-2.18299e-15 -0.392262 2.63747)
(-1.3573e-15 -0.409332 2.72726)
(-9.30634e-16 -0.422985 2.83974)
(-1.10324e-15 -0.43884 2.98491)
(-2.65978e-16 -0.459298 3.17147)
(5.70244e-16 -0.450676 3.39615)
(-1.41241e-15 -0.424873 3.60413)
(-3.85993e-16 -0.392041 3.7927)
(3.79669e-16 -0.341882 3.98049)
(6.93112e-16 -0.280393 4.13135)
(6.97094e-16 -0.224497 4.22958)
(4.03761e-16 -0.175329 4.30345)
(2.51212e-16 -0.128017 4.36962)
(3.8845e-15 -0.0671329 4.43351)
(2.52625e-15 0.00536752 4.47304)
(1.11731e-15 0.0648641 4.46345)
(5.00757e-16 0.109106 4.4174)
(1.84228e-16 0.150774 4.36534)
(1.02743e-16 0.192182 4.30417)
(-1.96803e-16 0.230143 4.23821)
(-2.72075e-16 0.25999 4.15407)
(-6.11917e-16 0.28267 4.04723)
(-9.27508e-16 0.29393 3.92055)
(-1.16054e-15 0.295734 3.77832)
(-1.2445e-15 0.285809 3.63804)
(-1.29967e-15 0.276024 3.49446)
(-1.66151e-15 0.271738 3.34764)
(-6.04891e-16 0.264661 3.2044)
(-1.93199e-15 0.241452 3.05923)
(3.37352e-16 0.211125 2.92572)
(-5.58325e-16 0.178723 2.79941)
(-9.35602e-16 0.147719 2.67232)
(-1.53706e-15 0.116985 2.55138)
(-1.55601e-15 0.0895292 2.43234)
(-1.71306e-15 0.0658964 2.32052)
(-1.88159e-15 0.0457532 2.21577)
(-2.6347e-15 0.0277338 2.11798)
(-1.22353e-15 0.0119187 2.02579)
(-2.9958e-15 -0.00179625 1.94306)
(-2.44177e-15 -0.0152491 1.87363)
(-3.48094e-15 -0.030682 1.82348)
(-3.80367e-15 -0.0474551 1.79497)
(-4.24427e-15 -0.0608225 1.78863)
(-4.47405e-15 -0.0665322 1.79935)
(-3.90907e-15 -0.0639211 1.82174)
(-2.14079e-15 -0.0561971 1.85175)
(-4.18204e-15 -0.0457608 1.88773)
(-4.44548e-15 -0.0343964 1.92734)
(-4.24221e-15 -0.0232645 1.96819)
(-4.87211e-15 -0.0122634 2.00776)
(-3.08508e-15 -0.000251378 2.0441)
(-3.9718e-15 0.014169 2.07411)
(-2.039e-15 0.031721 2.09504)
(-2.70283e-15 0.051101 2.10479)
(-2.48923e-15 0.0692874 2.10329)
(-2.20314e-15 0.0841479 2.091)
(-2.27332e-15 0.0949533 2.06777)
(-2.27318e-15 0.101861 2.03202)
(-2.25395e-15 0.104 1.98154)
(-2.32133e-15 0.0989631 1.91573)
(-2.22101e-15 0.0844622 1.83746)
(-2.18329e-15 0.059085 1.7509)
(-1.6605e-15 0.0210983 1.66319)
(-2.11083e-15 -0.0288874 1.58641)
(-1.97236e-15 -0.0855419 1.53296)
(-2.44138e-15 -0.142099 1.5081)
(-2.18763e-15 -0.195169 1.50899)