# vtk DataFile Version 2.0
track0
ASCII
DATASET POLYDATA
POINTS 10844 float
-0.0205 0.001 1e-05
-0.0202034 0.00100023 1e-05
-0.0199069 0.00100077 1e-05
-0.0196103 0.0010015 1e-05
-0.0193137 0.00100243 1e-05
-0.0190172 0.00100355 1e-05
-0.0187132 0.00100513 1e-05
-0.0184093 0.00100627 1e-05
-0.0181054 0.00100736 1e-05
-0.0178015 0.0010084 1e-05
-0.0174976 0.00100941 1e-05
-0.0172058 0.00101071 1e-05
-0.016914 0.00101143 1e-05
-0.0166222 0.00101212 1e-05
-0.0163305 0.00101278 1e-05
-0.0160387 0.00101341 1e-05
-0.0157586 0.00101437 1e-05
-0.0154784 0.00101494 1e-05
-0.0151983 0.00101555 1e-05
-0.0149182 0.0010162 1e-05
-0.0146381 0.00101689 1e-05
-0.0143692 0.00101788 1e-05
-0.0141002 0.00101864 1e-05
-0.0138313 0.00101945 1e-05
-0.0135624 0.00102032 1e-05
-0.0132934 0.00102125 1e-05
-0.0130353 0.00102237 1e-05
-0.0127771 0.00102336 1e-05
-0.0125189 0.00102439 1e-05
-0.0122607 0.00102547 1e-05
-0.0120025 0.00102658 1e-05
-0.0117547 0.00102779 1e-05
-0.0115068 0.00102894 1e-05
-0.0112589 0.00103011 1e-05
-0.0110111 0.0010313 1e-05
-0.0107632 0.00103253 1e-05
-0.0105252 0.00103377 1e-05
-0.0102873 0.00103499 1e-05
-0.0100493 0.00103623 1e-05
-0.00981133 0.00103748 1e-05
-0.00957337 0.00103875 1e-05
-0.00951795 0.00103905 1e-05
-0.00946254 0.00103935 1e-05
-0.00940713 0.00103965 1e-05
-0.00935171 0.00103995 1e-05
-0.00929641 0.00104025 1e-05
-0.00912335 0.0010412 1e-05
-0.00895028 0.00104215 1e-05
-0.00877721 0.0010431 1e-05
-0.00860415 0.00104406 1e-05
-0.00843108 0.00104503 1e-05
-0.00821175 0.00104625 1e-05
-0.00799242 0.00104748 1e-05
-0.00777309 0.00104872 1e-05
-0.00755376 0.00104996 1e-05
-0.00733443 0.0010512 1e-05
-0.00712387 0.00105239 1e-05
-0.0069133 0.00105358 1e-05
-0.00670273 0.00105478 1e-05
-0.00649217 0.00105598 1e-05
-0.0062816 0.00105717 1e-05
-0.00607944 0.00105831 1e-05
-0.00587729 0.00105946 1e-05
-0.00567514 0.0010606 1e-05
-0.00547298 0.00106174 1e-05
-0.00527083 0.00106288 1e-05
-0.00507675 0.00106395 1e-05
-0.00488267 0.00106504 1e-05
-0.0046886 0.00106612 1e-05
-0.00449452 0.00106719 1e-05
-0.00430044 0.00106827 1e-05
-0.00411412 0.00106928 1e-05
-0.0039278 0.0010703 1e-05
-0.00374147 0.00107131 1e-05
-0.00355515 0.00107231 1e-05
-0.00336883 0.00107331 1e-05
-0.00318995 0.00107426 1e-05
-0.00301107 0.0010752 1e-05
-0.00283219 0.00107614 1e-05
-0.00265331 0.00107707 1e-05
-0.00247443 0.001078 1e-05
-0.0023027 0.00107886 1e-05
-0.00213097 0.00107973 1e-05
-0.00195924 0.00108059 1e-05
-0.0017875 0.00108144 1e-05
-0.00161577 0.00108228 1e-05
-0.0014509 0.00108306 1e-05
-0.00128603 0.00108384 1e-05
-0.00112116 0.00108461 1e-05
-0.000956289 0.00108536 1e-05
-0.000791418 0.00108609 1e-05
-0.000633135 0.00108678 1e-05
-0.000474851 0.00108744 1e-05
-0.000316567 0.00108809 1e-05
-0.000158283 0.00108871 1e-05
0 0.00108931 1e-05
0.000105677 0.00108969 1e-05
0.000211355 0.00109006 1e-05
0.000317032 0.00109042 1e-05
0.00042271 0.00109077 1e-05
0.000528387 0.0010911 1e-05
0.000634886 0.00109142 1e-05
0.000741385 0.00109173 1e-05
0.000847885 0.00109203 1e-05
0.000954384 0.00109233 1e-05
0.00106088 0.00109261 1e-05
0.00116821 0.00109288 1e-05
0.00127554 0.00109315 1e-05
0.00138286 0.00109342 1e-05
0.00149019 0.00109367 1e-05
0.00159752 0.00109391 1e-05
0.00170568 0.00109414 1e-05
0.00181384 0.00109437 1e-05
0.001922 0.0010946 1e-05
0.00203016 0.00109481 1e-05
0.00213833 0.00109501 1e-05
0.00224733 0.0010952 1e-05
0.00235633 0.0010954 1e-05
0.00246533 0.00109558 1e-05
0.00257434 0.00109576 1e-05
0.00268334 0.00109593 1e-05
0.00279319 0.00109609 1e-05
0.00290304 0.00109626 1e-05
0.00301289 0.00109641 1e-05
0.00312274 0.00109657 1e-05
0.00323259 0.00109672 1e-05
0.00334329 0.00109685 1e-05
0.003454 0.00109699 1e-05
0.0035647 0.00109713 1e-05
0.0036754 0.00109726 1e-05
0.00378611 0.00109739 1e-05
0.00389767 0.00109751 1e-05
0.00400924 0.00109763 1e-05
0.0041208 0.00109775 1e-05
0.00423237 0.00109787 1e-05
0.00434393 0.00109798 1e-05
0.00445636 0.00109808 1e-05
0.00456879 0.00109818 1e-05
0.00468123 0.00109828 1e-05
0.00479366 0.00109838 1e-05
0.00490609 0.00109847 1e-05
0.0050194 0.00109856 1e-05
0.0051327 0.00109864 1e-05
0.00524601 0.00109872 1e-05
0.00535932 0.0010988 1e-05
0.00547262 0.00109888 1e-05
0.00558681 0.00109894 1e-05
0.005701 0.00109901 1e-05
0.00581518 0.00109907 1e-05
0.00592937 0.00109913 1e-05
0.00604356 0.00109919 1e-05
0.00615863 0.00109924 1e-05
0.00627371 0.00109929 1e-05
0.00638878 0.00109933 1e-05
0.00650386 0.00109937 1e-05
0.00661893 0.00109941 1e-05
0.0067349 0.00109944 1e-05
0.00685087 0.00109946 1e-05
0.00696684 0.00109949 1e-05
0.00708281 0.00109951 1e-05
0.00719878 0.00109952 1e-05
0.00723628 0.00109952 1e-05
0.00727377 0.00109953 1e-05
0.00731127 0.00109953 1e-05
0.00734877 0.00109953 1e-05
0.00738572 0.00109953 1e-05
0.0074652 0.00109954 1e-05
0.00754469 0.00109954 1e-05
0.00762417 0.00109953 1e-05
0.00770365 0.00109953 1e-05
0.00778313 0.00109952 1e-05
0.00790091 0.00109951 1e-05
0.00801869 0.00109949 1e-05
0.00813647 0.00109947 1e-05
0.00825425 0.00109944 1e-05
0.00837203 0.00109941 1e-05
0.00849073 0.00109937 1e-05
0.00860942 0.00109933 1e-05
0.00872812 0.00109928 1e-05
0.00884682 0.00109923 1e-05
0.00896551 0.00109917 1e-05
0.00908513 0.0010991 1e-05
0.00920475 0.00109903 1e-05
0.00932437 0.00109896 1e-05
0.00944398 0.00109888 1e-05
0.0095636 0.0010988 1e-05
0.00968415 0.00109869 1e-05
0.0098047 0.0010986 1e-05
0.00992525 0.0010985 1e-05
0.0100458 0.00109839 1e-05
0.0101663 0.00109828 1e-05
0.0102878 0.00109814 1e-05
0.0104093 0.00109801 1e-05
0.0105308 0.00109788 1e-05
0.0106523 0.00109774 1e-05
0.0107738 0.0010976 1e-05
0.0108962 0.00109743 1e-05
0.0110186 0.00109727 1e-05
0.0111411 0.00109711 1e-05
0.0112635 0.00109694 1e-05
0.0113859 0.00109676 1e-05
0.0115093 0.00109656 1e-05
0.0116327 0.00109637 1e-05
0.0117561 0.00109617 1e-05
0.0118795 0.00109596 1e-05
0.0120028 0.00109575 1e-05
0.0121272 0.00109551 1e-05
0.0122515 0.00109529 1e-05
0.0123759 0.00109505 1e-05
0.0125002 0.00109481 1e-05
0.0126245 0.00109456 1e-05
0.0127498 0.00109428 1e-05
0.0128752 0.00109402 1e-05
0.0130005 0.00109375 1e-05
0.0131258 0.00109347 1e-05
0.0132511 0.00109318 1e-05
0.0133774 0.00109286 1e-05
0.0135036 0.00109256 1e-05
0.0136299 0.00109225 1e-05
0.0137562 0.00109193 1e-05
0.0138825 0.0010916 1e-05
0.0140098 0.00109124 1e-05
0.014137 0.0010909 1e-05
0.0142643 0.00109054 1e-05
0.0143915 0.00109018 1e-05
0.0145188 0.00108981 1e-05
0.0146471 0.00108941 1e-05
0.0147753 0.00108902 1e-05
0.0149036 0.00108862 1e-05
0.0150318 0.00108822 1e-05
0.0151601 0.0010878 1e-05
0.0152893 0.00108736 1e-05
0.0154186 0.00108692 1e-05
0.0155478 0.00108648 1e-05
0.0156771 0.00108603 1e-05
0.0158063 0.00108557 1e-05
0.0159366 0.00108508 1e-05
0.0160668 0.00108459 1e-05
0.0161971 0.0010841 1e-05
0.0163274 0.0010836 1e-05
0.0164576 0.00108309 1e-05
0.0165889 0.00108256 1e-05
0.0167201 0.00108202 1e-05
0.0168514 0.00108148 1e-05
0.0169827 0.00108093 1e-05
0.0171139 0.00108037 1e-05
0.0172462 0.00107978 1e-05
0.0173785 0.0010792 1e-05
0.0175108 0.00107861 1e-05
0.0176431 0.001078 1e-05
0.0177754 0.00107739 1e-05
0.0179087 0.00107676 1e-05
0.018042 0.00107612 1e-05
0.0181753 0.00107547 1e-05
0.0183087 0.00107481 1e-05
0.018442 0.00107415 1e-05
0.0185763 0.00107347 1e-05
0.0187107 0.00107277 1e-05
0.018845 0.00107207 1e-05
0.0189794 0.00107136 1e-05
0.0191137 0.00107063 1e-05
0.0192491 0.0010699 1e-05
0.0193845 0.00106915 1e-05
0.0195199 0.00106839 1e-05
0.0196553 0.00106762 1e-05
0.0197907 0.00106684 1e-05
0.0199272 0.00106606 1e-05
0.0200636 0.00106525 1e-05
0.0202001 0.00106443 1e-05
0.0203365 0.0010636 1e-05
0.020473 0.00106277 1e-05
0.0206105 0.00106193 1e-05
0.020748 0.00106107 1e-05
0.0208855 0.00106019 1e-05
0.021023 0.0010593 1e-05
0.0211606 0.00105841 1e-05
0.0212991 0.00105752 1e-05
0.0214377 0.0010566 1e-05
0.0215763 0.00105566 1e-05
0.0217149 0.0010547 1e-05
0.0218535 0.00105376 1e-05
0.0219931 0.00105281 1e-05
0.0221328 0.00105183 1e-05
0.0222724 0.00105083 1e-05
0.0224121 0.00104981 1e-05
0.0225517 0.00104881 1e-05
0.0226925 0.0010478 1e-05
0.0228332 0.00104677 1e-05
0.022974 0.0010457 1e-05
0.0231147 0.00104463 1e-05
0.0232555 0.00104356 1e-05
0.0233973 0.0010425 1e-05
0.0235391 0.00104141 1e-05
0.023681 0.00104028 1e-05
0.0238228 0.00103914 1e-05
0.0239647 0.00103802 1e-05
0.0241076 0.0010369 1e-05
0.0242505 0.00103575 1e-05
0.0243935 0.00103456 1e-05
0.0245364 0.00103336 1e-05
0.0246794 0.00103218 1e-05
0.0248234 0.00103101 1e-05
0.0249675 0.00102979 1e-05
0.0251115 0.00102854 1e-05
0.0252556 0.00102729 1e-05
0.0253996 0.00102604 1e-05
0.0255448 0.00102481 1e-05
0.02569 0.00102354 1e-05
0.0258351 0.00102223 1e-05
0.0259803 0.00102091 1e-05
0.0261255 0.0010196 1e-05
0.0262718 0.00101831 1e-05
0.0264181 0.00101698 1e-05
0.0265644 0.00101561 1e-05
0.0267107 0.00101422 1e-05
0.026857 0.00101286 1e-05
0.0270044 0.00101151 1e-05
0.0271519 0.00101011 1e-05
0.0272993 0.00100868 1e-05
0.0274468 0.00100724 1e-05
0.0275942 0.00100581 1e-05
0.0277428 0.0010044 1e-05
0.0278914 0.00100294 1e-05
0.0280399 0.00100144 1e-05
0.0281885 0.000999938 1e-05
0.0283371 0.000998452 1e-05
0.0284869 0.000996973 1e-05
0.0286366 0.000995454 1e-05
0.0287863 0.000993896 1e-05
0.0289361 0.000992329 1e-05
0.0290858 0.000990779 1e-05
0.0292367 0.000989237 1e-05
0.0293876 0.000987654 1e-05
0.0295385 0.000986036 1e-05
0.0296894 0.000984409 1e-05
0.0298403 0.000982795 1e-05
0.0299924 0.000981188 1e-05
0.0301445 0.00097954 1e-05
0.0302966 0.000977861 1e-05
0.0304486 0.000976174 1e-05
0.0306007 0.000974495 1e-05
0.030754 0.000972821 1e-05
0.0309072 0.000971107 1e-05
0.0310605 0.000969366 1e-05
0.0312138 0.000967616 1e-05
0.031367 0.00096587 1e-05
0.0315215 0.000964127 1e-05
0.0316759 0.000962345 1e-05
0.0318304 0.00096054 1e-05
0.0319848 0.000958726 1e-05
0.0321393 0.000956911 1e-05
0.0322949 0.000955097 1e-05
0.0324506 0.000953244 1e-05
0.0326062 0.000951373 1e-05
0.0327619 0.000949493 1e-05
0.0329175 0.000947606 1e-05
0.0330744 0.00094572 1e-05
0.0332313 0.000943794 1e-05
0.0333881 0.000941854 1e-05
0.033545 0.000939904 1e-05
[...]
POINT_DATA 10844
 FIELD attributes 1
U 3 10844 float
10.0003 	0.00776171 	0 10.0019 	0.0181382 	0 10.0037 	0.0247608 	0 10.0054 	0.0313388 	0 10.0072 	0.0378723 	0 10.0157 	0.0520811 	0 10.0156 	0.037385 	0 10.0203 	0.0359407 	0 10.0249 	0.0344999 	0 10.0295 	0.0330625 	0 10.0406 	0.0447892 	0 10.0402 	0.0248781 	0 10.0454 	0.0238078 	0 10.0507 	0.0227341 	0 10.0559 	0.0216571 	0 10.0659 	0.0345077 	0 10.0664 	0.020463 	0 10.071 	0.0219057 	0 10.0756 	0.023355 	0 10.0803 	0.0248111 	0 10.0876 	0.0371507 	0 10.0894 	0.0284604 	0 10.0934 	0.0305447 	0 10.0974 	0.0326381 	0 10.1014 	0.0347407 	0 10.106 	0.0439284 	0 10.1092 	0.0388555 	0 10.1125 	0.0404731 	0 10.1159 	0.0420967 	0 10.1193 	0.0437263 	0 10.1218 	0.0493051 	0 10.1253 	0.0467745 	0 10.1279 	0.0478572 	0 10.1305 	0.0489431 	0 10.133 	0.0500322 	0 10.1343 	0.0528239 	0 10.1374 	0.0520074 	0 10.1392 	0.0527067 	0 10.141 	0.0534076 	0 10.1428 	0.0541101 	0 10.1442 	0.0550626 	0 10.1448 	0.0549459 	0 10.1451 	0.0550463 	0 10.1454 	0.0551468 	0 10.1457 	0.0552473 	0 10.146 	0.0553476 	0 10.1469 	0.0556578 	0 10.1478 	0.0559683 	0 10.1488 	0.0562792 	0 10.1497 	0.0565905 	0 10.1507 	0.0566278 	0 10.1514 	0.0570154 	0 10.1521 	0.0572058 	0 10.1529 	0.0573964 	0 10.1536 	0.0575873 	0 10.1546 	0.0572637 	0 10.1549 	0.0576633 	0 10.1553 	0.0576888 	0 10.1556 	0.0577143 	0 10.1559 	0.0577399 	0 10.1565 	0.0571172 	0 10.1568 	0.0574972 	0 10.1568 	0.0573979 	0 10.1568 	0.0572986 	0 10.1569 	0.0571992 	0 10.1569 	0.0563905 	0 10.1574 	0.0567236 	0 10.1572 	0.0565223 	0 10.1569 	0.0563209 	0 10.1567 	0.0561193 	0 10.1562 	0.0551936 	0 10.1571 	0.0554524 	0 10.1567 	0.0551517 	0 10.1563 	0.054851 	0 10.1559 	0.0545501 	0 10.1546 	0.0535335 	0 10.1562 	0.0536837 	0 10.1557 	0.05327 	0 10.1552 	0.0528562 	0 10.1547 	0.0524422 	0 10.1526 	0.0513348 	0 10.155 	0.0513259 	0 10.1544 	0.0507489 	0 10.1539 	0.0501717 	0 10.1533 	0.0495944 	0 10.1503 	0.0483398 	0 10.1536 	0.048023 	0 10.153 	0.0471081 	0 10.1523 	0.0461931 	0 10.1517 	0.0452779 	0 10.1476 	0.0437079 	0 10.1518 	0.0428443 	0 10.1509 	0.0413773 	0 10.1501 	0.03991 	0 10.1492 	0.0384425 	0 10.1438 	0.03654 	0 10.1484 	0.0357833 	-3.30648e-21 10.1472 	0.0344624 	-1.11719e-20 10.146 	0.0331414 	-1.90387e-20 10.1448 	0.0318201 	-2.69067e-20 10.1387 	0.0301828 	-3.55511e-20 10.1431 	0.0298401 	-6.49842e-20 10.1416 	0.02891 	-6.47171e-20 10.1401 	0.0279796 	-6.44444e-20 10.1386 	0.0270491 	-6.41663e-20 10.1322 	0.0256832 	-3.2526e-20 10.1365 	0.0255841 	-3.35117e-20 10.135 	0.0247154 	-3.82526e-20 10.1334 	0.0238465 	-4.29958e-20 10.1319 	0.0229773 	-4.77411e-20 10.1255 	0.0215375 	-5.37878e-20 10.1298 	0.0216444 	-8.02535e-20 10.1283 	0.0208125 	-8.00054e-20 10.1267 	0.0199803 	-7.97534e-20 10.1252 	0.0191478 	-7.94974e-20 10.1189 	0.017585 	-5.75261e-20 10.1229 	0.0179528 	-4.19419e-20 10.1213 	0.0173076 	-2.48899e-20 10.1196 	0.0166622 	-7.8386e-21 10.118 	0.0160164 	9.21208e-21 10.1117 	0.0145021 	2.64765e-20 10.1153 	0.0150499 	1.5826e-20 10.1135 	0.0145964 	9.8228e-21 10.1117 	0.0141427 	3.81981e-21 10.1099 	0.0136888 	-2.18299e-21 10.1037 	0.0123235 	9.4613e-22 10.1069 	0.0128778 	1.68158e-20 10.1049 	0.0125214 	1.80038e-20 10.103 	0.0121648 	1.91889e-20 10.101 	0.0118081 	2.03711e-20 10.095 	0.0106107 	2.83898e-21 10.0976 	0.0110459 	4.34391e-20 10.0955 	0.0107184 	4.84435e-20 10.0933 	0.0103907 	5.3443e-20 10.0912 	0.0100629 	5.84376e-20 10.0853 	0.00904063 	2.5816e-20 10.0873 	0.00931136 	2.39693e-20 10.0849 	0.00898967 	1.76271e-20 10.0825 	0.00866783 	1.12852e-20 10.0801 	0.00834585 	4.94357e-21 10.0745 	0.00750235 	-2.84992e-21 10.0757 	0.00760737 	7.17653e-21 10.073 	0.00728267 	1.63282e-20 10.0703 	0.00695784 	2.54803e-20 10.0676 	0.00663288 	3.46328e-20 10.0622 	0.00595202 	4.26851e-20 10.0625 	0.00590673 	3.48233e-20 10.0595 	0.00557156 	2.58788e-20 10.0565 	0.00523626 	1.69346e-20 10.0535 	0.00490084 	7.99089e-21 10.0484 	0.00435061 	1.44337e-22 10.0476 	0.00417739 	-7.90903e-21 10.0442 	0.00382589 	-1.70643e-20 10.0408 	0.00347429 	-2.622e-20 10.0375 	0.00312258 	-3.5376e-20 10.0328 	0.00266624 	-4.40875e-20 10.0306 	0.00238685 	-2.7142e-20 10.0269 	0.00201599 	-9.12255e-21 10.0231 	0.00164503 	8.89687e-21 10.0194 	0.00127396 	2.69163e-20 10.0153 	0.000880789 	4.45623e-20 10.0143 	0.000777137 	4.70404e-20 10.013 	0.000652449 	4.95814e-20 10.0117 	0.00052775 	5.21225e-20 10.0103 	0.000403039 	5.46638e-20 10.009 	0.000280124 	5.71683e-20 10.0061 	1.45176e-05 	6.27346e-20 10.0032 	-0.000251145 	6.83021e-20 10.0004 	-0.000516864 	7.38708e-20 9.99749 	-0.00078264 	7.94407e-20 9.98991 	-0.00120473 	8.22316e-20 9.98971 	-0.00145766 	7.29709e-20 9.98502 	-0.00186378 	6.37329e-20 9.98033 	-0.00227004 	5.44935e-20 9.97563 	-0.00267642 	4.52526e-20 9.95901 	-0.00349711 	3.76735e-20 9.96517 	-0.0035224 	1.75174e-20 9.96 	-0.00394229 	-4.02963e-21 9.95482 	-0.00436233 	-2.55763e-20 9.94964 	-0.00478252 	-4.71225e-20 9.9251 	-0.00588614 	-6.43102e-20 9.93774 	-0.00568256 	-5.26322e-20 9.93206 	-0.00611473 	-5.14964e-20 9.92638 	-0.00654708 	-5.03543e-20 9.92069 	-0.00697961 	-4.92058e-20 9.88818 	-0.00835493 	-6.39564e-20 9.90726 	-0.00793867 	-5.28847e-20 9.90107 	-0.00838184 	-3.8644e-20 9.89487 	-0.00882523 	-2.44024e-20 9.88867 	-0.00926882 	-1.01598e-20 9.84833 	-0.0108881 	0 9.87362 	-0.0102881 	-5.28031e-21 9.86692 	-0.0107416 	-1.2758e-20 9.8602 	-0.0111954 	-2.02352e-20 9.85348 	-0.0116494 	-2.77119e-20 9.80568 	-0.0134741 	-2.9752e-20 9.83678 	-0.0127291 	-3.23627e-20 9.82956 	-0.0131933 	-3.21929e-20 9.82234 	-0.0136578 	-3.20219e-20 9.8151 	-0.0141226 	-3.18499e-20 9.76037 	-0.0161063 	-3.05131e-20 9.79674 	-0.0152606 	-2.71347e-20 9.78901 	-0.0157356 	-1.94037e-20 9.78128 	-0.0162109 	-1.16722e-20 9.77354 	-0.0166866 	-3.94011e-21 9.7126 	-0.0187776 	-2.51621e-21 9.75352 	-0.0178778 	-6.7932e-21 9.74531 	-0.0183637 	-2.04898e-20 9.73709 	-0.0188501 	-3.41854e-20 9.72886 	-0.0193368 	-4.78799e-20 9.66256 	-0.0214794 	-5.38953e-20 9.70725 	-0.0205754 	-1.30797e-20 9.69857 	-0.0210721 	-1.17139e-20 9.68987 	-0.0215693 	-1.03402e-20 9.68117 	-0.0220668 	-8.95877e-21 9.61047 	-0.0242028 	-5.23452e-20 9.65804 	-0.0233442 	-4.68586e-20 9.64891 	-0.0238525 	-3.26073e-20 9.63977 	-0.0243613 	-1.83547e-20 9.63061 	-0.0248706 	-4.10104e-21 9.55656 	-0.0269463 	0 9.6061 	-0.0261793 	0 9.59655 	-0.0267008 	0 9.58699 	-0.027223 	0 9.57741 	-0.0277456 	0 9.50108 	-0.0297097 	0 9.55167 	-0.0290782 	2.70008e-21 9.54173 	-0.0296141 	1.73527e-20 9.53177 	-0.0301506 	3.2004e-20 9.5218 	-0.0306877 	4.6654e-20 9.44427 	-0.0324891 	6.13373e-20 9.49501 	-0.0320402 	4.91391e-20 9.4847 	-0.03259 	6.33071e-20 9.47438 	-0.0331404 	7.74708e-20 9.46405 	-0.0336915 	9.16303e-20 9.38633 	-0.0352772 	1.15788e-19 9.43638 	-0.0350502 	9.02062e-20 9.42574 	-0.0356125 	7.44861e-20 9.41509 	-0.0361756 	5.87616e-20 9.40189 	-0.0367685 	4.40528e-20 9.3275 	-0.0380654 	5.39932e-20 9.37189 	-0.038126 	4.34118e-20 9.36517 	-0.0386629 	2.27045e-20 9.35421 	-0.0392399 	1.15896e-21 9.33596 	-0.0398697 	-1.79602e-20 9.268 	-0.0408557 	-2.05013e-20 9.30618 	-0.0412042 	4.88924e-20 9.30331 	-0.0417548 	6.18231e-20 9.29207 	-0.042347 	6.32889e-20 9.26979 	-0.0429606 	4.93405e-20 9.20802 	-0.0436491 	-1.98385e-20 9.24036 	-0.0442743 	-1.68916e-20 9.24046 	-0.0448848 	-1.12232e-20 9.22898 	-0.0454906 	-4.57678e-21 9.20365 	-0.0460337 	0 9.14775 	-0.0464375 	0 9.17465 	-0.0473239 	0 9.17695 	-0.0480384 	0 9.16525 	-0.0486554 	0 9.13778 	-0.0490763 	0 9.08739 	-0.0492112 	0 9.10929 	-0.0503397 	0 9.11308 	-0.0511991 	0 9.10118 	-0.0518255 	0 9.07238 	-0.0520774 	0 9.02708 	-0.0519631 	0 9.04446 	-0.0533122 	0 9.04912 	-0.0543531 	4.05998e-21 9.03706 	-0.054987 	1.34719e-20 9.00763 	-0.0550293 	3.23675e-20 8.96699 	-0.0546884 	5.74025e-20 8.9803 	-0.0562341 	2.2511e-19 8.98533 	-0.0574872 	3.37254e-19 8.97312 	-0.058127 	3.33306e-19 8.94368 	-0.0579257 	2.10924e-19 8.90724 	-0.0573821 	4.0391e-20 8.91695 	-0.0590991 	-4.48254e-20 8.92192 	-0.0605888 	-1.14217e-19 8.9096 	-0.0612326 	-1.25114e-19 8.88063 	-0.0607611 	-7.71941e-20 8.84796 	-0.0600404 	-1.61556e-20 8.8545 	-0.0619024 	-1.27258e-20 8.8591 	-0.0636461 	-7.43077e-21 8.84668 	-0.0642927 	1.48224e-20 8.81858 	-0.0635327 	2.55195e-20 8.78926 	-0.0626611 	3.53088e-20 8.79304 	-0.0646427 	2.47047e-20 8.79674 	-0.0666266 	1.40941e-20 8.784 	-0.0672351 	2.9403e-20 8.75761 	-0.06624 	7.4556e-20 8.73125 	-0.0652439 	1.19712e-19 8.73264 	-0.0673196 	1.98226e-19 8.73396 	-0.0693977 	2.76735e-19 8.72161 	-0.0699771 	2.52486e-19 8.6978 	-0.0688838 	1.45297e-19 8.67403 	-0.0677895 	3.81044e-20 8.67338 	-0.0699355 	2.1538e-20 8.67264 	-0.0720839 	4.97726e-21 8.66074 	-0.072634 	-1.14634e-20 8.63919 	-0.0714673 	-2.96767e-20 8.61767 	-0.0702994 	-4.78922e-20 8.61528 	-0.0724928 	-2.92051e-20 8.6128 	-0.0746888 	-1.05138e-20 8.60139 	-0.0752102 	8.42395e-21 8.5818 	-0.0739945 	2.22079e-20 8.56226 	-0.0727776 	3.59949e-20 8.55839 	-0.0749995 	2.15239e-20 8.55443 	-0.0772237 	7.04691e-21 8.54356 	-0.0777171 	7.14787e-21 8.52568 	-0.0764724 	2.06977e-20 8.50784 	-0.0752266 	3.42425e-20 8.50272 	-0.0774549 	8.19281e-20 8.49752 	-0.0796857 	1.29625e-19 8.48722 	-0.0801517 	1.22974e-19 8.47082 	-0.0789009 	5.85707e-20 8.45446 	-0.077649 	-5.84189e-21 8.4483 	-0.0798727 	4.78165e-22 8.44205 	-0.0820987 	6.81421e-21 8.43234 	-0.0825398 	-1.61211e-20 8.41723 	-0.081298 	-4.30166e-20 8.40216 	-0.080055 	-6.99105e-20 8.39514 	-0.0822688 	-2.21002e-19 8.38802 	-0.0844849 	-3.72098e-19 8.37893 	-0.0849025 	-3.65755e-19 8.36493 	-0.0836768 	-2.07066e-19 8.35098 	-0.08245 	-4.83739e-20 8.34325 	-0.0846398 	-2.95543e-20 8.3354 	-0.0867746 	-1.08862e-20 8.32668 	-0.0871295 	3.09078e-21 8.31393 	-0.086032 	2.65762e-20 8.30094 	-0.0848367 	5.07e-20 8.29262 	-0.0869876 	8.38671e-20 8.28421 	-0.0888417 	1.08811e-19 8.27563 	-0.0892033 	9.26917e-20 8.26419 	-0.0883686 	4.99544e-20 8.25205 	-0.0872224 	3.06965e-22 8.24325 	-0.0893233 	-1.25236e-19 8.23453 	-0.0908981 	-2.12831e-19 8.2261 	-0.0912699 	-2.13862e-19 8.21572 	-0.090702 	-1.49621e-19 8.20431 	-0.0896213 	-4.97991e-20 8.19512 	-0.091671 	-3.52133e-20 8.1863 	-0.09298 	-2.90437e-20 8.178 	-0.0933653 	-3.33513e-20 8.16846 	-0.0930572 	-4.49404e-20 8.1577 	-0.0920486 	-6.38768e-20 8.14818 	-0.0940465 	-1.58997e-19 8.13945 	-0.095105 	-1.94647e-19 8.13127 	-0.095506 	-1.88695e-19 8.12238 	-0.095447 	-1.50968e-19 8.1122 	-0.0945146 	-5.29382e-20 8.10242 	-0.0964621 	-3.86677e-20 8.0939 	-0.0972874 	-2.48125e-20 8.08583 	-0.0977061 	-1.11083e-20 8.07745 	-0.0978839 	2.44187e-21 8.06778 	-0.0970295 	1.53383e-20 8.05777 	-0.0989294 	1.61688e-21 8.04958 	-0.0995397 	-3.3702e-21 8.04163 	-0.0999778 	-7.19091e-21 8.03361 	-0.100379 	-1.00246e-20 8.0244 	-0.0996035 	1.86205e-20 8.01428 	-0.101413 	4.24387e-20 8.00644 	-0.101873 	5.82391e-20 7.99858 	-0.102332 	7.40342e-20 7.9907 	-0.102792 	8.98239e-20 7.98203 	-0.102247 	6.7756e-20 7.97217 	-0.103814 	9.01604e-20 7.96442 	-0.104296 	9.31635e-20 7.95665 	-0.104779 	9.61636e-20 7.94886 	-0.105261 	9.91608e-20 7.94062 	-0.104968 	6.12144e-20 7.93112 	-0.106314 	5.77881e-20 7.92345 	-0.10682 	4.11157e-20 7.91576 	-0.107327 	2.44456e-20 7.90805 	-0.107834 	7.77775e-21 7.90013 	-0.107779 	-6.75645e-21 7.89107 	-0.108919 	0 7.88348 	-0.109451 	0 7.87586 	-0.109984 	0 7.86822 	-0.110517 	0 7.86051 	-0.110687 	0 7.85195 	-0.111639 	4.56275e-21 7.84442 	-0.112198 	1.1437e-20 7.83687 	-0.112758 	1.83122e-20 7.8293 	-0.113318 	2.51883e-20 7.82171 	-0.113701 	2.9816e-20 7.81371 	-0.11448 	3.13642e-20 7.80624 	-0.115067 	3.18368e-20 7.79874 	-0.115655 	3.23114e-20 7.79122 	-0.116243 	3.2788e-20 7.78368 	-0.116829 	3.32497e-20 7.78355 	-0.116842 	3.30971e-20 7.78344 	-0.116851 	3.28908e-20 7.78332 	-0.116861 	3.26844e-20 7.7832 	-0.116871 	3.24781e-20 7.78309 	-0.11688 	3.2272e-20 7.77547 	-0.11749 	1.93218e-20 7.76782 	-0.1181 	6.3716e-21 7.76015 	-0.118711 	-6.57859e-21 7.75245 	-0.119322 	-1.95288e-20 7.74608 	-0.119775 	-3.11993e-20 7.7376 	-0.120568 	-3.64325e-20 7.72986 	-0.121218 	-3.20227e-20 7.72211 	-0.121868 	-2.76211e-20 7.71432 	-0.122519 	-2.32278e-20 7.70919 	-0.122858 	-1.38624e-21 7.69996 	-0.123822 	-1.90608e-20 7.69226 	-0.124504 	-1.47743e-20 7.68452 	-0.125185 	-1.04988e-20 7.67676 	-0.125868 	-6.23445e-21 7.67295 	-0.126091 	2.76748e-20 7.66299 	-0.127223 	1.64238e-20 7.6553 	-0.127937 	-1.881e-21 7.64757 	-0.128651 	-2.01845e-20 7.63982 	-0.129366 	-3.84867e-20 7.63729 	-0.12948 	-5.19246e-20 7.6266 	-0.130776 	-4.13137e-20 7.61891 	-0.131525 	-4.03495e-20 7.61119 	-0.132274 	-3.93801e-20 7.60344 	-0.133023 	-3.84054e-20 7.60214 	-0.133033 	-4.96857e-20 7.59086 	-0.134469 	-3.68014e-20 7.58304 	-0.135275 	-1.82396e-20 7.57531 	-0.136059 	5.19611e-22 7.56858 	-0.136727 	1.72703e-20 7.56745 	-0.136757 	2.29935e-20 7.55625 	-0.138209 	6.53328e-20 7.54764 	-0.139192 	7.74086e-20 7.5399 	-0.140013 	7.90536e-20 7.53447 	-0.14057 	6.46151e-20 7.53318 	-0.140659 	2.1703e-20 7.52205 	-0.14213 	1.54419e-20 7.51264 	-0.143286 	4.22503e-22 7.50488 	-0.144146 	-2.28555e-20 7.50072 	-0.1446 	-4.94633e-20 7.49926 	-0.14475 	-7.85601e-20 7.48819 	-0.146241 	-1.90536e-19 7.478 	-0.147568 	-2.72644e-19 7.4702 	-0.148468 	-2.77727e-19 7.46728 	-0.148825 	-1.90024e-19 7.46565 	-0.149035 	-7.74212e-20 7.45462 	-0.15055 	-4.77225e-20 7.44365 	-0.152043 	-1.86432e-20 7.43587 	-0.152978 	-5.69772e-21 7.43408 	-0.15325 	-1.11315e-20 7.43228 	-0.153522 	-1.65651e-20 7.42128 	-0.155061 	-5.66365e-20 7.41023 	-0.156601 	-9.6705e-20 7.40306 	-0.157549 	-9.65685e-20 7.40109 	-0.157883 	-5.5896e-20 7.39911 	-0.158216 	-1.52213e-20 7.38814 	-0.159782 	-9.21697e-21 7.37711 	-0.161348 	-3.20994e-21 7.37041 	-0.162333 	0 7.36826 	-0.162728 	0 7.36609 	-0.163124 	0 7.35513 	-0.164719 	0 7.3441 	-0.166313 	0 7.33785 	-0.167336 	-1.38695e-21 7.33551 	-0.167794 	-6.59589e-21 7.33315 	-0.168252 	-1.18043e-20 7.32218 	-0.169878 	-5.01579e-20 7.31116 	-0.171503 	-8.85086e-20 7.30534 	-0.172565 	-8.84105e-20 7.30279 	-0.173086 	-4.43005e-20 7.30023 	-0.173607 	-1.85858e-22 7.28926 	-0.175265 	4.3397e-20 7.2793 	-0.176808 	7.78442e-20 7.27364 	-0.177888 	7.5571e-20 7.27007 	-0.178611 	3.98925e-20 7.26729 	-0.179195 	-8.70208e-21 7.25629 	-0.180887 	-3.09659e-21 7.24765 	-0.182322 	-3.4797e-23 7.24185 	-0.183452 	-1.25846e-23 7.23726 	-0.184372 	-4.43336e-21 7.23427 	-0.185019 	-1.4664e-20 7.22324 	-0.186747 	-3.21893e-21 7.21588 	-0.188081 	0 7.20993 	-0.189261 	0 7.20433 	-0.190377 	1.33877e-21 7.20111 	-0.191087 	1.11935e-20 7.19002 	-0.192852 	1.25246e-22 7.18391 	-0.194088 	-1.05744e-20 7.17781 	-0.195319 	-2.12736e-20 7.17167 	-0.196549 	-3.19764e-20 7.16775 	-0.197401 	-3.43912e-20 7.15793 	-0.199066 	-9.45488e-20 7.15171 	-0.200348 	-9.09948e-20 7.14544 	-0.20163 	-8.74169e-20 7.13913 	-0.202911 	-8.38151e-20 7.13413 	-0.203966 	-4.34937e-20 7.1256 	-0.205529 	-1.97014e-20 7.1192 	-0.206863 	-1.25941e-20 7.11276 	-0.208196 	-5.50761e-21 7.10628 	-0.20953 	1.55811e-21 7.1002 	-0.210786 	4.30225e-21 7.09596 	-0.211605 	3.9142e-21 7.09246 	-0.212346 	9.37086e-21 7.08894 	-0.213087 	1.48287e-20 7.08541 	-0.213827 	2.02877e-20 7.082 	-0.21454 	2.55419e-20 7.0787 	-0.215189 	2.97448e-20 7.07539 	-0.215839 	3.39468e-20 7.07208 	-0.216488 	3.81477e-20 7.06875 	-0.217137 	4.23477e-20 7.06554 	-0.217723 	4.80242e-20 7.05861 	-0.219222 	5.10658e-20 7.05147 	-0.220657 	5.86018e-20 7.04428 	-0.222093 	6.61238e-20 7.03704 	-0.223528 	7.3632e-20 7.03017 	-0.224764 	8.59635e-20 7.02333 	-0.226452 	4.78421e-20 7.01598 	-0.22794 	3.34322e-20 7.00857 	-0.229429 	1.8989e-20 7.00111 	-0.230917 	4.51234e-21 6.9943 	-0.232072 	3.54517e-20 6.98754 	-0.233948 	6.37911e-20 6.97996 	-0.235489 	5.62922e-20 6.97233 	-0.23703 	4.88078e-20 6.96476 	-0.238511 	3.6981e-20 6.95785 	-0.239647 	1.69391e-22 6.95092 	-0.241593 	-3.14331e-23 6.94337 	-0.243304 	5.42533e-21 6.93549 	-0.244897 	1.37077e-20 6.92796 	-0.246291 	2.19815e-20 6.92078 	-0.247487 	3.0248e-20 6.91359 	-0.249478 	2.06372e-20 6.90613 	-0.251383 	1.30612e-20 6.89799 	-0.253028 	1.16248e-20 6.89047 	-0.254338 	2.25662e-20 6.88301 	-0.255593 	3.55317e-20 6.87556 	-0.25763 	5.66568e-20 6.86804 	-0.259666 	7.77784e-20 6.85995 	-0.261338 	7.71819e-20 6.85224 	-0.262651 	5.49199e-20 6.84448 	-0.263964 	3.26534e-20 6.83675 	-0.266047 	1.94059e-20 6.82895 	-0.268128 	6.15569e-21 6.82122 	-0.269859 	5.57509e-21 6.81321 	-0.271229 	2.09955e-20 6.80513 	-0.272599 	3.64089e-20 6.79712 	-0.274726 	-1.52499e-20 6.78902 	-0.276851 	-6.6751e-20 6.78156 	-0.278609 	-5.95459e-20 6.7733 	-0.280069 	-1.12758e-20 6.7649 	-0.281495 	4.15495e-20 6.75658 	-0.283665 	5.24422e-20 6.74846 	-0.285688 	5.63682e-20 6.74066 	-0.287495 	5.01196e-20 6.73246 	-0.289167 	3.60736e-20 6.72372 	-0.290649 	1.10831e-20 6.71508 	-0.292862 	-2.9893e-20 6.7069 	-0.294782 	-3.85424e-20 6.69876 	-0.296638 	-4.0124e-20 6.69055 	-0.298493 	-4.16864e-20 6.68153 	-0.300057 	-2.32075e-20 6.67272 	-0.302226 	-1.41109e-20 6.6643 	-0.304129 	-1.44043e-20 6.6558 	-0.306032 	-1.47032e-20 6.64723 	-0.307934 	-1.50076e-20 6.63827 	-0.309715 	-1.94762e-20 6.63187 	-0.311215 	-1.28385e-20 6.62561 	-0.312605 	-7.69921e-21 6.61932 	-0.313994 	-2.55993e-21 6.61299 	-0.315384 	2.5793e-21 6.60696 	-0.316697 	7.43757e-21 6.60457 	-0.317271 	8.7853e-21 6.60217 	-0.317845 	1.01313e-20 6.59977 	-0.318418 	1.14757e-20 6.59736 	-0.318992 	1.28184e-20 6.59483 	-0.319518 	1.75589e-20 6.58688 	-0.321564 	2.82495e-20 6.57857 	-0.323557 	3.66081e-20 6.57019 	-0.32555 	4.49762e-20 6.56174 	-0.327542 	5.33539e-20 6.55273 	-0.329326 	4.71305e-20 6.5454 	-0.331591 	5.65157e-20 6.53672 	-0.333625 	5.37551e-20 6.52796 	-0.335659 	5.10018e-20 6.51913 	-0.337692 	4.82556e-20 6.50935 	-0.339357 	2.74154e-20 6.50228 	-0.341776 	1.9694e-20 6.49358 	-0.343915 	1.69485e-20 6.48443 	-0.345987 	1.53871e-20 6.47483 	-0.3479 	1.71764e-20 6.46463 	-0.349601 	2.34122e-20 6.45715 	-0.35205 	4.19517e-20 6.4491 	-0.354414 	5.61761e-20 6.43955 	-0.356521 	5.73193e-20 6.42912 	-0.358303 	3.95211e-20 6.41852 	-0.360045 	1.94009e-20 6.4106 	-0.362522 	1.20342e-20 6.40259 	-0.364998 	4.66212e-21 6.39292 	-0.367119 	1.98492e-21 6.38196 	-0.368897 	4.9808e-21 6.37094 	-0.370676 	7.97496e-21 6.36257 	-0.373176 	4.25971e-21 6.35411 	-0.375676 	5.41531e-22 6.34469 	-0.377854 	-5.357e-21 6.3333 	-0.379666 	-9.03492e-21 6.32183 	-0.381477 	-1.27205e-20 6.31299 	-0.383998 	-1.10634e-20 6.30375 	-0.386393 	-1.04866e-20 6.29383 	-0.388563 	-1.18403e-20 6.28305 	-0.390593 	-1.42053e-20 6.27112 	-0.392433 	-1.79589e-20 6.26181 	-0.394971 	-1.63289e-20 6.25161 	-0.397204 	-1.15948e-20 6.24121 	-0.399393 	-6.42418e-21 6.23072 	-0.401582 	-1.25887e-21 6.21876 	-0.403524 	0 6.20859 	-0.405933 	0 6.19778 	-0.408138 	0 6.18688 	-0.410341 	0 6.17588 	-0.412543 	0 6.16469 	-0.414726 	0 6.16378 	-0.414929 	0 6.16283 	-0.415116 	0 6.16188 	-0.415303 	0 6.16093 	-0.41549 	0 6.15999 	-0.415676 	0 6.15005 	-0.417706 	0 6.14004 	-0.419735 	0 6.12996 	-0.421764 	0 6.1198 	-0.423793 	0 6.1099 	-0.425654 	-5.55052e-21 6.09891 	-0.428082 	2.97925e-23 6.08749 	-0.430302 	1.12103e-22 6.07598 	-0.43252 	1.94323e-22 6.06441 	-0.434719 	-5.15607e-22 6.05338 	-0.436603 	-1.4479e-20 6.04205 	-0.439145 	-2.33325e-20 6.0303 	-0.44148 	-2.82403e-20 6.01825 	-0.443696 	-3.08651e-20 6.00651 	-0.445702 	-2.11875e-20 5.99491 	-0.447586 	-4.2646e-21 5.98306 	-0.450119 	-2.23259e-21 5.9711 	-0.45265 	-2.03401e-22 5.95871 	-0.454831 	-2.45874e-21 5.94663 	-0.456711 	-1.5966e-21 5.93445 	-0.458591 	-7.26111e-22 5.92206 	-0.461113 	6.06974e-22 5.90955 	-0.463633 	1.95009e-21 5.89739 	-0.465861 	-4.71864e-21 5.88472 	-0.467731 	-1.31831e-20 5.87195 	-0.4696 	-2.16504e-20 5.859 	-0.472105 	-1.27198e-20 5.84618 	-0.474461 	-1.07481e-20 5.83358 	-0.476633 	-1.74279e-20 5.82074 	-0.478728 	-2.66056e-20 5.80737 	-0.480576 	-4.39718e-20 5.79389 	-0.483026 	-8.75828e-20 5.78078 	-0.485167 	-6.18441e-20 5.76758 	-0.487307 	-3.6037e-20 5.75428 	-0.489446 	-1.01613e-20 5.74066 	-0.491469 	2.85081e-20 5.73517 	-0.492385 	1.6759e-20 5.72979 	-0.493211 	2.169e-20 5.7244 	-0.494037 	2.66342