/*--------------------------------*- C++ -*----------------------------------*\
| =========                 |                                                 |
| \\      /  F ield         | OpenFOAM: The Open Source CFD Toolbox           |
|  \\    /   O peration     | Version:  4.1                                   |
|   \\  /    A nd           | Web:      www.OpenFOAM.org                      |
|    \\/     M anipulation  |                                                 |
\*---------------------------------------------------------------------------*/
FoamFile
{
    version     2.0;
    format      ascii;
    class       volScalarField;
    location    "26";
    object      p;
}
// * * * * * * * * * * * * * * * * * * * * * * * * * * * * * * * * * * * * * //

dimensions      [0 2 -2 0 0 0 0];

internalField   nonuniform List<scalar> 
26785
(
44.8883
43.5101
42.8204
42.045
41.5201
41.1976
41.2455
41.3149
41.4735
41.6509
41.8555
41.992
42.0286
41.8929
41.6519
41.226
40.7375
40.023
39.1466
38.0242
36.698
35.2055
33.637
31.9866
30.3794
28.7249
27.137
25.5272
24.0087
22.5704
21.3064
20.212
19.3005
18.5692
17.9936
17.582
17.31
17.2065
17.2668
17.5052
17.9037
18.4609
19.1554
19.9791
20.9095
21.9449
23.0401
24.1385
25.3863
26.6494
28.015
29.3209
30.6698
31.9427
33.2647
34.5405
35.86
37.0953
38.3242
39.4491
40.5321
41.4924
42.3934
43.182
43.9025
44.509
45.0541
45.5123
45.9195
46.241
46.5042
46.6748
46.7705
46.7542
46.6351
46.3802
45.9892
45.4378
44.7196
43.8239
42.7439
41.4864
40.0466
38.4479
36.6885
34.8029
32.7876
30.6799
28.474
26.2067
23.8684
21.4909
19.0617
16.6067
14.1094
11.5917
9.02842
6.46562
3.78893
1.40662
44.8649
43.5083
42.8183
42.0394
41.517
41.197
41.2461
41.316
41.4755
41.654
41.8596
41.9963
42.0324
41.8958
41.6534
41.2264
40.7373
40.022
39.1455
38.023
36.6973
35.2056
33.638
31.9884
30.3818
28.727
27.1378
25.5255
24.0044
22.5638
21.2982
20.2032
19.2917
18.5608
17.9856
17.5744
17.3028
17.1996
17.2601
17.4985
17.897
18.4541
19.1484
19.9721
20.9025
21.9382
23.0338
24.1326
25.3815
26.6454
28.0124
29.3188
30.6689
31.9423
33.2658
34.5428
35.8643
37.1005
38.3306
39.4553
40.5389
41.4989
42.4004
43.1884
43.9091
44.5153
45.0609
45.5196
45.9279
46.2502
46.5148
46.6867
46.7843
46.7697
46.6527
46.3996
46.0105
45.4603
44.7431
43.8477
42.7675
41.509
40.0679
38.4671
36.7059
34.8178
32.8004
30.6903
28.4826
26.2133
23.8737
21.495
19.0653
16.6097
14.1126
11.5945
9.03259
6.46798
3.81767
1.38833
44.8275
43.511
42.8164
42.0289
41.5103
41.1949
41.2457
41.3167
41.4776
41.6585
41.8662
42.0042
42.0401
41.9024
41.6581
41.2298
40.74
40.0236
39.1466
38.0234
36.6978
35.2068
33.6401
31.9918
30.3861
28.7309
27.1397
25.5236
23.9978
22.5533
21.285
20.1889
19.277
18.5465
17.9718
17.5611
17.2899
17.1872
17.248
17.4866
17.8852
18.4423
19.1367
19.9604
20.8912
21.9274
23.0238
24.1239
25.3746
26.6403
28.0091
29.3166
30.668
31.9427
33.2682
34.5472
35.871
37.1089
38.3404
39.4651
40.5489
41.509
42.4107
43.1982
43.9185
44.5245
45.0711
45.531
45.9411
46.2652
46.5319
46.7059
46.8061
46.7942
46.68
46.4293
46.0426
45.4939
44.7779
43.8823
42.8016
41.5411
40.0978
38.4936
36.7292
34.8372
32.8165
30.7027
28.492
26.2196
23.8781
21.4973
19.0665
16.6098
14.1124
11.5938
9.03213
6.46785
3.81809
1.38798
44.7829
43.5156
42.808
42.0095
41.4979
41.1906
41.2445
41.3173
41.4806
41.6655
41.8765
42.0162
42.0516
41.9122
41.6653
41.2355
40.7448
40.0272
39.1493
38.0252
36.6996
35.2095
33.6438
31.9967
30.3916
28.7352
27.1405
25.5186
23.9866
22.5373
21.2661
20.169
19.2575
18.5278
17.9538
17.5434
17.2726
17.17
17.2309
17.4693
17.868
18.4249
19.1193
19.9432
20.8746
21.9115
23.0091
24.1117
25.3643
26.633
28.0036
29.3134
30.6662
31.9434
33.2713
34.5539
35.8802
37.1211
38.3534
39.4785
40.5617
41.5226
42.4237
43.2107
43.9297
44.536
45.0832
45.5451
45.9572
46.2841
46.5533
46.7306
46.834
46.8259
46.7154
46.4684
46.0847
45.5386
44.8243
43.9293
42.848
41.5856
40.1396
38.5316
36.7632
34.8664
32.8414
30.7227
28.5081
26.2317
23.8872
21.5037
19.0715
16.6136
14.1157
11.5968
9.035
6.4717
3.81213
1.39812
44.7346
43.5184
42.7902
41.9815
41.481
41.1849
41.2427
41.318
41.4842
41.6738
41.8886
42.0302
42.0649
41.9234
41.674
41.243
40.7519
40.0336
39.1551
38.0302
36.7046
35.2152
33.6504
32.0041
30.399
28.7402
27.1406
25.5118
23.9728
22.5183
21.244
20.1461
19.2347
18.5055
17.9317
17.5209
17.2497
17.1464
17.2069
17.4447
17.8432
18.3999
19.0945
19.9188
20.8512
21.8895
22.9889
24.0949
25.3499
26.6224
27.9953
29.3081
30.6628
31.9431
33.2739
34.5605
35.8896
37.1339
38.3671
39.4927
40.5752
41.5374
42.4381
43.2251
43.943
44.55
45.0983
45.5632
45.9782
46.3092
46.5821
46.764
46.8721
46.8693
46.7641
46.5225
46.1436
45.6016
44.8901
43.9964
42.9148
41.6503
40.2007
38.5877
36.8133
34.91
32.8782
30.7528
28.5318
26.2498
23.9006
21.5135
19.0788
16.619
14.1201
11.6004
9.03816
6.47468
3.81405
1.40008
44.6866
43.5105
42.7573
41.9445
41.4605
41.1789
41.2417
41.3203
41.49
41.685
41.904
42.0474
42.0809
41.9373
41.6856
41.2543
40.7633
40.0451
39.1661
38.0408
36.7152
35.2265
33.6619
32.0151
30.4081
28.7445
27.1377
25.4997
23.9525
22.4923
21.2152
20.1168
19.2061
18.4773
17.9034
17.4915
17.2193
17.1149
17.1744
17.4113
17.8095
18.3661
19.0612
19.8865
20.8206
21.861
22.9629
24.0728
25.3312
26.6081
27.9844
29.3006
30.6579
31.9419
33.2766
34.568
35.901
37.1492
38.3848
39.5113
40.5937
41.5569
42.4575
43.2445
43.9619
44.5699
45.12
45.5884
46.0073
46.3432
46.6211
46.809
46.9233
46.9275
46.8291
46.5943
46.2214
45.6846
44.9766
44.0845
43.0022
41.7348
40.2801
38.6605
36.8781
34.966
32.925
30.7907
28.5614
26.272
23.9169
21.5252
19.0871
16.6251
14.1247
11.6043
9.04149
6.47776
3.82083
1.39727
44.6541
43.499
42.7171
41.9047
41.4395
41.1728
41.2407
41.3226
41.4963
41.697
41.9203
42.0653
42.098
41.9525
41.6995
41.2686
40.7786
40.061
39.1816
38.0558
36.7297
35.2409
33.6754
32.027
30.4168
28.7473
27.132
25.4843
23.9284
22.4625
21.1829
20.0843
19.1741
18.4455
17.8709
17.4574
17.1836
17.0775
17.1359
17.3721
17.7701
18.327
19.023
19.8497
20.7859
21.8289
22.9339
24.048
25.3104
26.592
27.972
29.2917
30.6519
31.9396
33.2786
34.5751
35.9127
37.1648
38.4032
39.5315
40.6141
41.5782
42.4788
43.2659
43.9831
44.5922
45.1445
45.6169
46.0404
46.382
46.6662
46.8609
46.9827
46.9945
46.9039
46.6764
46.3103
45.779
45.0749
44.1846
43.1016
41.8311
40.3709
38.7437
36.9522
35.0301
32.9786
30.834
28.595
26.2973
23.9353
21.5384
19.0966
16.6322
14.1302
11.6087
9.04528
6.48124
3.82736
1.39602
44.6322
43.476
42.6668
41.8607
41.4161
41.1654
41.2392
41.3253
41.5041
41.7113
41.9392
42.0858
42.1177
41.9709
41.7172
41.2876
40.799
40.0823
39.2023
38.0758
36.7487
35.2596
33.6923
32.0412
30.4263
28.7492
27.1238
25.4648
23.8995
22.4278
21.1461
20.0479
19.1387
18.4102
17.8344
17.4187
17.1425
17.0344
17.0913
17.3263
17.724
18.2812
18.9782
19.8066
20.7452
21.7911
22.8997
24.0185
25.2854
26.5721
27.9567
29.2803
30.6442
31.9362
33.2809
34.5834
35.9275
37.1838
38.4256
39.5561
40.6396
41.6043
42.5051
43.2918
44.0091
44.6195
45.1747
45.6513
46.0801
46.4281
46.7196
46.9226
47.0531
47.0738
46.992
46.7728
46.4142
45.8892
45.1896
44.3015
43.218
41.9442
40.4779
38.8423
37.0403
35.1065
33.0426
30.8858
28.6353
26.3276
23.9573
21.5542
19.108
16.6405
14.1366
11.6138
9.04928
6.48498
3.82882
1.401
44.6147
43.4437
42.6142
41.8182
41.3929
41.1572
41.2367
41.3275
41.5119
41.7261
41.959
42.107
42.1385
41.991
41.7373
41.3097
40.8231
40.1075
39.2268
38.0991
36.7704
35.28
33.7102
32.0559
30.4362
28.751
27.1149
25.4439
23.8686
22.3911
21.1074
20.0096
19.1011
18.3723
17.7945
17.3757
17.0966
16.9859
17.041
17.2749
17.6724
18.23
18.9284
19.7589
20.7004
21.7497
22.8626
23.9866
25.2583
26.5504
27.9397
29.2674
30.6354
31.9318
33.2825
34.5909
35.9421
37.2028
38.4475
39.5806
40.6655
41.631
42.5318
43.3181
44.0358
44.6479
45.2065
45.6879
46.1224
46.4773
46.7771
46.9894
47.1297
47.1602
47.0878
46.8774
46.5268
46.0084
45.3136
44.4279
43.3441
42.0669
40.5942
38.9494
37.136
35.1892
33.1116
30.9411
28.6778
26.3591
23.9799
21.5702
19.1193
16.6487
14.1427
11.6188
9.05282
6.4887
3.82442
1.4106
44.5888
43.3988
42.559
41.7755
41.3681
41.1472
41.2334
41.33
41.5211
41.7431
41.9812
42.131
42.162
42.0143
41.7613
41.3365
40.8523
40.138
39.2563
38.1273
36.7967
35.3049
33.732
32.0738
30.4482
28.7533
27.1045
25.4196
23.8334
22.35
21.0648
19.9682
19.0606
18.3312
17.7508
17.3281
17.0451
16.9314
16.9843
17.2168
17.614
18.1724
18.8726
19.7057
20.6505
21.7037
22.8213
23.9508
25.2278
26.5254
27.9203
29.2526
30.6254
31.9268
33.2846
34.6001
35.9595
37.2257
38.4735
39.6092
40.6968
41.6633
42.5636
43.3491
44.0674
44.682
45.2448
45.7313
46.1717
46.534
46.843
47.0656
47.2171
47.2585
47.1968
46.9961
46.6541
46.143
45.4535
44.5706
43.4866
42.2058
40.7261
39.0711
37.2449
35.2833
33.1898
31.0035
28.7256
26.3941
24.0048
21.5874
19.1311
16.6569
14.1486
11.6234
9.05598
6.49194
3.81953
1.41899
44.5552
43.3456
42.5034
41.7328
41.3414
41.1353
41.2286
41.3318
41.5301
41.7605
42.0041
42.1556
42.1865
42.039
41.7873
41.366
40.8848
40.1719
39.2892
38.1582
36.8253
35.3312
33.7549
32.0926
30.4609
28.7557
27.0936
25.3941
23.7966
22.3075
21.0212
19.9257
19.0187
18.2879
17.7037
17.2762
16.9889
16.8716
16.9223
17.1537
17.5511
18.1107
18.8134
19.6497
20.5982
21.6556
22.7782
23.9131
25.1954
26.4986
27.8991
29.2362
30.6138
31.9203
33.2854
34.6086
35.9756
37.2476
38.4991
39.6371
40.7277
41.6955
42.5945
43.3793
44.0986
44.7164
45.2841
45.7761
46.2229
46.593
46.9117
47.1454
47.3087
47.362
47.3118
47.1216
46.7889
46.2852
45.6012
44.7211
43.637
42.3524
40.8653
39.1992
37.3589
35.3811
33.2701
31.0665
28.7727
26.4277
24.0278
21.6026
19.1411
16.6635
14.1532
11.6271
9.05867
6.49486
3.81745
1.42462
44.5152
43.2855
42.4447
41.6874
41.312
41.1219
41.2234
41.3341
41.5407
41.7802
42.0295
42.183
42.2137
42.067
41.8174
41.4005
40.9228
40.2113
39.3272
38.1942
36.8586
35.3624
33.7822
32.1149
30.4758
28.7583
27.0809
25.3652
23.7561
22.2618
20.975
19.8812
18.9747
18.2418
17.653
17.2197
16.9272
16.8061
16.8544
17.0846
17.4824
18.0437
18.7494
19.5893
20.5415
21.603
22.7306
23.871
25.1589
26.4681
27.8752
29.2178
30.6012
31.9136
33.2875
34.6195
35.9949
37.2735
38.5298
39.671
40.764
41.7329
42.6302
43.4143
44.1353
44.7571
45.3302
45.828
46.2815
46.6598
46.9886
47.2341
47.4103
47.4768
47.4394
47.2607
46.9381
46.4424
45.7644
44.8873
43.8031
42.5144
41.0191
39.3407
37.4846
35.4882
33.3575
31.1344
28.8227
26.4629
24.0513
21.6177
19.1505
16.6693
14.1569
11.6299
9.06058
6.49725
3.81588
1.42962
44.4729
43.2232
42.385
41.6409
41.2812
41.1073
41.217
41.3358
41.5508
41.7999
42.0552
42.2107
42.2416
42.0963
41.8495
41.4376
40.9638
40.2538
39.3683
38.2328
36.8942
35.3951
33.8105
32.1381
30.4913
28.761
27.0676
25.3355
23.715
22.2159
20.9289
19.8364
18.9296
18.1934
17.599
17.159
16.8609
16.7358
16.782
17.0114
17.4101
17.9735
18.6828
19.5267
20.4828
21.5484
22.6809
23.8269
25.1205
26.4361
27.85
29.1981
30.5872
31.9053
33.2882
34.629
36.0125
37.2976
38.559
39.7047
40.7989
41.7682
42.6639
43.4482
44.1715
44.7978
45.3763
45.8802
46.3413
46.7283
47.0676
47.325
47.5147
47.595
47.571
47.4044
47.0923
46.6049
45.9332
45.0594
43.9755
42.6825
41.1785
39.4867
37.6134
35.5968
33.4444
31.2004
28.8698
26.4945
24.0711
21.6292
19.1564
16.672
14.158
11.6308
9.06121
6.49928
3.81327
1.43623
44.4218
43.156
42.3213
41.5913
41.2483
41.0916
41.2103
41.3379
41.5625
41.8219
42.0834
42.2412
42.2725
42.1293
41.8862
41.48
41.0104
40.3019
39.4146
38.2766
36.9348
35.4329
33.8437
32.1652
30.5092
28.7638
27.0528
25.303
23.671
22.1677
20.881
19.79
18.8825
18.1423
17.5413
17.0938
16.7896
16.6605
16.7046
16.9332
17.3329
17.8987
18.6118
19.4599
20.42
21.4893
22.6267
23.7784
25.0782
26.4007
27.8223
29.1765
30.5719
31.8969
33.2902
34.6413
36.034
37.3263
38.5931
39.7445
40.8401
41.8081
42.7029
43.4885
44.215
44.846
45.4298
45.9404
46.4096
46.8056
47.1552
47.4248
47.6278
47.7223
47.7121
47.5584
47.2577
46.78
46.116
45.2468
44.1637
42.8665
41.3529
39.6461
37.7531
35.7136
33.5368
31.2694
28.918
26.5259
24.0897
21.6389
19.1604
16.6728
14.1574
11.6303
9.06099
6.50088
3.80996
1.44425
44.3656
43.0883
42.2562
41.5404
41.2143
41.0747
41.2025
41.3394
41.5737
41.8438
42.1117
42.2719
42.3039
42.1634
41.9245
41.5247
41.0596
40.3526
39.4635
38.3225
36.9773
35.4718
33.8776
32.1927
30.5272
28.7665
27.0375
25.2701
23.627
22.12
20.8335
19.7432
18.8342
18.0887
17.4801
17.0246
16.7142
16.5811
16.6234
16.8518
17.253
17.8217
18.539
19.3916
20.3555
21.4285
22.5705
23.7279
25.0341
26.3637
27.7929
29.153
30.5545
31.8863
33.2903
34.6519
36.0537
37.3537
38.6258
39.7822
40.8799
41.845
42.7404
43.5275
44.2582
44.8935
45.4826
46.0007
46.4787
46.8834
47.2428
47.5242
47.7405
47.8492
47.8533
47.713
47.4251
46.9581
46.303
45.4389
44.3571
43.0555
41.5317
39.8085
37.8941
35.8298
33.6266
31.3344
28.9612
26.5519
24.1031
21.6438
19.1601
16.6699
14.1537
11.6276
9.0594
6.50182
3.80634
1.45364
44.2987
43.0153
42.1864
41.4863
41.1784
41.057
41.1944
41.3414
41.5865
41.8679
42.1424
42.3053
42.3383
42.2014
41.9678
41.575
41.1146
40.4091
39.5178
38.374
37.0253
35.5164
33.9167
32.2245
30.5476
28.7694
27.021
25.235
23.5812
22.0707
20.7846
19.6949
18.7836
18.032
17.4149
16.9509
16.6342
16.4973
16.5379
16.7663
17.1693
17.7407
18.4622
19.3192
20.2869
21.3631
22.5096
23.6727
24.9858
26.3231
27.7608
29.1272
30.5355
31.8759
33.2927
34.6657
36.0783
37.3869
38.6653
39.8249
40.9247
41.8871
42.7841
43.573
44.3098
44.9495
45.5442
46.0705
46.5566
46.9694
47.3381
47.6312
47.8602
47.9829
48.0015
47.8751
47.6006
47.1459
46.5016
45.6447
44.5653
43.26
41.7252
39.984
38.0454
35.9529
33.7201
31.4004
29.0036
26.576
24.1139
21.6459
19.157
16.6644
14.1478
11.623
9.05634
6.50158
3.80226
1.4634
44.2292
42.9425
42.1156
41.4315
41.142
41.0384
41.1853
41.3427
41.5988
41.8918
42.173
42.3387
42.3732
42.2405
42.0127
41.6273
41.1719
40.4677
39.5743
38.4273
37.075
35.5619
33.9564
32.2565
30.5679
28.7721
27.0043
25.2002
23.5359
22.0222
20.7362
19.646
18.7311
17.972
17.3458
16.873
16.5503
16.41
16.4493
16.6784
17.0835
17.6579
18.3838
19.2455
20.2166
21.2956
22.4467
23.6156
24.9357
26.2808
27.7264
29.0987
30.5142
31.8635
33.2931
34.6776
36.1017
37.4189
38.7031
39.865
40.9645
41.9263
42.8242
43.6169
44.36
45.0037
45.6047
46.1397
46.634
47.0567
47.4357
47.7395
47.9793
48.1136
48.1446
48.0314
47.7715
47.3315
46.7008
45.8533
44.7776
43.4686
41.9219
40.1606
38.1952
36.0722
33.8079
31.4595
29.0389
26.5933
24.1185
21.6426
19.1491
16.6546
14.1383
11.6152
9.05079
6.49937
3.79761
1.4724
44.1529
42.8649
42.0404
41.3737
41.1039
41.019
41.176
41.3448
41.6128
41.918
42.2061
42.3749
42.4115
42.284
42.0629
41.6854
41.235
40.5322
39.6363
38.4865
37.1307
35.6136
34.0019
32.2931
30.5909
28.7756
26.9874
25.1642
23.4897
21.9731
20.6871
19.5957
18.6761
17.9087
17.2729
16.7914
16.4625
16.3188
16.357
16.5869
16.9939
17.5713
18.3017
19.1678
20.1417
21.2233
22.3792
23.5541
24.8814
26.2347
27.6888
29.0675
30.4918
31.8518
33.2962
34.6937
36.1311
37.4563
38.7467
39.9111
41.0071
41.9705
42.8687
43.6678
44.4173
45.0664
45.6761
46.2201
46.7248
47.1592
47.5469
47.8566
48.1018
48.2442
48.2871
48.1893
47.9473
47.5258
46.9119
46.0758
45.0044
43.691
42.131
40.3472
38.3519
36.1951
33.8965
31.5176
29.072
26.6077
24.1199
21.6357
19.1373
16.6409
14.1247
11.6035
9.04158
6.49389
3.79166
1.47885
44.0748
42.7869
41.9647
41.3153
41.0652
40.9988
41.1657
41.3463
41.6265
41.944
42.2389
42.411
42.4501
42.3283
42.1143
41.7451
41.2998
40.5983
39.7001
38.5471
37.1877
35.6657
34.0471
32.3291
30.613
28.7786
26.9703
25.1287
23.4445
21.925
20.6381
19.5442
18.6187
17.8424
17.197
16.7066
16.3716
16.2244
16.2618
16.493
16.902
17.4833
18.2187
19.0888
20.0651
21.1491
22.31
23.4907
24.8252
26.1865
27.6485
29.0332
30.4668
31.8379
33.2972
34.7083
36.1586
37.4909
38.7868
39.9541
41.0443
42.0089
42.909
43.7154
44.4708
45.1304
45.7476
46.3001
46.8183
47.264
47.6566
47.9674
48.2151
48.3654
48.422
48.342
48.1204
47.7189
47.1229
46.2987
45.2317
43.9134
42.339
40.5312
38.504
36.3116
33.9776
31.5676
29.0971
26.6146
24.114
21.6217
19.1187
16.6204
14.1049
11.5862
9.02755
6.48451
3.78431
1.4818
43.9886
42.7034
41.8848
41.2542
41.025
40.9777
41.1553
41.3487
41.642
41.9723
42.2743
42.4501
42.4923
42.3774
42.1714
41.8108
41.3706
40.6702
39.7697
38.6138
37.2512
35.7245
34.0984
32.3695
30.6378
28.7826
26.9536
25.0927
23.3988
21.8762
20.5875
19.4905
18.559
17.7737
17.1183
16.6186
16.2771
16.1266
16.1635
16.3957
16.8067
17.3922
18.1322
19.0055
19.9833
21.0698
22.2362
23.4229
24.7647
26.1341
27.6047
28.9965
30.441
31.8254
33.302
34.7284
36.1908
37.5296
38.8312
40.0004
41.0873
42.052
42.9581
43.7704
44.529
45.2091
45.8317
46.3952
46.9251
47.377
47.7708
48.0814
48.3312
48.4901
48.561
48.4995
48.2985
47.9183
47.3418
46.531
45.4691
44.1463
42.557
40.7232
38.6612
36.43
34.0578
31.6147
29.1177
26.6157
24.1013
21.6002
19.0922
16.5921
14.0775
11.5619
9.0075
6.47011
3.77464
1.48041
43.8993
42.619
41.8044
41.1927
40.9843
40.956
41.144
41.3505
41.6572
42.0002
42.3094
42.489
42.535
42.4273
42.2296
41.8778
41.4427
40.7434
39.8406
38.6817
37.316
35.7838
34.1496
32.4089
30.6613
28.7863
26.937
25.0575
23.3538
21.8272
20.5353
19.4349
18.4969
17.7023
17.0365
16.5271
16.1793
16.0259
16.0631
16.2964
16.71
17.3004
18.0447
18.9204
19.8993
20.9887
22.1606
23.3531
24.7023
26.0794
27.558
28.9565
30.4125
31.8108
33.3053
34.7472
36.2194
37.5639
38.87
40.0392
41.1286
42.0932
43.0043
43.8193
44.5815
45.2844
45.9151
46.4916
47.0278
47.4836
47.8796
48.1914
48.4438
48.6102
48.694
48.6497
48.4699
48.1119
47.5562
46.7598
45.7041
44.3773
42.7727
40.9115
38.8122
36.54
34.1279
31.6507
29.1266
26.605
24.0768
21.5669
19.0545
16.5533
14.0408
11.5297
8.9811
6.45095
3.76283
1.47541
43.8042
42.5296
41.7203
41.1288
40.9423
40.9334
41.1327
41.3534
41.6743
42.0307
42.3471
42.531
42.5815
42.4822
42.2936
41.951
41.5209
40.8228
39.9174
38.7561
37.3879
35.8499
34.2078
32.4529
30.6887
28.793
26.9225
25.0228
23.3089
21.7771
20.481
19.3776
18.4325
17.628
16.9511
16.4317
16.0782
15.9228
15.9605
16.1944
16.6109
17.2058
17.9532
18.8303
19.8097
20.9028
22.0803
23.2787
24.6356
26.0204
27.5077
28.9142
30.3836
31.7976
33.3124
34.771
36.2513
37.601
38.9134
40.0824
41.1756
42.1407
43.0615
43.8729
44.6514
45.363
46.0068
46.5999
47.138
47.6003
47.9974
48.3094
48.5628
48.7344
48.8291
48.8018
48.6437
48.3097
47.7761
46.9956
45.9471
44.6172
42.9973
41.1063
38.9653
36.6473
34.1914
31.6769
29.1235
26.5809
24.0383
21.5198
19.0036
16.5028
13.9937
11.489
8.94791
6.42665
3.74823
1.46744
43.709
42.4401
41.6361
41.0647
40.8999
40.9102
41.1205
41.3559
41.6912
42.0607
42.3844
42.5727
42.6283
42.5378
42.3585
42.0251
41.6001
40.9034
39.9953
38.8303
37.4607
35.9149
34.2645
32.4945
30.7146
28.7999
26.9088
24.9897
23.2653
21.7266
20.4252
19.3189
18.3654
17.5503
16.8615
16.3324
15.9743
15.8176
15.8559
16.0909
16.5112
17.1104
17.8599
18.7377
19.7181
20.8155
21.9984
23.2025
24.567
25.9589
27.4546
28.8685
30.3519
31.7821
33.3168
34.7913
36.2783
37.6347
38.953
40.1196
41.2193
42.1852
43.1121
43.9167
44.7266
45.4336
46.0929
46.7006
47.2427
47.7132
48.1096
48.4219
48.6766
48.8524
48.9573
48.9463
48.8107
48.501
47.9895
47.2252
46.1856
44.8542
43.2181
41.2945
39.1071
36.7387
34.2362
31.6831
29.0998
26.5368
23.9812
21.4556
18.9378
16.4394
13.9364
11.4402
8.90887
6.39852
3.73158
1.45823
43.6067
42.3451
41.5482
40.9984
40.8562
40.8863
41.1085
41.3596
41.7101
42.0933
42.4244
42.6177
42.6792
42.5985
42.4293
42.1055
41.6855
40.9908
40.0809
38.9108
37.5408
35.9888
34.3255
32.5396
30.7437
28.8089
26.8976
24.9581
23.2225
21.6749
20.3687
19.259
18.2959
17.4696
16.7678
16.2303
15.8683
15.7106
15.7491
15.9852
16.4091
17.0109
17.7615
18.6394
19.6214
20.7235
21.9119
23.1217
24.494
25.8929
27.3977
28.8202
30.3201
31.7681
33.3236
34.8147
36.3099
37.6753
38.9979
40.1617
41.2683
42.2435
43.1634
43.969
44.8118
45.5129
46.1911
46.8079
47.3609
47.8334
48.2289
48.5422
48.7976
48.9764
49.0887
49.0933
48.9801
48.6949
48.2055
47.4587
46.4299
45.0981
43.4441
41.4817
39.2398
36.814
34.2604
31.6664
29.0528
26.4704
23.9036
21.3732
18.8564
16.3635
13.8691
11.384
8.86461
6.36699
3.71283
1.44864
43.503
42.2499
41.4603
40.9322
40.8122
40.8617
41.0958
41.363
41.7287
42.1253
42.4639
42.6624
42.7303
42.6596
42.5007
42.1864
41.771
41.0781
40.1685
38.9935
37.6195
36.0649
34.3845
32.5828
30.7706
28.817
26.8867
24.9273
23.1798
21.6216
20.3116
19.1969
18.2234
17.3851
16.6701
16.1255
15.7603
15.6018
15.6408
15.8792
16.3062
16.9093
17.6603
18.5386
19.5233
20.6303
21.8236
23.0389
24.4187
25.8242
27.3375
28.768
30.2851
31.7507
33.3262
34.8371
36.3393
37.7118
39.0368
40.1992
41.3095
42.299
43.2029
44.0154
44.8873
45.589
46.2854
46.9053
47.4751
47.9436
48.3425
48.6574
48.9144
49.0956
49.2137
49.2332
49.1428
48.8816
48.4132
47.6839
46.6678
45.3358
43.659
41.6499
39.3457
36.8576
34.2516
31.6179
28.9767
26.3784
23.8042
21.2728
18.7604
16.2764
13.7936
11.322
8.81679
6.33382
3.69296
1.44033
43.3911
42.1487
41.3687
40.8638
40.767
40.8365
41.0834
41.3677
41.7495
42.1599
42.5061
42.7104
42.7857
42.726
42.5781
42.2742
41.8629
41.1699
40.2622
39.0871
37.705
36.1496
34.4509
32.6316
30.8013
28.8291
26.879
24.8977
23.1372
21.5666
20.2547
19.1324
18.1481
17.2964
16.5692
16.0189
15.651
15.4916
15.5312
15.7715
16.1995
16.8024
17.5535
18.4328
19.4207
20.5322
21.7299
22.9504
24.3379
25.7506
27.2729
28.7127
30.2495
31.7351
33.3336
34.8657
36.3754
37.7533
39.0809
40.2406
41.3534
42.3562
43.2516
44.0808
44.9655
45.6798
46.3881
47.0138
47.5991
48.0627
48.4643
48.7785
49.0374
49.2206
49.3429
49.3774
49.3093
49.0712
48.6227
47.9107
46.9072
45.5728
43.865
41.7971
39.4203
36.8648
34.2061
31.535
28.87
26.2603
23.6832
21.1548
18.651
16.1793
13.7111
11.2556
8.76661
6.2998
3.67229
1.43398
43.2809
42.048
41.2774
40.7957
40.7216
40.8108
41.0705
41.3724
41.7701
42.1938
42.5478
42.7578
42.8414
42.7924
42.6556
42.3626
41.9562
41.2617
40.351
39.1822
37.7902
36.2293
34.5172
32.6791
30.8308
28.8426
26.8723
24.8687
23.0937
21.5107
20.1972
19.0644
18.0689
17.2023
16.465
15.9099
15.5396
15.3799
15.4211
15.663
16.0905
16.6926
17.4443
18.3258
19.3177
20.4331
21.6338
22.8596
24.2543
25.6744
27.2042
28.6517
30.2096
31.7183
33.3433
34.8908
36.4072
37.791
39.1168
40.2725
41.3873
42.3971
43.2964
44.1585
45.028
45.7677
46.4762
47.1173
47.7118
48.1773
48.576
48.8895
49.1512
49.3381
49.4664
49.517
49.4709
49.2544
48.8232
48.1271
47.1349
45.7928
44.0415
41.9021
39.4462
36.8238
34.1172
31.4149
28.7326
26.1176
23.5428
21.0219
18.5305
16.0744
13.6234
11.1863
8.71554
6.26636
3.65166
1.43088
43.1643
41.9418
41.1827
40.7257
40.6749
40.7845
41.0582
41.3787
41.7929
42.2304
42.5923
42.8087
42.9022
42.8636
42.7382
42.4579
42.0578
41.3639
40.4451
39.2852
37.8856
36.3108
34.5892
32.7309
30.8657
28.8608
26.8688
24.8424
23.0509
21.4564
20.1399
18.9941
17.986
17.104
16.3589
15.7994
15.4267
15.2672
15.31
15.5509
15.976
16.5771
17.3299
18.2145
19.21
20.3282
21.5303
22.7621
24.1645
25.5935
27.1302
28.5848
30.17
31.7091
33.3634
34.9196
36.4432
37.8314
39.1523
40.3061
41.4271
42.4384
43.3554
44.253
45.0987
45.8737
46.5714
47.2331
47.827
48.3046
48.6928
49.0051
49.2678
49.459
49.5953
49.6619
49.6369
49.4395
49.0221
48.3386
47.3547
45.9955
44.1838
41.9585
39.4185
36.7322
33.9843
31.2579
28.5653
25.9513
23.3839
20.8749
18.3999
15.9626
13.5317
11.1157
8.66496
6.23447
3.6318
1.43125
43.0476
41.8361
41.0883
40.6559
40.6281
40.7578
41.0456
41.3851
41.8158
42.2664
42.6362
42.8592
42.962
42.9361
42.82
42.5522
42.1592
41.4666
40.5425
39.386
37.9839
36.3881
34.6568
32.7795
30.899
28.878
26.8649
24.818
23.008
21.4038
20.0813
18.9217
17.8985
17.002
16.2504
15.6866
15.3122
15.154
15.1976
15.4361
15.8585
16.4589
17.2142
18.1027
19.1017
20.2213
21.4234
22.6616
24.072
25.5102
27.0505
28.5102
30.1301
31.7037
33.3828
34.9444
36.4721
37.8613
39.1751
40.3293
41.4603
42.4696
43.4107
44.3324
45.1691
45.9726
46.658
47.338
47.9264
48.4191
48.799
49.1098
49.3725
49.568
49.7168
49.8007
49.7951
49.6125
49.2032
48.5289
47.5499
46.1603
44.2703
41.95
39.3288
36.5879
33.8089
31.0675
28.3726
25.7657
23.2103
20.7172
18.262
15.8461
13.4375
11.0446
8.61564
6.20472
3.6133
1.43521
42.9231
41.7248
40.9905
40.5843
40.58
40.7304
41.0338
41.3934
41.841
42.3052
42.6833
42.9138
43.025
43.0156
42.9082
42.6513
42.2666
41.5776
40.6514
39.4948
38.0905
36.4748
34.7284
32.8327
30.9357
28.8955
26.8617
24.7969
22.9671
21.3547
20.0217
18.8485
17.8071
16.8987
16.1408
15.5723
15.1973
15.04
15.0821
15.3165
15.7354
16.3356
17.0939
17.9863
18.9874
20.107
21.3077
22.5535
23.9731
25.4224
26.965
28.4305
30.0959
31.7062
33.4063
34.9735
36.5009
37.8881
39.1986
40.3564
41.5025
42.5121
43.4798
44.4213
45.2587
46.0818
46.758
47.4453
48.0343
48.5285
48.9068
49.2161
49.4779
49.6734
49.8336
49.9359
49.9469
49.7736
49.3654
48.6941
47.7152
46.2776
44.2925
41.8731
39.1774
36.3929
33.5931
30.8456
28.1557
25.5618
23.0228
20.5497
18.1178
15.726
13.3424
10.9748
8.56904
6.17818
3.59722
1.44181
42.7979
41.6137
40.8932
40.513
40.5315
40.7027
41.0218
41.4019
41.8663
42.3435
42.73
42.968
43.0881
43.0935
42.9973
42.7494
42.3726
41.6885
40.7605
39.6026
38.1962
36.5639
34.7964
32.8854
30.9694
28.9076
26.8541
24.7747
22.9255
21.3073
19.9596
18.7731
17.7116
16.7934
16.0287
15.456
15.0814
14.924
14.9634
15.1935
15.6095
16.2105
16.9728
17.8691
18.8714
19.9897
21.1883
22.4423
23.8715
25.3321
26.8743
28.3469
30.0639
31.7083
33.4258
34.9954
36.5172
37.9017
39.2135
40.3759
41.5379
42.5518
43.542
44.5034
45.342
46.1809
46.8508
47.5236
48.1292
48.6132
48.9922
49.2995
49.5635
49.7588
49.9256
50.0456
50.07
49.9005
49.4888
48.8156
47.828
46.3242
44.2347
41.7224
38.9664
36.1525
33.3433
30.5986
27.921
25.3446
22.8259
20.3761
17.9697
15.6041
13.2476
10.9066
8.52488
6.15405
3.58348
1.44928
42.6681
41.4977
40.7928
40.4399
40.4817
40.6743
41.0106
41.4125
41.8941
42.3844
42.7797
43.0259
43.1578
43.1743
43.0933
42.8552
42.4857
41.8065
40.8789
39.7182
38.3111
36.6642
34.8698
32.9463
31.0089
28.9197
26.846
24.7517
22.884
21.2618
19.8966
18.6946
17.6147
16.6884
15.916
15.3401
14.9652
14.8056
14.8407
15.0656
15.4783
16.0802
16.8465
17.7454
18.7475
19.8629
21.0591
22.3232
23.7633
25.2372
26.7777
28.2649
30.0356
31.713
33.4474
35.0167
36.5316
37.9162
39.2339
40.4035
41.5819
42.6067
43.6186
44.6006
45.4333
46.2876
46.9682
47.5981
48.2171
48.6956
49.0763
49.3716
49.6344
49.8335
49.9978
50.1267
50.1591
49.9901
49.5725
48.8917
47.8804
46.2907
44.0937
41.4995
38.6981
35.8686
33.0599
30.3263
27.668
25.1138
22.6195
20.197
17.8189
15.4818
13.1548
10.8414
8.48436
6.13317
3.57294
1.45569
42.5393
41.3821
40.693
40.3673
40.4317
40.6456
40.9993
41.4231
41.9219
42.4249
42.8284
43.0835
43.2278
43.2544
43.1879
42.9615
42.5984
41.9222
40.9977
39.8313
38.4233
36.7641
34.9439
33.0079
31.0484
28.9312
26.8353
24.7241
22.8411
21.2143
19.8311
18.6106
17.5162
16.5813
15.8012
15.2233
14.8468
14.6839
14.7149
14.9352
15.3448
15.948
16.7185
17.6195
18.6208
19.7318
20.9269
22.2021
23.6524
25.1393
26.6796
28.1881
29.9993
31.7105
33.4606
35.027
36.5343
37.9219
39.2457
40.4254
41.6178
42.6575
43.6858
44.6894
45.5178
46.3713
47.0814
47.6515
48.272
48.7577
49.1388
49.4273
49.6816
49.8857
50.0401
50.1618
50.1935
50.0266
49.6069
48.9168
47.8609
46.1692
43.8704
41.211
38.3817
35.5499
32.7511
30.0363
27.4029
24.8745
22.4078
20.0156
17.6676
15.3604
13.0643
10.7786
8.44585
6.11318
3.56453
1.45847
42.4032
41.2615
40.5905
40.2931
40.3803
40.6163
40.9889
41.4357
41.9523
42.4685
42.8802
43.145
43.3022
43.3409
43.2873
43.0756
42.7203
42.0458
41.125
39.9551
38.5396
36.8714
35.029
33.0746
31.0931
28.9494
26.8288
24.6961
22.8003
21.1635
19.7639
18.5226
17.4175
16.4731
15.687
15.1066
14.7265
14.5592
14.5857
14.8005
15.2058
15.8101
16.584
17.4857
18.4845
19.5901
20.7861
22.0755
23.5335
25.0283
26.5867
28.1267
29.9542
31.6992
33.4683
35.0341
36.5376
37.9319
39.2649
40.459
41.6651
42.7216
43.7701
44.7816
45.6353
46.4563
47.1978
47.7256
48.3243
48.8232
49.2006
49.4815
49.7163
49.9153
50.0503
50.1437
50.167
50.0079
49.593
48.8934
47.7678
45.9611
43.5698
40.8617
38.0197
35.1974
32.4164
29.7269
27.1242
24.6255
22.1902
19.8321
17.5166
15.2412
12.9774
10.7189
8.40999
6.0944
3.55876
1.45677
42.267
41.1413
40.4887
40.2195
40.3289
40.5869
40.9785
41.4482
41.9826
42.5117
42.9316
43.2055
43.3752
43.4275
43.3853
43.1874
42.842
42.1693
41.2501
40.081
38.6506
36.973
35.1144
33.1387
31.1351
28.9686
26.8228
24.6667
22.7594
21.1069
19.6935
18.4308
17.3159
16.3617
15.5712
14.9873
14.6028
14.4312
14.4536
14.6633
15.0643
15.6696
16.447
17.349
18.3445
19.4455
20.645
21.9483
23.4101
24.9084
26.5005
28.0696
29.9018
31.6725
33.4609
35.0293
36.5321
37.9347
39.2778
40.487
41.7062
42.7805
43.8649
44.8462
45.7403
46.5254
47.2851
47.8086
48.3552
48.865
49.2366
49.5097
49.7196
49.8923
49.9987
50.0555
50.0629
49.9093
49.5113
48.8059
47.5918
45.6691
43.2022
40.4642
37.6247
34.822
32.0656
29.4066
26.8386
24.372
21.9706
19.649
17.3671
15.1244
12.8926
10.6601
8.37373
6.07275
3.55322
1.44878
42.1234
41.0156
40.3839
40.1443
40.2764
40.5573
40.9692
41.4627
42.0149
42.5584
42.987
43.2698
43.4522
43.52
43.4898
43.3051
42.9713
42.3039
41.3852
40.2166
38.7733
37.0786
35.2062
33.2069
31.1798
28.9922
26.8225
24.6413
22.7209
21.048
19.6198
18.3384
17.2126
16.2507
15.4562
14.8671
14.4774
14.3013
14.3186
14.5214
14.9173
15.5228
16.3022
17.2027
18.1939
19.2912
20.4961
21.8139
23.2778
24.7803
26.4131
28.0107
29.8529
31.6393
33.4459
35.021
36.5285
37.9422
39.3006
40.5263
41.7605
42.8543
43.985
44.9167
45.8417
46.6116
47.3703
47.923
48.4062
48.8993
49.2595
49.5163
49.7012
49.8327
49.891
49.8888
49.8797
49.7333
49.3522
48.6368
47.3261
45.2966
42.7719
40.0211
37.1967
34.4222
31.6964
29.073
26.5438
24.1126
21.7487
19.4659
17.2194
15.0106
12.8099
10.6021
8.33713
6.04856
3.54741
1.43454
41.9837
40.8908
40.2799
40.0697
40.224
40.528
40.96
41.4773
42.0467
42.6046
43.0423
43.3337
43.5279
43.6111
43.5937
43.4212
43.0968
42.438
41.5204
40.3481
38.8963
37.18
35.295
33.2733
31.2188
29.0114
26.8206
24.6163
22.6829
20.9871
19.5393
18.2436
17.1057
16.1376
15.3384
14.7436
14.3489
14.1684
14.1804
14.3763
14.768
15.3738
16.1545
17.0527
18.0393
19.134
20.3464
21.678
23.1424
24.6471
26.3211
27.9503
29.8047
31.5975
33.4166
34.9996
36.5142
37.9409
39.3165
40.5572
41.8076
42.9188
44.0775
44.9832
45.9285
46.6921
47.4338
48.0047
48.4613
48.9177
49.253
49.4777
49.6397
49.7462
49.7898
49.7305
49.6381
49.4706
49.1077
48.372
46.9685
44.8536
42.294
39.5472
36.7487
34.0091
31.3191
28.7348
26.246
23.8529
21.5282
19.2842
17.074
14.8989
12.7266
10.5413