/*--------------------------------*- C++ -*----------------------------------*\
| =========                 |                                                 |
| \\      /  F ield         | OpenFOAM: The Open Source CFD Toolbox           |
|  \\    /   O peration     | Version:  4.1                                   |
|   \\  /    A nd           | Web:      www.OpenFOAM.org                      |
|    \\/     M anipulation  |                                                 |
\*---------------------------------------------------------------------------*/
FoamFile
{
    version     2.0;
    format      ascii;
    class       surfaceScalarField;
    location    "26";
    object      phi;
}
// * * * * * * * * * * * * * * * * * * * * * * * * * * * * * * * * * * * * * //

dimensions      [0 3 -1 0 0 0 0];

internalField   nonuniform List<scalar> 
52920
(
2376.59
-107.745
2481.06
-104.409
2584.23
-103.697
2685.6
-101.264
2784.07
-100.257
2883.62
-98.4548
2980.25
-99.0035
3079.92
-98.347
3176.33
-99.5324
3276.37
-99.7531
3373.7
-101.587
3474.5
-102.948
3573.71
-105.023
3678.8
-106.103
3783.67
-108.372
3892.51
-110.132
4002.34
-112.672
4115.29
-114.835
4229.71
-117.315
4347.58
-119.497
4467.11
-121.61
4588.72
-123.47
4712.97
-124.933
4836.6
-125.982
4963.4
-126.499
5087.4
-126.634
5213.82
-126.144
5336.89
-125.269
5460.68
-123.851
5581.18
-122.144
5700.67
-119.998
5817.23
-117.645
5931.99
-114.948
6043.8
-112.179
6153.32
-109.297
6259.48
-106.518
6363.42
-103.705
6464.3
-101.043
6563.11
-98.4605
6658.94
-96.0777
6752.9
-93.7797
6844.6
-91.6552
6934.61
-89.6716
7022.8
-87.8877
7109.31
-86.2819
7194.54
-84.9199
7279.5
-83.7257
7362.31
-82.6788
7445.86
-81.8962
7526.91
-81.2971
7609.82
-80.9623
7690.48
-80.8374
7773.57
-80.9275
7854.6
-81.2119
7937.9
-81.6941
8019.78
-82.3326
8104.09
-83.1605
8187.91
-84.0468
8273.6
-85.0879
8359.71
-86.0983
8447.23
-87.2023
8535.81
-88.1562
8625.14
-89.1656
8715.81
-89.9849
8806.76
-90.7999
8899.04
-91.3975
8991.23
-91.9476
9084.51
-92.3587
9177.64
-92.7608
9271.71
-93.1835
9366.03
-93.716
9461.34
-94.5339
9557.84
-95.6836
9655.81
-97.416
9756.49
-99.7332
9859.65
-102.818
9967.28
-106.612
10078.6
-111.165
10195.7
-116.326
10317.7
-122.037
10445.9
-127.98
10579.5
-134.095
10719.3
-139.987
10864.1
-145.517
11014
-150.422
11167.8
-154.557
11325
-157.882
11484.7
-160.405
11646.2
-162.237
11809.2
-163.513
11972.9
-164.391
12137.6
-165.007
12302.4
-165.513
12468.3
-165.97
12634.3
-166.536
12801.4
-167.091
12969.3
-168.266
13137.8
-168.388
13312.2
-174.501
-170.8
2366.41
-215.29
2470.38
-209.913
2572.29
-206.872
2672.98
-201.527
2770
-198.467
2869.3
-196
2964.62
-196.381
3064.15
-196.13
3159.44
-197.989
3259.2
-199.351
3355.34
-202.624
3455.38
-205.747
3552.98
-209.346
3657.13
-211.927
3760.35
-215.711
3867.83
-219.195
3975.67
-223.437
4086.57
-227.444
4198.38
-231.602
4313.46
-235.458
4429.75
-239.081
4547.88
-242.322
4668.41
-245.031
4787.96
-247.023
4910.56
-248.123
5029.91
-248.394
5151.56
-247.425
5269.45
-245.606
5387.93
-242.595
5502.81
-238.896
5616.53
-234.342
5727.03
-229.274
5835.52
-223.674
5940.7
-217.819
6043.25
-211.859
6141.95
-206.02
6238.01
-200.128
6330.47
-194.418
6420.37
-188.853
6506.68
-183.592
6590.59
-178.486
6671.61
-173.657
6750.4
-169.088
6826.74
-164.865
6900.82
-161.006
6973.04
-157.568
7044.43
-154.498
7113.13
-151.84
7182.07
-149.597
7247.94
-147.864
7315.24
-146.521
7379.71
-145.728
7446.26
-145.29
7510.19
-145.359
7576.08
-145.767
7640.07
-146.623
7706.23
-147.758
7771.51
-149.187
7838.41
-150.827
7905.44
-152.556
7973.68
-154.413
8042.83
-156.1
8112.55
-157.88
8183.57
-159.37
8254.75
-160.884
8327.29
-162.033
8399.65
-163.145
8473.16
-164.012
8546.38
-164.885
8620.5
-165.776
8694.61
-166.844
8769.43
-168.371
8844.94
-170.415
8921.33
-173.454
8999.67
-177.415
9079.54
-182.735
9162.91
-189.222
9248.79
-197.12
9339.23
-206.147
9433.33
-216.208
9532.53
-226.919
9636.03
-237.883
9744.74
-248.619
9857.57
-258.648
9974.89
-267.545
10095.4
-275.072
10218.9
-281.056
10344.4
-285.62
10471.1
-288.861
10599.1
-291.092
10727.1
-292.548
10855.9
-293.513
10984.3
-294.234
11113.3
-294.873
11242
-295.642
11371.6
-296.553
11501.1
-298.051
11632.2
-299.389
11761
-303.404
-304.278
2345.74
-320.115
2447.34
-311.072
2546.08
-305.997
2643.09
-298.614
2736.08
-293.665
2830.81
-289.778
2921.15
-289.445
3015.17
-288.838
3104.55
-290.763
3197.9
-292.375
3287.21
-296.398
3379.98
-300.669
3469.92
-305.31
3566.01
-309.025
3660.82
-314.181
3759.54
-319.337
3858.34
-325.344
3959.92
-331.188
4062.19
-337.168
4167.54
-342.828
4273.93
-348.045
4382.02
-352.793
4492.39
-356.51
4601.61
-359.079
4713.8
-360.24
4822.53
-360.069
4933.48
-358.17
5040.41
-354.885
5147.79
-350.042
5251.26
-344.114
5353.29
-336.918
5451.75
-328.897
5547.83
-319.945
5640.17
-310.535
5729.46
-300.841
5814.39
-291.192
5896.22
-281.503
5973.92
-272.047
6048.55
-262.849
6119.07
-254.065
6186.67
-245.57
6250.88
-237.487
6312.34
-229.843
6370.87
-222.738
6426.62
-216.205
6480.02
-210.323
6532.19
-205.047
6581.1
-200.353
6629.88
-196.348
6674.97
-193.03
6721.23
-190.443
6764.03
-188.59
6808.7
-187.415
6850.1
-186.926
6893.26
-187.089
6933.92
-187.835
6976.55
-189.157
7017.8
-190.827
7060.44
-192.932
7102.81
-195.123
7146.11
-197.553
7189.98
-199.742
7234.09
-202.048
7279.17
-203.963
7324.01
-205.814
7369.9
-207.178
7415.14
-208.35
7461.18
-209.185
7506.43
-209.896
7552.24
-210.628
7597.58
-211.526
7643.31
-213.103
7689.39
-215.47
7736.15
-219.342
7784.81
-224.781
7835.01
-232.303
7889.09
-241.89
7946.03
-253.683
8008.32
-267.461
8075.02
-282.981
8147.99
-299.602
8226.35
-316.899
8311.32
-333.958
8401.66
-350.079
8497.85
-364.579
8598.41
-376.852
8702.94
-386.762
8810.47
-394.28
8920.01
-399.7
9031.49
-403.446
9143.7
-405.948
9257.34
-407.695
9371.18
-409.06
9486.43
-410.382
9602.02
-411.92
9719.31
-413.855
9837.27
-416.457
9957.65
-419.672
10077.4
-423.344
-428.688
2324.74
-424.201
2423.76
-411.586
2519.2
-402.24
2612.54
-391.11
2701.62
-383.527
2792.09
-378.33
2878.03
-377.227
2967.47
-376.457
3052.24
-378.571
3140.91
-380.883
3225.58
-385.923
3313.78
-391.51
3399.25
-397.327
3491.01
-402.321
3581.67
-408.763
3676.44
-415.532
3771.52
-423.175
3869.63
-430.888
3968.67
-438.62
4071.06
-446.03
4174.71
-452.85
4280.27
-459.009
4388.27
-464.011
4495.2
-467.505
4605.19
-469.205
4711.69
-468.999
4820.39
-466.423
4924.93
-461.852
5029.79
-455.04
5130.54
-446.603
5229.64
-436.508
5324.94
-425.191
5417.64
-412.812
5506.39
-399.744
5591.9
-386.42
5672.89
-373.104
5750.63
-359.746
5824.1
-346.617
5894.4
-333.825
5960.46
-321.516
6023.52
-309.59
6083.05
-298.166
6139.73
-287.308
6193.32
-277.116
6244
-267.674
6292.17
-259.073
6338.97
-251.312
6382.29
-244.305
6425.34
-238.225
6464.43
-233.001
6504.58
-228.814
6540.97
-225.524
6579.14
-223.269
6613.74
-221.803
6649.96
-221.326
6683.39
-221.562
6718.67
-222.651
6752.3
-224.207
6787.15
-226.35
6821.46
-228.638
6856.52
-231.235
6891.86
-233.543
6927.19
-235.958
6963.19
-237.883
6998.59
-239.688
7034.72
-240.89
7069.79
-241.823
7105.33
-242.372
7139.63
-242.766
7174.21
-243.29
7207.97
-244.111
7242.01
-245.97
7276.35
-249.015
7311.57
-254.259
7349.15
-261.777
7388.97
-272.327
7433.71
-285.893
7482.52
-302.676
7538.23
-322.489
7599.96
-344.786
7669.71
-369.018
7746.55
-394.006
7831.66
-418.851
7923.53
-442.14
8022.51
-463.074
8126.76
-480.796
8235.71
-495.082
8348.09
-506.035
8462.79
-513.991
8579.62
-519.64
8697.23
-523.52
8816.32
-526.361
8935.59
-528.622
9056.23
-530.817
9177.14
-533.251
9299.58
-536.167
9422.7
-539.977
9547.37
-544.205
9674.45
-550.552
-557.671
2316.67
-526.043
2415.96
-510.197
2511.28
-497.902
2604.36
-484.408
2693.22
-474.71
2783.4
-467.855
2869.21
-465.804
2958.54
-464.682
3043.42
-466.758
3132.22
-469.426
3217.24
-475.186
3305.85
-482.067
3391.91
-489.015
3484.22
-495.521
3575.56
-503.579
3671.03
-512.382
3766.87
-522.094
3865.73
-531.961
3965.55
-541.814
4068.66
-551.319
4172.99
-559.947
4279.14
-567.76
4387.6
-573.824
4494.88
-577.785
4605.03
-579.442
4711.59
-578.484
4820.13
-574.772
4924.4
-568.357
5028.78
-559.444
5128.94
-548.412
5227.29
-535.353
5321.72
-520.737
5413.43
-504.67
5501.07
-487.726
5585.39
-470.352
5665.11
-452.901
5741.49
-435.474
5813.52
-418.338
5882.28
-401.686
5946.7
-385.613
6008.01
-370.085
6065.69
-355.184
6120.39
-341.031
6171.9
-327.728
6220.38
-315.382
6266.25
-304.11
6310.65
-293.855
6351.47
-284.535
6391.92
-276.441
6428.33
-269.339
6465.72
-263.673
6499.29
-259.05
6534.56
-255.845
6566.2
-253.574
6599.42
-252.656
6629.79
-252.558
6661.99
-253.648
6692.51
-255.25
6724.25
-257.681
6755.44
-260.237
6787.4
-263.212
6819.67
-265.845
6851.96
-268.553
6884.95
-270.693
6917.42
-272.539
6950.65
-273.679
6982.86
-274.296
7015.59
-274.447
7047.07
-274.24
7078.86
-274.191
7109.74
-274.431
7140.9
-276.026
7172.23
-279.232
7204.42
-285.351
7238.89
-294.713
7275.6
-308.113
7317.24
-325.845
7363
-347.863
7415.76
-374.073
7474.61
-403.658
7541.59
-435.662
7615.68
-468.866
7698.09
-501.73
7787.16
-532.58
7883.25
-560.276
7984.36
-583.514
8089.89
-602.173
8198.53
-616.191
8309.06
-626.204
8421.31
-633.052
8533.85
-637.537
8647.39
-640.621
8760.55
-642.921
8874.52
-645.125
8988.14
-647.621
9102.69
-650.751
9217.15
-654.894
9332.99
-659.962
9448.5
-666.188
-676.606
2326.49
-628.695
2425.17
-610.043
2520.29
-593.394
2613.54
-576.586
2702.81
-564.586
2793.32
-556.564
2879.56
-553.816
2969.12
-552.584
3054.29
-554.881
3143.13
-558.251
3228.19
-564.953
3316.65
-572.978
3402.49
-580.966
3494.28
-588.627
3585.01
-597.871
3679.6
-608.173
3774.44
-619.431
3872.09
-631.061
3970.54
-642.545
4072.08
-653.607
4174.68
-663.631
4278.93
-672.566
4385.3
-679.625
4490.38
-684.242
4598.15
-686.117
4702.27
-684.854
4808.23
-680.133
4909.89
-672.178
5011.56
-661.008
5108.98
-647.248
5204.52
-631.113
5296.1
-613.068
5384.88
-593.484
5469.54
-572.799
5550.79
-551.697
5627.36
-530.456
5700.49
-509.194
5769.15
-488.191
5834.41
-467.72
5895.23
-447.896
5952.8
-428.703
6006.61
-410.239
6057.33
-392.659
6104.74
-376.07
6149.02
-360.64
6190.62
-346.449
6230.68
-333.535
6267.08
-321.758
6303.07
-311.401
6334.94
-302.293
6367.79
-294.836
6396.76
-288.703
6427.48
-284.26
6454.5
-280.975
6483.17
-279.29
6508.97
-278.688
6536.7
-279.464
6562.77
-281.012
6590.2
-283.472
6617.13
-286.208
6645
-289.431
6673.31
-292.34
6701.82
-295.319
6731.2
-297.665
6760.26
-299.684
6790.3
-300.912
6819.51
-301.561
6849.46
-301.686
6878.3
-301.393
6907.62
-301.312
6936.04
-301.58
6964.8
-303.489
6993.59
-307.309
7023.13
-314.673
7054.71
-325.862
7088.25
-342.044
7126.43
-363.397
7168.37
-390.114
7217
-422.025
7271.37
-458.109
7333.57
-497.5
7402.64
-538.165
7479.85
-578.604
7563.57
-616.383
7654.24
-650.178
7749.79
-678.502
7849.61
-701.044
7952.33
-717.961
8056.68
-729.894
8162.47
-737.967
8268.23
-743.12
8374.71
-746.526
8480.48
-748.953
8586.85
-751.227
8692.62
-753.832
8799.22
-757.234
8905.54
-761.658
9013.51
-767.838
9120.11
-772.921
-787.681
2330.53
-728.811
2428.97
-707.65
2523.74
-688.544
2616.6
-669.798
2705.44
-655.794
2795.25
-645.933
2880.73
-642.011
2969.28
-640.195
3053.43
-642.168
3141
-645.598
3224.8
-652.695
3311.81
-661.686
3396.19
-670.559
3486.27
-679.526
3575.22
-690.171
3667.88
-702.24
3760.68
-715.319
3856.17
-728.807
3952.36
-742.172
4051.52
-755.104
4151.64
-766.705
4253.33
-777.079
4357.02
-784.94
4459.37
-789.753
4564.3
-791.336
4665.57
-789.092
4768.6
-783.078
4867.33
-773.139
4965.99
-759.775
5060.38
-743.332
5152.85
-724.119
5241.32
-702.666
5326.95
-679.237
5408.39
-654.527
5486.35
-629.177
5559.58
-603.593
5629.29
-578.045
5694.44
-552.822
5756.12
-528.264
5813.26
-504.442
5867.06
-481.415
5917.01
-459.251
5963.78
-438.16
6007.15
-418.257
6047.3
-399.75
6084.71
-382.713
6120.52
-367.228
6152.59
-353.024
6184.2
-340.536
6211.61
-329.472
6240
-320.455
6264.41
-312.969
6290.61
-307.551
6313.03
-303.508
6337.16
-301.425
6358.36
-300.594
6381.59
-301.475
6403.14
-303.23
6426.15
-306.172
6448.7
-309.389
6472.34
-313.242
6496.48
-316.784
6520.98
-320.381
6546.45
-323.285
6571.76
-325.699
6598.22
-327.223
6623.96
-327.892
6650.63
-327.918
6676.26
-327.261
6702.53
-326.746
6727.89
-326.454
6753.68
-327.999
6779.35
-331.759
6805.76
-339.668
6834.04
-352.311
6864.17
-370.908
6898.84
-396.013
6937.1
-427.568
6982.03
-465.512
7032.61
-508.645
7091.15
-555.615
7156.64
-604.553
7230.58
-653.138
7311.19
-698.705
7399
-739.427
7491.73
-773.279
7588.71
-800.022
7688.47
-819.655
7789.67
-833.168
7892.16
-841.916
7994.44
-847.151
8097.4
-850.352
8199.62
-852.465
8302.56
-854.55
8405.07
-857.148
8508.72
-860.916
8612.48
-865.89
8718.17
-873.412
8823.73
-878.598
-897.625
2330.2
-830.679
2427.78
-806.089
2521.55
-782.495
2613.36
-760.567
2701.15
-744.229
2789.77
-733.011
2874.12
-728.208
2961.4
-726.049
3044.36
-728.085
3130.59
-731.991
3213.08
-739.8
3298.68
-749.6
3381.63
-759.272
3470.08
-769.111
3557.33
-780.753
3648.14
-794.101
3739.03
-808.563
3832.46
-823.644
3926.52
-838.477
4023.44
-852.764
4121.22
-865.578
4220.5
-876.851
4321.68
-885.515
4421.46
-890.837
4523.74
-892.464
4622.33
-889.798
4722.61
-882.605
4818.54
-871.024
4914.37
-855.275
5005.9
-836.028
5095.47
-813.693
5181.01
-788.779
5263.66
-761.814
5342.08
-733.325
5416.99
-704.176
5487.1
-674.701
5553.65
-645.177
5615.58
-615.931
5673.97
-587.38
5727.75
-559.645
5778.13
-532.793
5824.58
-506.924
5867.78
-482.27
5907.5
-458.966
5943.94
-437.252
5977.57
-417.208
6009.59
-398.946
6037.76
-382.21
6065.46
-367.335
6088.85
-354.164
6113.27
-343.232
6133.59
-334.156
6155.79
-327.411
6174.08
-322.312
6194.17
-319.399
6211.25
-318.074
6230.49
-318.648
6248
-320.398
6267.12
-323.436
6285.77
-326.941
6305.66
-331.17
6326.11
-335.156
6347.05
-339.218
6369.07
-342.527
6391.04
-345.344
6414.29
-347.212
6436.92
-348.198
6460.64
-348.474
6483.31
-347.982
6506.78
-347.64
6529.24
-347.515
6552.17
-349.427
6574.83
-353.782
6598.18
-362.839
6623.29
-377.148
6650.15
-398.358
6681.55
-426.869
6716.46
-462.971
6758.16
-506.539
6805.64
-556.266
6861.37
-610.983
6924.38
-667.856
6996.28
-724.606
7075.12
-777.609
7161.48
-824.742
7252.81
-863.829
7348.44
-894.382
7446.79
-916.762
7546.5
-932.005
7647.51
-941.843
7748.34
-947.726
7850.02
-951.368
7951.17
-953.896
8053.38
-956.496
8155.53
-959.803
8259.26
-964.579
8363.59
-970.75
8470.14
-979.944
8578.01
-986.631
-1009.37
2327.83
-929.644
2424.57
-901.949
2517.39
-875.77
2608.23
-851.895
2695.09
-833.529
2782.69
-820.385
2866.08
-814.311
2952.26
-811.45
3034.14
-813.002
3119.08
-816.775
3200.25
-824.741
3284.39
-835.242
3365.79
-845.6
3452.46
-856.571
3537.85
-869.447
3626.63
-884.354
3715.38
-900.443
3806.57
-917.163
3898.28
-933.699
3992.77
-949.697
4088.02
-963.939
4184.7
-976.518
4283.21
-985.826
4380.27
-991.173
4479.76
-992.349
4575.54
-988.555
4672.95
-979.976
4766.01
-966.333
4858.91
-948.341
4947.53
-926.365
5034.15
-900.882
5116.74
-872.487
5196.41
-841.571
5271.8
-808.952
5343.66
-775.418
5410.69
-741.464
5474.11
-707.517
5532.85
-673.929
5588.01
-641.163
5638.49
-609.302
5685.52
-578.487
5728.55
-548.794
5768.28
-520.5
5804.46
-493.759
5837.3
-468.845
5867.3
-445.871
5895.66
-424.876
5920.11
-405.626
5944.08
-388.543
5963.67
-373.356
5984.33
-360.821
6000.82
-350.381
6019.27
-342.677
6033.72
-336.862
6050.1
-333.632
6063.38
-332.166
6078.99
-332.995
6092.84
-335.071
6108.43
-338.785
6123.6
-342.97
6140.17
-348.069
6157.36
-352.944
6175.21
-357.907
6194.22
-362.033
6213.34
-365.523
6233.89
-367.935
6253.92
-369.167
6275.21
-369.511
6295.48
-368.753
6316.7
-367.976
6336.81
-367.185
6357.45
-368.523
6377.62
-372.545
6398.45
-381.847
6420.87
-397.354
6444.94
-420.748
6473.46
-452.908
6505.44
-493.871
6544.38
-543.727
6589.25
-601.028
6642.77
-663.993
6703.89
-730.061
6774.4
-795.867
6852.18
-857.516
6937.86
-912.252
7028.71
-957.241
7123.99
-992.147
7222.09
-1017.22
7321.58
-1033.98
7422.5
-1044.5
7523.35
-1050.59
7625.31
-1054.32
7726.99
-1056.99
7830.06
-1059.99
7933.38
-1063.98
8038.62
-1069.85
8144.75
-1077.37
8253.29
-1088.36
8363.73
-1097.17
-1123.17
2324.62
-1030.11
2420.37
-998.42
2512.31
-967.893
2602.31
-940.959
2688.33
-920.307
2774.94
-905.745
2857.3
-898.638
2942.22
-895.177
3022.77
-896.554
3106.14
-900.501
3185.67
-908.863
3268.02
-919.79
3347.55
-930.643
3432.16
-942.172
3515.39
-955.835
3601.89
-971.805
3688.28
-989.115
3777.01
-1007.27
3866.18
-1025.11
3958.06
-1042.28
4050.63
-1057.56
4144.59
-1070.86
4240.3
-1080.83
4334.54
-1086.59
4431.16
-1087.69
4524.05
-1083.4
4618.56
-1073.52
4708.71
-1058.19
4798.69
-1037.75
4884.4
-1012.97
4968.11
-984.384
5047.79
-952.558
5124.53
-918.131
5196.97
-881.733
5265.84
-844.359
5329.86
-806.444
5390.24
-768.423
5445.89
-730.704
5497.92
-693.837
5545.21
-657.969
5589.01
-623.248
5628.73
-589.785
5665.1
-557.873
5697.85
-527.681
5727.21
-499.516
5753.7
-473.434
5778.53
-449.575
5799.39
-427.703
5819.78
-408.156
5835.69
-390.808
5852.76
-376.3
5865.55
-364.238
5880.43
-355.178
5891.2
-348.313
5904.04
-344.252
5913.71
-342.35
5925.89
-342.953
5936.29
-345.119
5948.6
-349.034
5960.51
-353.662
5974.04
-359.328
5988.24
-364.818
6003.28
-370.465
6019.59
-375.206
6036.19
-379.364
6054.39
-382.4
6072.17
-384.247
6091.41
-385.124
6109.66
-384.773
6129.02
-384.354
6147.17
-383.819
6165.91
-385.525
6183.98
-390.08
6202.65
-400.394
6222.72
-417.349
6244.29
-443.136
6270.31
-478.518
6299.75
-524.03
6336.36
-579.706
6379.1
-644.001
6430.83
-715.397
6490.58
-790.168
6560.33
-865.085
6637.81
-935.041
6723.76
-996.864
6815.1
-1047.58
6911.06
-1086.54
7009.86
-1114.53
7110.05
-1133.17
7211.76
-1145
7313.47
-1152.09
7416.51
-1156.7
7519.43
-1160.31
7623.97
-1164.34
7728.88
-1169.53
7835.78
-1176.77
7943.43
-1185.64
8053.47
-1198.49
8164.7
-1208.58
-1237.26
2320.49
-1127.27
2415.43
-1092.45
2506.6
-1059.62
2595.69
-1030.57
2680.66
-1007.67
2765.96
-990.885
2846.92
-982.196
2930.21
-977.736
3009.1
-978.33
3090.63
-981.875
3168.3
-990.136
3248.71
-1001.51
3326.25
-1012.88
3408.68
-1025.43
3489.67
-1040.17
3573.83
-1057.51
3657.79
-1076.28
3744
-1095.88
3830.57
-1115.29
3919.8
-1134.08
4009.65
-1150.7
4100.87
-1165.25
4193.8
-1175.78
4285.25
-1181.48
4379.06
-1182.09
4469.16
-1176.61
4560.87
-1165.36
4648.24
-1147.95
4735.44
-1125.28
4818.39
-1097.77
4899.35
-1065.99
4976.27
-1030.63
5050.24
-992.172
5119.88
-951.572
5185.93
-909.721
5247.1
-867.236
5304.6
-824.697
5357.31
-782.544
5406.36
-741.351
5450.62
-701.228
5491.33
-662.404
5527.89
-624.974
5561.04
-589.273
5590.51
-555.498
5616.53
-523.993
5639.64
-494.858
5661.08
-468.239
5678.47
-443.781
5695.41
-421.975
5707.77
-402.575
5721.37
-386.463
5730.58
-373.063
5742.02
-363.103
5749.22
-355.598
5758.64
-351.35
5764.82
-349.441
5773.7
-350.485
5780.76
-353.158
5789.92
-357.988
5798.69
-363.535
5809.3
-370.402
5820.63
-377.083
5832.98
-383.952
5846.71
-389.838
5860.93
-395.02
5876.93
-398.917
5892.64
-401.299
5910.04
-402.447
5926.46
-401.967
5944.21
-401.128
5960.65
-399.818
5977.79
-400.738
5994.02
-404.65
6010.8
-414.839
6028.74
-432.634
6048.08
-460.338
6071.86
-499.328
6099
-549.825
6133.49
-612.115
6174.22
-684.565
6224.45
-765.005
6283.16
-850.204
6352.68
-935.541
6430.46
-1015.46
6517.22
-1085.92
6609.6
-1143.09
6706.66
-1186.6
6806.6
-1217.26
6907.9
-1237.37
7010.84
-1249.92
7113.85
-1257.35
7218.31
-1262.27
7322.67
-1266.2
7428.62
-1270.74
7534.72
-1276.53
7642.49
-1284.57
7750.46
-1294.12
7860.51
-1308.37
7970.18
-1318.36
-1349.58
2315.82
-1226.14
2409.83
-1187.19
2499.92
-1149.98
2587.71
-1117.54
2671.25
-1092.07
2754.94
-1073.62
2834.3
-1063.65
2915.88
-1058.35
2993.1
-1058.59
3072.82
-1062.11
3148.67
-1070.55
3227.16
-1082.08
3302.69
-1093.72
3382.95
-1106.57
3461.66
-1121.94
3543.42
-1140.18
3624.91
-1160.02
3708.57
-1180.94
3792.55
-1201.54
3879.16
-1221.37
3966.35
-1238.96
4054.92
-1254.14
4145.19
-1265.28
4233.99
-1271.39
4325.16
-1271.88
4412.62
-1265.91
4501.71
-1253.32
4586.46
-1234.23
4671.06
-1209.13
4751.42
-1178.84
4829.78
-1144
4904.11
-1105.23
4975.46
-1063.26
5042.44
-1018.85
5105.83
-973.087
5164.29
-926.551
5219.06
-879.831
5268.97
-833.442
5315.19
-788.046
5356.54
-743.831
5394.3
-701.029
5427.84
-659.764
5457.9
-620.384
5484.21
-583.097
5507
-548.264
5526.84
-515.963
5545.02
-486.373
5559.04
-459.24
5572.62
-434.889
5581.51
-413.261
5591.73
-395.125
5597.43
-380.064
5605.5
-368.716
5609.18
-360.16
5615.26
-355.089
5618
-352.83
5623.64
-353.735
5627.43
-356.64
5633.52
-361.811
5639.23
-367.949
5646.99
-375.587
5655.54
-383.079
5665.3
-390.833
5676.56
-397.611
5688.51
-403.79
5702.47
-408.668
5716.27
-412.036
5732
-414.059
5746.77
-414.288
5763.1
-414.058
5777.99
-413.153
5793.67
-414.455
5808.14
-418.784
5823.06
-429.737
5838.95
-448.683
5856.09
-478.556
5877.65
-520.573
5902.44
-575.543
5934.75
-643.753
5973.54
-723.626
6022.34
-813.449
6080.29
-908.538
6149.85
-1004.42
6228.24
-1093.87
6316.2
-1172.22
6409.92
-1235.59
6508.44
-1283.33
6609.85
-1317.03
6712.61
-1339.17
6817.08
-1353.22
6921.57
-1361.81
7027.46
-1367.64
7133
-1372.33
7239.76
-1377.43
7346.12
-1383.66
7453.51
-1392.06
7560.4
-1401.71
7668.79
-1416.89
7775.47
-1425.21
-1459.77
2310.33
-1321.57
2403.15
-1279.12
2491.85
-1239.27
2578.1
-1204.36
2660.14
-1176.47
2742.3
-1155.7
2820.19
-1144.07
2900.2
-1137.68
2975.82
-1137
3053.76
-1139.93
3127.74
-1148.03
3204.23
-1159.74
3277.66
-1171.7
3355.65
-1185.41
3432.02
-1201.72
3511.35
-1221.17
3590.38
-1242.34
3671.56
-1264.59
3753.02
-1286.7
3837.11
-1308.14
3921.77
-1327.06
4007.83
-1343.52
4095.58
-1355.22
4181.88
-1361.25
4270.55
-1361.25
4355.54
-1354.09
4442.16
-1340.17
4524.44
-1319.04
4606.58
-1291.74
4684.5
-1258.71
4760.42
-1220.63
4832.3
-1178.27
4901.2
-1132.18
4965.69
-1083.48
5026.57
-1033.14
5082.49
-981.942
5134.68
-930.61
5181.95
-879.699
5225.49
-829.875
5264.08
-781.286
5299.03
-734.25
5329.68
-688.878
5356.8
-645.554
5380.08
-604.522
5399.78
-566.199
5416.47
-530.73
5431.48
-498.195
5442.24
-468.362
5452.55
-441.671
5458.04
-417.935
5464.95
-398.175
5467.2
-381.783
5471.94
-369.577
5472.14
-360.434
5474.89
-355.309
5474.22
-353.174
5476.65
-354.685
5477.17
-358.286
5480.18
-364.622
5482.82
-371.948
5487.73
-381.092
5493.48
-390.133
5500.64
-399.441
5509.42
-407.763
5519.1
-415.356
5531
-421.479
5542.91
-425.729
5557.01
-428.251
5570.19
-428.511
5585.19
-427.889
5598.6
-426.079
5612.88
-426.298
5625.65
-429.56
5638.82
-439.951
5652.7
-459.368
5667.66
-490.841
5686.9
-536.28
5709.24
-596.192
5739.33
-671.333
5776.11
-760.16
5823.61
-860.147
5880.8
-967.323
5950.56
-1075.35
6029.7
-1176.26
6118.95
-1264.32
6214.19
-1334.61
6314.34
-1387.06
6417.51
-1423.44
6522.03
-1447.01
6628.29
-1461.68
6734.33
-1470.35
6841.44
-1475.94
6947.57
-1480.09
7054.18
-1484.5
7159.54
-1489.94
7265.1
-1497.61
7369.51
-1506.61
7474.94
-1522.11
7577.92
-1528.29
-1568.27
2303.92
-1418.33
2395.23
-1371.21
2482.44
-1326.84
2567.31
-1288.52
2648.08
-1258.2
2728.9
-1235.83
2805.38
-1222.81
2883.77
-1215.3
2957.66
-1214
3033.65
-1216.59
3105.61
-1224.56
3180
-1236.12
3251.28
-1248.14
3327.01
-1261.97
3401.1
-1278.82
3478.12
-1299.1
3554.81
-1321.31
3633.61
-1344.83
3712.67
-1368.07
3794.36
-1390.49
3876.6
-1410.34
3960.28
-1427.38
4045.63
-1439.69
4129.55
-1446.15
4215.87
-1446.02
4298.51
-1438.37
4382.8
-1423.11
4462.77
-1400.35
4542.62
-1370.65
4618.26
-1334.9
4691.92
-1293.8
4761.54
-1248.04
4828.15
-1198.42
4890.34
-1145.84
4948.88
-1091.5
5002.41
-1036.15
5052.18
-980.539
5096.98
-925.297
5137.99
-871.195
5174
-818.46
5206.3
-767.406
5234.23
-718.151
5258.55
-671.101
5278.95
-626.494
5295.68
-584.766
5309.35
-545.955
5321.3
-510.288
5328.89
-477.613
5336.02
-448.247
5338.18
-422.168
5341.84
-400.297
5340.66
-382.154
5342.1
-368.48
5338.82
-358.262
5338.27
-352.304
5334.18
-349.898
5333.38
-351.346
5330.62
-355.321
5330.55
-362.105
5330.1
-370.185
5332.17
-380.212
5335.09
-390.266
5339.65
-400.662
5345.95
-410.189
5353.37
-419.1
5363.24
-426.612
5373.22
-432.249
5385.69
-436.066
5397.3
-437.453
5411.01
-437.763
5422.94
-436.501
5435.8
-437.035
5446.82
-440.514
5458.14
-451.374
5469.89
-471.491
5482.44
-504.67
5499.2
-552.717
5518.91
-616.966
5546.64
-698.222
5581.36
-795.065
5627.34
-905.66
5683.73
-1024.09
5753.6
-1144.28
5833.45
-1256.12
5924.15
-1353.02
6021.18
-1430.27
6123.46
-1487.46
6228.94
-1527.25
6335.67
-1552.97
6443.86
-1568.83
6551.12
-1577.84
6658.55
-1583
6763.85
-1586.17
6868.56
-1589.23
6971.02
-1593.27
7073.03
-1599.75
7173.71
-1608.01
7275.52
-1624.03
7375.5
-1628.44
-1677.09
2296.28
-1510.79
2386.19
-1460.21
2472.29
-1413.56
2556.09
-1372.83
2635.67
-1340
2715.02
-1315.04
2789.87
-1300.04
2866.4
-1291.13
2938.39
-1288.62
3012.36
-1290.42
3082.34
-1297.91
3154.72
-1309.51
3223.98
-1321.81
3297.59
-1336.5
3369.52
-1354.21
3444.3
-1375.62
3518.71
-1399.08
3595.2
-1423.84
3671.92
-1448.58
3751.28
-1472.64
3831.18
-1493.85
3912.56
-1512.25
3995.63
-1525.17
4077.31
-1531.59
4161.41
-1531.03
4241.86
-1522.22
4324
-1505.7
4401.83
-1480.93
4479.57
-1449.04
4553.13
-1410.55
4624.71
-1366.17
4692.24
-1316.76
4756.74
-1262.95
4816.77
-1206.01
4873.13
-1147.02
4924.45
-1086.91
4971.96
-1026.6
5014.44
-966.734
5053.1
-908.08
5086.68
-850.817
5116.52
-795.358
5141.89
-741.804
5163.6
-690.603
5181.28
-642.031
5195.21
-596.599
5206
-554.396
5215.03
-515.675
5219.57
-480.132
5223.63
-448.285
5222.54
-419.995
5223.03
-396.432
5218.48
-376.918
5216.67
-362.379
5209.94
-351.59
5206.1
-345.678
5198.59
-343.486
5194.57
-345.676
5188.51
-350.533
5185.32
-358.687
5181.72
-368.236
5180.89
-380.097
5180.87
-391.967
5182.76
-404.328
5186.47
-415.793
5191.55
-426.564
5199.25
-435.646
5207.18
-442.493
5217.93
-447.075
5227.86
-448.756
5240.23
-448.736
5250.64
-446.404
5262.11
-445.498
5271.37
-447.432
5280.84
-457.181
5290.33
-477.149
5300.35
-511.375
5314.45
-562.584
5331.37
-631.769
5356.55
-720.322
5388.9
-826.996
5433.16
-948.871
5488.29
-1081.15
5557.96
-1215.46
5638.46
-1340.65
5730.85
-1448.95
5830.39
-1534.32
5935.6
-1596.89
6044.05
-1639.37
6153.09
-1665.73
6262.55
-1680.66
6369.57
-1687.55
6475.29
-1689.91
6577.48
-1690.03
6678.17
-1690.29
6776.19
-1692.17
6874.05
-1697.5
6971.55
-1705.92
7071.5
-1723.72
7172.16
-1729.13
-1790.13
2287.66
-1605.14
2376.94
-1550.33
2462.16
-1499.22
2544.68
-1454.75
2622.71
-1419.08
2700.27
-1392.16
2773.3
-1375.44
2847.97
-1365.21
2918.18
-1361.98
2990.31
-1363.37
3058.45
-1370.62
3128.94
-1381.93
3196.24
-1394.15
3267.76
-1408.82
3337.52
-1426.99
3410.07
-1449.14
3482.22
-1473.56
3556.43
-1499.55
3630.86
-1525.4
3707.99
-1550.42
3785.66
-1572.59
3864.88
-1591.59
3945.82
-1605.16
4025.4
-1612.07
4107.45
-1611.39
4185.86
-1602.16
4266.01
-1584.36
4341.86
-1558.03
4417.65
-1523.82
4489.28
-1482.65
4558.92
-1435.25
4624.51
-1382.39
4687.04
-1324.97
4745.06
-1264.06
4799.38
-1200.96
4848.62
-1136.6
4894.04
-1071.92
4934.38
-1007.66
4970.88
-944.674
5002.24
-883.229
5029.81
-823.704
5052.83
-766.199
5072.1
-711.188
5087.25
-658.933
5098.53
-609.93
5106.59
-564.223
5112.83
-522.146
5114.44
-483.622
5115.53
-448.916
5111.29
-418.111
5108.67
-392.294
5100.79
-370.884
5095.79
-354.729
5085.62
-342.818
5078.52
-336.015
5067.57
-333.593
5060.34
-335.768
5050.96
-341.089
5044.66
-349.725
5037.86
-360.121
5034.12
-373
5031.1
-385.894
5030.3
-399.647
5031.39
-412.618
5034.08
-424.979
5039.53
-435.784
5045.38
-444.454
5054.38
-450.843
5062.6
-454.098
5073.59
-455.396
5082.46
-453.824
5092.52
-453.153
5099.87
-454.969
5107.25
-464.66
5114.2
-484.605
5121.36
-519.949
5132.54
-573.331
5146.36
-646.693
5168.64
-741.464
5198.24
-856.541
5240.04
-990.065
5293.33
-1134.88
5362.59
-1283.46
5444.2
-1422.31
5539.53
-1541.97
5642.94
-1636.18
5752.06
-1704.1
5863.45
-1749.08
5973.61
-1775.33
6082.13
-1788.25
6186.17
-1792.07
6287.5
-1790.98
6384.59
-1788.08
6480.43
-1786.26
6574.7
-1787.43
6670.67
-1793.69
6768.72
-1804.78
6871.7
-1826.84
6979.39
-1837.03
-1912.47
2279.86
-1696.14
2367.95
-1637.51
2451.62
-1583.47
2532.39
-1536.02
2608.68
-1497.48
2684.52
-1467.85
2755.95
-1449.16
2829
-1437.56
2897.6
-1433.11
2967.96
-1433.61
3034.26
-1440.23
3102.81
-1451.39
3168.08
-1463.74
3237.47
-1479.18
3305.05
-1498.13
3375.4
-1521.33
3445.36
-1546.96
3517.39
-1574.18
3589.65
-1601.55
3664.66
-1628.33
3740.23
-1651.94
3817.39
-1672.38
3896.31
-1686.64
3973.92
-1693.57
4054.02
-1692.55
4130.54
-1682.22
4208.83
-1663.24
4282.84
-1634.97
4356.81
-1598.59
4426.64
-1554.68
4494.49
-1503.94
4558.26
-1447.35
4618.95
-1385.66
4675.1
-1320.29
4727.54
-1252.47
4774.89
-1183.32
4818.41
-1113.91
4856.82
-1044.98
4891.36
-977.362
4920.71
-911.269
4946.21
-847.167
4967.06
-785.149
4984.08
-725.763
4996.86
-669.305
5005.67
-616.343
5011.14
-567.021
5014.73
-521.591
5013.55
-479.972
5011.78
-442.57
5004.48
-409.409
4998.86
-381.774
4987.72
-358.899
4979.56
-341.815
4966.01
-329.299
4955.65
-322.591
4941.29
-320.408
4930.84
-323.445
4918.11
-329.765
4908.66
-339.965
4898.6
-352.041
4891.83
-367.04
4885.75
-381.975
4882.14
-398.159
4880.48
-413.441
4880.61
-428.024
4883.66
-440.658
4887.34
-451.072
4894.54
-458.531
4900.91
-462.252
4910.44
-463.317
4917.69
-460.622
4926.3
-458.109
4931.66
-457.619
4936.84
-465.314
4941.09
-484.262
4945.28
-519.997
4953.32
-576.233
4963.79
-654.451
4982.82
-756.591
5008.89
-881.912
5047.5
-1027.28
5098.34
-1188.07
5167.64
-1354.76
5251.93
-1511.61
5352.03
-1646.42
5460.55
-1749.99
5573.26
-1821.63
5685.64
-1865.46
5793.74
-1887.44
5897.8
-1894.73
5995.96
-1892.97
6091.42
-1887.53
6183.88
-1882.14
6277.44
-1880.05
6372.4
-1883.14
6472.37
-1893.41
6577.66
-1910.34
6690.63
-1939.49
6812.03
-1958.34
-2047.85
2271.45
-1788.33
2358
-1724.93
2439.97
-1665.96
2519.14
-1614.69
2594
-1573.49
2668.42
-1542.07
2738.43
-1521.66
2809.88
-1508.58
2876.77
-1503.21
2945.23
-1503.03
3009.57
-1509.17
3076.13
-1519.84
3139.38
-1531.99
3206.7
-1547.31
3272.19
-1566.7
3340.46
-1590.64
3408.32
-1617.23
3478.25
-1645.71
3548.42
-1674.19
3621.38
-1701.91
3694.9
-1726.54
3770.11
-1747.61
3847.1
-1762.58
3922.84
-1770.04
4001.14
-1768.94
4075.87
-1758.3
4152.43
-1738.14
4224.72
-1708.43
4297
-1669.8
4365.16
-1623.23
4431.32
-1569.43
4493.41
-1509.32
4552.4
-1443.95
4606.84
-1374.54
4657.59
-1302.57
4703.24
-1229.13
4745.06
-1155.33
4781.75
-1082
4814.54
-1010.05
4842.06
-939.769
4865.67
-871.563
4884.53
-805.525
4899.47
-742.238
4910.03
-681.959
4916.49
-625.245
4919.51
-572.113
4920.58
-523.062
4916.69
-478.175