/*--------------------------------*- C++ -*----------------------------------*\
| =========                 |                                                 |
| \\      /  F ield         | OpenFOAM: The Open Source CFD Toolbox           |
|  \\    /   O peration     | Version:  4.1                                   |
|   \\  /    A nd           | Web:      www.OpenFOAM.org                      |
|    \\/     M anipulation  |                                                 |
\*---------------------------------------------------------------------------*/
FoamFile
{
    version     2.0;
    format      ascii;
    class       volVectorField;
    location    "26";
    object      U;
}
// * * * * * * * * * * * * * * * * * * * * * * * * * * * * * * * * * * * * * //

dimensions      [0 1 -1 0 0 0 0];

internalField   nonuniform List<vector> 
26785
(
(-4.10781e-15 -0.00793 18.9852)
(-4.35063e-15 -0.00867501 19.1048)
(-4.42609e-15 -0.00717301 19.1906)
(-1.31844e-14 -0.00535757 19.2621)
(-4.62621e-15 -0.00428268 19.3168)
(-5.75221e-15 -0.00322611 19.3602)
(-5.3783e-15 -0.0030788 19.3935)
(-5.3665e-15 -0.00265913 19.4241)
(-4.17975e-15 -0.00290232 19.4542)
(-5.08295e-15 -0.0029107 19.4829)
(-5.58682e-15 -0.00349191 19.5128)
(-6.1254e-15 -0.00393539 19.5429)
(-6.16162e-15 -0.00460943 19.5767)
(-6.23074e-15 -0.00491925 19.6206)
(-6.40923e-15 -0.00558249 19.6777)
(-6.55475e-15 -0.00602037 19.7415)
(-6.52776e-15 -0.00666738 19.8147)
(-6.46838e-15 -0.00715523 19.8936)
(-4.87823e-15 -0.00771377 19.9807)
(-2.23773e-15 -0.00816638 20.0752)
(-9.98842e-15 -0.00860294 20.1778)
(-8.05592e-15 -0.00898094 20.285)
(-8.52048e-15 -0.0092683 20.3975)
(-8.3853e-15 -0.00945627 20.51)
(-9.00434e-15 -0.00950499 20.623)
(-9.06986e-15 -0.00944287 20.7322)
(-9.02502e-15 -0.00917494 20.8364)
(-7.92057e-15 -0.00876883 20.9347)
(-7.91852e-15 -0.00815351 21.0247)
(-1.13228e-14 -0.00741576 21.1064)
(-6.51384e-15 -0.00651334 21.1771)
(-9.28275e-15 -0.00554174 21.2376)
(-1.01424e-14 -0.00447002 21.2873)
(-1.46079e-14 -0.00339824 21.3267)
(-8.63459e-15 -0.00232104 21.3556)
(-7.637e-15 -0.00131519 21.3739)
(-8.23117e-15 -0.00033257 21.3822)
(-8.54349e-15 0.000568603 21.3815)
(-8.37149e-15 0.0014145 21.3724)
(-8.49307e-15 0.00216973 21.3553)
(-3.52293e-15 0.00288073 21.331)
(-7.91083e-15 0.00352399 21.3009)
(-6.68377e-15 0.00411503 21.2656)
(-4.95525e-15 0.00463618 21.226)
(-1.03697e-14 0.00509695 21.1823)
(-9.56781e-15 0.00547759 21.1353)
(-9.4244e-15 0.00579818 21.087)
(-9.43517e-15 0.00607339 21.0378)
(-9.38168e-15 0.00626419 20.9875)
(-9.47465e-15 0.00638408 20.9357)
(-8.53303e-15 0.00642121 20.8842)
(-8.27414e-15 0.00637328 20.8336)
(-8.19753e-15 0.00625953 20.7848)
(-8.14539e-15 0.00607015 20.7378)
(-8.16042e-15 0.00581966 20.6924)
(-7.97814e-15 0.00550178 20.6492)
(-8.82457e-15 0.00512027 20.608)
(-9.34013e-15 0.004697 20.5702)
(-9.61526e-15 0.00422871 20.5352)
(-7.47946e-15 0.00375926 20.5038)
(-8.10768e-15 0.00327371 20.4755)
(-1.0657e-14 0.00283683 20.4507)
(-8.86236e-15 0.00240451 20.4289)
(-1.00919e-14 0.00203823 20.4099)
(-1.21052e-14 0.00169307 20.3933)
(-1.24065e-14 0.0014235 20.3789)
(-1.18511e-14 0.00118862 20.3664)
(-1.17642e-14 0.00100306 20.3552)
(-1.18607e-14 0.000831219 20.3452)
(-1.18082e-14 0.000648762 20.3362)
(-1.30595e-14 0.000428219 20.3287)
(-1.29977e-14 9.5588e-05 20.3226)
(-1.31376e-14 -0.000363121 20.3189)
(-1.33034e-14 -0.0010468 20.318)
(-1.34413e-14 -0.00195128 20.3215)
(-1.19929e-14 -0.00314603 20.3303)
(-1.15721e-14 -0.0046049 20.3461)
(-1.14159e-14 -0.00634377 20.3698)
(-1.15138e-14 -0.00830381 20.4027)
(-1.15503e-14 -0.010462 20.4455)
(-1.11622e-14 -0.0126998 20.4987)
(-1.21861e-14 -0.0149951 20.5623)
(-1.24652e-14 -0.0172018 20.6361)
(-1.35927e-14 -0.0192707 20.7193)
(-2.31046e-14 -0.0211062 20.8106)
(-1.04055e-14 -0.0226587 20.9089)
(-1.18981e-14 -0.0239137 21.0122)
(-1.18932e-14 -0.0248773 21.1192)
(-1.23641e-14 -0.0255888 21.2281)
(-1.22717e-14 -0.0260994 21.3381)
(-1.22268e-14 -0.0264645 21.4481)
(-1.22446e-14 -0.0267357 21.5577)
(-1.21795e-14 -0.0269664 21.6665)
(-1.21476e-14 -0.0271799 21.7744)
(-1.18101e-14 -0.0274382 21.8813)
(-1.20406e-14 -0.0276757 21.9883)
(-1.24332e-14 -0.0281932 22.0926)
(-1.23355e-14 -0.0281384 22.2047)
(-1.21648e-14 -0.0303966 22.29)
(-1.20486e-14 -0.0298863 22.4613)
(-3.6094e-15 -0.0164503 18.9054)
(-5.66782e-15 -0.011864 19.022)
(-5.41264e-15 -0.0102512 19.1043)
(-7.05396e-15 -0.007776 19.1722)
(-6.21418e-15 -0.00661165 19.2225)
(-4.03021e-15 -0.00520571 19.2632)
(-1.01554e-15 -0.00568517 19.2944)
(-2.83251e-15 -0.00540855 19.3236)
(-1.11457e-14 -0.00657741 19.3526)
(-2.05229e-15 -0.00713685 19.3802)
(-4.8434e-15 -0.00896133 19.4086)
(-4.5152e-15 -0.0104943 19.4362)
(-4.51761e-15 -0.0124478 19.4662)
(-4.69321e-15 -0.0136269 19.5061)
(-6.00538e-15 -0.0156814 19.5593)
(-6.07119e-15 -0.0173897 19.6183)
(-4.69838e-15 -0.019604 19.6861)
(-4.5522e-15 -0.0215424 19.7582)
(-4.71255e-15 -0.0235736 19.8372)
(-3.64227e-15 -0.0253514 19.9224)
(-4.3243e-15 -0.0269797 20.0144)
(-3.23509e-15 -0.0283568 20.1101)
(-3.44098e-15 -0.0294055 20.2105)
(-3.01071e-15 -0.0300605 20.31)
(-2.32059e-15 -0.0302371 20.4097)
(-5.2421e-15 -0.030026 20.5048)
(-4.9535e-15 -0.0291925 20.5943)
(-3.00164e-15 -0.0279666 20.6775)
(-3.86765e-15 -0.0261593 20.7518)
(-7.00087e-15 -0.0240349 20.8177)
(4.39375e-15 -0.0214797 20.8722)
(-3.69631e-15 -0.0186935 20.9163)
(-3.21991e-15 -0.0156318 20.9493)
(-2.005e-15 -0.0124923 20.9715)
(-2.4747e-15 -0.00932437 20.9826)
(-3.65429e-15 -0.00628858 20.9823)
(-3.45995e-15 -0.00328353 20.971)
(-2.93123e-15 -0.000458547 20.9498)
(-2.93431e-15 0.00222375 20.919)
(-2.79485e-15 0.00467241 20.8792)
(-2.75561e-15 0.00698649 20.831)
(-1.89851e-15 0.00909951 20.776)
(-1.41113e-15 0.0110379 20.7147)
(1.9785e-15 0.0127599 20.648)
(-2.44717e-15 0.014275 20.5763)
(-1.99261e-16 0.0155444 20.5002)
(-2.63541e-15 0.0166235 20.4221)
(-3.12401e-15 0.0174973 20.3423)
(-2.85004e-15 0.01814 20.2607)
(-1.1046e-15 0.0185102 20.177)
(-1.57961e-15 0.0186613 20.0931)
(-1.99403e-15 0.0185232 20.0095)
(-1.56984e-15 0.0182122 19.9273)
(-2.47869e-15 0.017641 19.8466)
(-1.71948e-15 0.0169078 19.7673)
(-2.28429e-15 0.0159471 19.6898)
(-1.11919e-14 0.014844 19.6143)
(-1.67304e-15 0.0135967 19.5422)
(-1.01234e-15 0.0122517 19.4729)
(-1.80138e-15 0.0108713 19.4074)
(-3.15121e-15 0.00944636 19.3451)
(-5.43488e-16 0.0081292 19.2868)
(5.28526e-16 0.0068042 19.2317)
(6.27391e-15 0.00564355 19.18)
(-1.34717e-15 0.0045121 19.1313)
(-1.15318e-15 0.00357833 19.0853)
(-1.56693e-15 0.00270771 19.0419)
(-1.11569e-15 0.0019663 19.0004)
(-1.76947e-14 0.00125155 18.9607)
(-2.99561e-15 0.00051717 18.9225)
(-1.59433e-15 -0.000300066 18.886)
(-8.25214e-15 -0.00138471 18.851)
(-7.85908e-15 -0.00275483 18.8182)
(-4.51563e-15 -0.00468021 18.7876)
(-5.41454e-15 -0.00712081 18.7606)
(1.37576e-15 -0.0102998 18.7377)
(1.90865e-15 -0.0141125 18.7204)
(-7.50721e-16 -0.0186614 18.7095)
(7.95485e-15 -0.0237769 18.706)
(-6.28764e-15 -0.0294056 18.7108)
(-4.11451e-15 -0.0352844 18.7242)
(-1.2576e-14 -0.0412594 18.7466)
(4.42814e-16 -0.0470104 18.7779)
(-1.54237e-14 -0.052332 18.8176)
(-1.08871e-15 -0.0569803 18.8649)
(-9.93199e-16 -0.0608335 18.9186)
(-1.44757e-15 -0.0638188 18.9771)
(-2.61497e-15 -0.0659948 19.0392)
(-2.24503e-15 -0.0674342 19.1031)
(-6.67989e-16 -0.0683061 19.1682)
(-3.8957e-16 -0.0687435 19.2332)
(-8.82095e-16 -0.0689035 19.2979)
(-8.79981e-16 -0.0689197 19.3617)
(-1.59569e-15 -0.0688769 19.4247)
(-1.75805e-15 -0.0689046 19.4867)
(-1.63016e-15 -0.0689468 19.5487)
(-4.20104e-16 -0.0694573 19.6086)
(-3.36235e-15 -0.0692921 19.6736)
(-2.60528e-15 -0.0726646 19.7221)
(-2.86547e-15 -0.0712112 19.8149)
(-1.61007e-15 -0.0303798 18.7453)
(-4.7652e-15 -0.0243209 18.8518)
(4.37024e-15 -0.0214457 18.9183)
(-1.44607e-14 -0.0171334 18.9679)
(-2.173e-15 -0.0141996 18.9978)
(4.38031e-17 -0.0118075 19.0164)
(1.70588e-15 -0.0117242 19.0238)
(-7.39406e-16 -0.0113315 19.0277)
(-1.32082e-15 -0.0126087 19.0301)
(-1.09539e-15 -0.013619 19.0298)
(-8.41647e-16 -0.0161968 19.0292)
(-7.29928e-16 -0.0188217 19.0268)
(-1.12003e-15 -0.0217468 19.0262)
(-7.8761e-16 -0.0239644 19.035)
(2.12386e-16 -0.0270775 19.0567)
(-2.4022e-16 -0.0300201 19.084)
(5.54131e-16 -0.0334577 19.1198)
(-9.59391e-17 -0.0366549 19.1602)
(8.11739e-15 -0.0398429 19.2078)
(2.66097e-16 -0.0426937 19.262)
(-1.54734e-15 -0.0452096 19.3237)
(-3.67966e-15 -0.0473651 19.3895)
(4.83157e-15 -0.0489491 19.4608)
(2.29159e-15 -0.0498956 19.5317)
(1.49564e-15 -0.0500681 19.6034)
(-3.89433e-15 -0.0495422 19.6711)
(-1.60314e-15 -0.0480293 19.7337)
(3.8904e-15 -0.0457882 19.7903)
(2.42947e-15 -0.0426184 19.8384)
(2.17476e-15 -0.0388687 19.878)
(2.51859e-15 -0.034424 19.9061)
(-2.26586e-16 -0.0295693 19.9237)
(-4.13759e-15 -0.0242787 19.9296)
(1.1209e-16 -0.0188214 19.9243)
(3.48739e-15 -0.013321 19.9074)
(2.13122e-15 -0.00797843 19.8783)
(2.19062e-15 -0.00270303 19.8375)
(2.13811e-15 0.00231939 19.7861)
(2.26296e-15 0.00709515 19.7244)
(2.28572e-15 0.011516 19.653)
(2.16259e-15 0.0156914 19.5725)
(1.93663e-15 0.0195419 19.4845)
(1.79723e-15 0.023078 19.3896)
(1.75376e-15 0.0262447 19.2888)
(1.78149e-15 0.0290336 19.1825)
(1.71338e-15 0.0314012 19.0713)
(1.84886e-15 0.0334205 18.9576)
(2.08937e-15 0.0350603 18.8421)
(2.10064e-15 0.0362672 18.7244)
(1.87646e-15 0.03701 18.604)
(1.71696e-15 0.037336 18.4832)
(1.74201e-15 0.0371988 18.3625)
(1.78576e-15 0.0366996 18.2429)
(1.75011e-15 0.0357784 18.1249)
(2.09779e-15 0.0344971 18.0078)
(1.36856e-15 0.032841 17.8926)
(8.76387e-16 0.0308742 17.7792)
(1.96615e-15 0.0286855 17.6693)
(3.1682e-15 0.0262804 17.5622)
(1.1088e-15 0.0238431 17.459)
(9.58077e-16 0.0213049 17.359)
(3.21995e-15 0.0189561 17.2632)
(2.91648e-15 0.0165682 17.1707)
(1.51812e-15 0.0144696 17.0816)
(4.79304e-15 0.0124302 16.9955)
(9.75337e-15 0.0107441 16.9121)
(1.01778e-15 0.00917207 16.8313)
(-2.42558e-15 0.00783793 16.7522)
(2.72829e-15 0.00656968 16.6748)
(2.87491e-15 0.00531852 16.5987)
(2.85199e-15 0.00397507 16.5243)
(6.6598e-15 0.00226599 16.4513)
(1.32319e-14 0.000137373 16.3805)
(6.10371e-16 -0.00282649 16.3122)
(9.47708e-15 -0.00660919 16.2479)
(5.87825e-15 -0.0115404 16.1884)
(5.44682e-15 -0.0175271 16.1357)
(5.40706e-15 -0.024699 16.0907)
(5.14959e-15 -0.032862 16.055)
(5.14128e-15 -0.0418943 16.0297)
(4.93971e-15 -0.051426 16.0155)
(4.89646e-15 -0.0611726 16.013)
(1.82541e-14 -0.0706408 16.0223)
(1.7704e-15 -0.0794319 16.0431)
(1.34745e-15 -0.0871592 16.0742)
(6.83041e-16 -0.0935512 16.1145)
(5.74977e-16 -0.0985019 16.1618)
(1.08803e-20 -0.102071 16.2148)
(-1.96871e-15 -0.104399 16.2714)
(3.98986e-16 -0.105768 16.3306)
(1.02695e-15 -0.106411 16.3911)
(-1.38999e-15 -0.106616 16.4524)
(4.49453e-15 -0.106599 16.5141)
(-2.73314e-15 -0.106548 16.5762)
(-3.20998e-15 -0.10662 16.6386)
(-3.18888e-15 -0.106907 16.7023)
(-4.93424e-16 -0.107613 16.765)
(-4.1086e-15 -0.108599 16.835)
(-4.24259e-15 -0.110766 16.8875)
(-4.1721e-15 -0.111365 16.9933)
(-3.3494e-15 -0.0443937 18.5839)
(-8.80894e-15 -0.0349207 18.6776)
(-9.51771e-16 -0.0297239 18.7274)
(-4.35099e-15 -0.0229245 18.7584)
(-1.37952e-15 -0.0179116 18.7687)
(-2.33347e-16 -0.0142394 18.7666)
(3.35431e-15 -0.0134945 18.7532)
(6.23399e-15 -0.0128791 18.7366)
(-4.80945e-15 -0.014302 18.7191)
(-1.02848e-15 -0.0157567 18.6996)
(-3.13652e-16 -0.0191166 18.6808)
(-1.60021e-16 -0.0227739 18.6617)
(-1.87472e-15 -0.0266237 18.6457)
(-4.50768e-15 -0.0297786 18.6405)
(6.97801e-15 -0.0338705 18.6498)
(5.62751e-15 -0.0379713 18.6663)
(5.12864e-15 -0.0425749 18.693)
(6.73533e-15 -0.0470127 18.7258)
(1.02281e-14 -0.051359 18.7673)
(2.42977e-15 -0.0553351 18.817)
(3.53488e-15 -0.058836 18.8754)
(3.59477e-15 -0.0618772 18.9391)
(3.87628e-15 -0.0641365 19.0092)
(3.9025e-15 -0.0654905 19.0795)
(3.76447e-15 -0.0657683 19.1509)
(3.84154e-15 -0.0649744 19.2185)
(3.54596e-15 -0.0628002 19.2808)
(3.37397e-15 -0.0594935 19.3369)
(3.3677e-15 -0.0549079 19.3839)
(3.01063e-15 -0.0494488 19.4219)
(-3.85604e-15 -0.0430574 19.4477)
(5.44368e-15 -0.0360594 19.4621)
(6.37409e-15 -0.0284839 19.4642)
(5.41198e-15 -0.0206327 19.4544)
(8.12453e-15 -0.0127164 19.4324)
(1.7248e-15 -0.00494738 19.3978)
(3.00606e-15 0.00272534 19.3512)
(3.17042e-15 0.0101013 19.2937)
(3.49242e-15 0.0171406 19.2258)
(3.05476e-15 0.0237407 19.1479)
(2.93177e-15 0.0299991 19.0608)
(1.04332e-15 0.0358377 18.966)
(1.417e-15 0.0412409 18.8643)
(2.01769e-15 0.046146 18.7564)
(1.26401e-15 0.0505236 18.6427)
(1.21976e-15 0.0543187 18.524)
(1.51598e-15 0.05759 18.4025)
(4.57972e-15 0.0603529 18.2789)
(4.70158e-15 0.0624618 18.1528)
(-2.0909e-16 0.0639918 18.0238)
(3.88256e-16 0.0648519 17.8938)
(5.62314e-16 0.0651483 17.7638)
(-7.95028e-16 0.0648186 17.6347)
(5.03678e-16 0.0639772 17.5067)
(2.51563e-15 0.0625151 17.3795)
(1.0807e-15 0.0605929 17.2538)
(-1.0492e-14 0.0581435 17.1296)
(1.86472e-15 0.0554441 17.0086)
(1.05873e-15 0.052387 16.8902)
(1.03738e-15 0.0493291 16.7753)
(-3.32584e-16 0.0461207 16.6635)
(4.15506e-15 0.0431838 16.5556)
(3.86407e-15 0.040191 16.4506)
(3.68705e-16 0.0375863 16.3486)
(2.68734e-15 0.0350881 16.2491)
(1.80258e-14 0.0330549 16.152)
(-1.53681e-14 0.0312098 16.0568)
(2.17648e-14 0.0296658 15.9628)
(-1.53683e-15 0.0282332 15.8699)
(-1.18929e-15 0.0267833 15.7778)
(1.10732e-14 0.0251875 15.6871)
(-1.0273e-14 0.0230282 15.5975)
(-2.90658e-15 0.0202067 15.5104)
(-5.85946e-15 0.0161329 15.4261)
(-1.29729e-14 0.0107581 15.347)
(-2.13316e-14 0.00365229 15.274)
(-2.64286e-15 -0.00516705 15.2099)
(-2.43879e-14 -0.0158031 15.1562)
(-4.66691e-15 -0.0281052 15.1146)
(-4.41025e-15 -0.0417819 15.0867)
(-5.66075e-15 -0.0564073 15.0734)
(-6.17523e-15 -0.0714114 15.0751)
(-4.31954e-15 -0.0861538 15.092)
(3.54587e-15 -0.0998925 15.123)
(-1.33609e-14 -0.112112 15.1668)
(-9.71387e-15 -0.122306 15.2215)
(-1.00537e-14 -0.130359 15.2845)
(-9.1971e-15 -0.136315 15.3539)
(-8.45579e-15 -0.140412 15.4274)
(-7.27543e-15 -0.14306 15.5035)
(-3.4107e-15 -0.144616 15.5809)
(-1.70506e-14 -0.145522 15.659)
(-5.93945e-15 -0.146082 15.7371)
(-5.2631e-15 -0.146602 15.8153)
(-3.8027e-15 -0.147289 15.8933)
(-3.99319e-15 -0.148285 15.9723)
(-4.33672e-15 -0.149866 16.0495)
(-2.83193e-15 -0.151751 16.1348)
(-2.23339e-15 -0.154789 16.1976)
(-2.1872e-15 -0.157797 16.3294)
(1.16128e-15 -0.0553775 18.5177)
(7.72337e-15 -0.0426323 18.6154)
(-3.26779e-15 -0.033963 18.6681)
(6.14319e-15 -0.0242417 18.7)
(-1.72263e-15 -0.0172457 18.7103)
(-4.97823e-15 -0.0125807 18.7081)
(-4.5784e-15 -0.0114721 18.6951)
(-9.41698e-16 -0.0109759 18.6796)
(-3.53823e-16 -0.0127614 18.6637)
(1.9375e-15 -0.0148744 18.6466)
(3.81823e-15 -0.0190867 18.6307)
(1.29812e-15 -0.0238353 18.6151)
(-9.18376e-16 -0.0285911 18.6031)
(-1.56851e-15 -0.0327609 18.6022)
(8.07287e-15 -0.0378571 18.6158)
(-3.3526e-15 -0.0432109 18.6367)
(4.02198e-15 -0.0490778 18.6677)
(3.57888e-15 -0.0548841 18.7049)
(2.85524e-15 -0.0605486 18.7506)
(2.45639e-15 -0.0658192 18.8041)
(2.23603e-15 -0.0704678 18.8661)
(3.02272e-15 -0.0745353 18.9329)
(3.22258e-15 -0.0775679 19.0054)
(3.19709e-15 -0.079357 19.0776)
(3.41419e-15 -0.07973 19.1501)
(4.21189e-15 -0.0785408 19.2181)
(8.59823e-15 -0.0755692 19.2802)
(3.49567e-15 -0.0709715 19.3355)
(3.85727e-15 -0.0647636 19.3811)
(2.76316e-15 -0.057345 19.4171)
(2.69561e-15 -0.0487763 19.4404)
(1.99078e-15 -0.0393983 19.4519)
(1.78189e-15 -0.029315 19.4508)
(6.60333e-16 -0.0188525 19.4375)
(-3.21918e-15 -0.00831023 19.4117)
(2.62415e-15 0.00210004 19.3733)
(3.02527e-16 0.0123639 19.3226)
(7.32494e-18 0.0222872 19.2609)
(1.84709e-16 0.031769 19.1886)
(7.22108e-17 0.0407294 19.1061)
(-2.42647e-17 0.0492319 19.0142)
(-8.88716e-17 0.057214 18.9146)
(-5.88994e-15 0.0646226 18.8076)
(-6.49997e-16 0.0713947 18.6944)
(-8.73672e-16 0.0774725 18.5753)
(-1.11926e-15 0.0827921 18.4508)
(-1.3834e-15 0.0874185 18.3235)
(-1.80162e-15 0.0913852 18.194)
(-1.15394e-15 0.0945002 18.0618)
(-2.11209e-15 0.0968999 17.9266)
(-3.13783e-15 0.098381 17.7904)
(-4.56288e-15 0.0991674 17.6541)
(-4.57805e-15 0.0990724 17.5187)
(-4.68893e-15 0.0983625 17.3845)
(-4.98709e-15 0.0967989 17.251)
(-3.91562e-15 0.0946783 17.119)
(-4.15377e-15 0.0918348 16.9886)
(-2.52015e-15 0.0886862 16.8615)
(5.53386e-15 0.0850632 16.7371)
(-5.98434e-15 0.0814103 16.6164)
(-1.57443e-14 0.0775763 16.4989)
(-5.45638e-15 0.0740461 16.3854)
(-6.99415e-15 0.0705032 16.2751)
(-7.32672e-15 0.067403 16.168)
(-5.76724e-15 0.0645044 16.0636)
(1.09233e-14 0.0621291 15.9618)
(-6.04513e-15 0.0600667 15.8621)
(9.55268e-15 0.0583379 15.7639)
(-9.22604e-15 0.056808 15.6668)
(-1.85986e-14 0.0551979 15.5707)
(-1.99747e-14 0.053395 15.476)
(-1.0402e-14 0.0507721 15.3824)
(-1.49313e-14 0.0471888 15.2911)
(-1.80819e-14 0.0418387 15.2027)
(-3.95065e-15 0.0345859 15.1193)
(-2.08768e-14 0.0249013 15.0422)
(-1.48399e-14 0.0127011 14.974)
(-5.70659e-15 -0.00203891 14.9162)
(-2.38947e-14 -0.0192048 14.8709)
(-3.3309e-14 -0.0382815 14.8396)
(-9.6736e-15 -0.0587261 14.8231)
(3.88202e-16 -0.0796657 14.8219)
(-1.52685e-14 -0.100237 14.8358)
(9.36465e-15 -0.119339 14.864)
(-1.22958e-14 -0.136303 14.9048)
(-1.11633e-14 -0.150373 14.9562)
(-5.36419e-15 -0.161458 15.0155)
(-3.45802e-15 -0.169593 15.0807)
(-2.1025e-15 -0.175155 15.1492)
(1.63292e-16 -0.178706 15.2199)
(1.85414e-15 -0.180749 15.291)
(2.0316e-15 -0.181895 15.3621)
(2.95064e-15 -0.182542 15.4324)
(4.42147e-15 -0.183116 15.5019)
(4.42496e-15 -0.183877 15.5704)
(5.58601e-16 -0.185001 15.6389)
(4.18567e-15 -0.186857 15.705)
(3.84579e-15 -0.188954 15.777)
(2.87303e-15 -0.192713 15.8299)
(1.7421e-15 -0.197322 15.9367)
(5.80919e-16 -0.0611946 18.6019)
(8.51274e-15 -0.047422 18.6884)
(5.03798e-16 -0.0363356 18.7362)
(-8.39194e-16 -0.0246189 18.7665)
(-1.43511e-15 -0.0162966 18.7766)
(2.77611e-15 -0.0109505 18.7747)
(1.83955e-15 -0.00952268 18.7621)
(-6.90398e-15 -0.00905391 18.7468)
(5.79343e-15 -0.0110366 18.7306)
(-5.28197e-15 -0.0136213 18.7125)
(1.68642e-15 -0.0184753 18.695)
(1.07221e-14 -0.0241083 18.6773)
(2.55778e-15 -0.0296256 18.6627)
(1.17194e-15 -0.0347336 18.6583)
(7.7697e-16 -0.0408178 18.6674)
(-9.60913e-17 -0.0474446 18.6832)
(-2.96356e-16 -0.054624 18.7085)
(-2.06273e-15 -0.0618557 18.7392)
(-2.27705e-15 -0.068876 18.7779)
(-1.22481e-15 -0.0754564 18.8241)
(6.35501e-16 -0.0812381 18.878)
(8.22759e-16 -0.0862648 18.9364)
(1.4583e-15 -0.0899829 19.0001)
(1.27321e-15 -0.0920991 19.0631)
(-2.69448e-15 -0.0924357 19.1262)
(3.90134e-15 -0.0907435 19.1847)
(1.77098e-15 -0.0868687 19.2373)
(1.3835e-15 -0.0809295 19.2831)
(2.34508e-16 -0.0730684 19.3193)
(-3.88841e-15 -0.0637026 19.3461)
(2.45876e-15 -0.052991 19.3603)
(3.39702e-15 -0.0412792 19.3628)
(-2.68932e-15 -0.028744 19.3527)
(-3.07822e-16 -0.0157275 19.3305)
(-1.08216e-15 -0.00261569 19.296)
(-7.55228e-15 0.0103767 19.2487)
(-1.81693e-15 0.0231734 19.1892)
(-1.05592e-15 0.035576 19.1186)
(-9.45029e-16 0.0474219 19.0373)
(-8.66736e-16 0.0586424 18.9457)
(-1.89093e-15 0.0692699 18.8446)
(-7.66955e-15 0.0792521 18.7355)
(-2.49708e-15 0.0885068 18.6192)
(-1.42321e-15 0.0969741 18.4964)
(-1.7351e-15 0.104572 18.3676)
(-3.04578e-15 0.111245 18.2336)
(-2.72242e-15 0.117059 18.0968)
(-2.98833e-15 0.122065 17.9578)
(-3.10279e-15 0.126042 17.8163)
(-2.63475e-15 0.129143 17.6717)
(-2.23144e-15 0.131109 17.5264)
(-1.88302e-15 0.132232 17.3811)
(-2.09098e-15 0.13226 17.237)
(-1.72094e-15 0.131554 17.0941)
(-1.24435e-15 0.129792 16.9523)
(-6.42945e-16 0.127357 16.8122)
(-6.24776e-16 0.124016 16.674)
(-1.39985e-15 0.120283 16.5395)
(1.30464e-15 0.115983 16.4079)
(2.21046e-15 0.111596 16.2806)
(7.94911e-16 0.10697 16.1568)
(-1.81207e-15 0.102674 16.0376)
(-8.4702e-16 0.0984133 15.922)
(4.32421e-15 0.0946672 15.8102)
(-6.96605e-15 0.0912215 15.7017)
(-1.96149e-14 0.0883819 15.5963)
(6.04841e-15 0.0859943 15.4935)
(-1.15257e-15 0.0840094 15.3928)
(9.92409e-16 0.0823428 15.2937)
(-9.25701e-15 0.0805801 15.1959)
(-8.64804e-15 0.0786268 15.0997)
(-2.77079e-15 0.0756527 15.0048)
(-3.01956e-15 0.07148 14.9121)
(-2.1404e-16 0.0650784 14.8221)
(2.11611e-14 0.0562444 14.7367)
(9.02816e-16 0.0443029 14.6571)
(-1.62032e-15 0.0291088 14.5859)
(-1.53563e-14 0.0106408 14.5246)
(7.88679e-15 -0.0109836 14.4751)
(9.56696e-15 -0.0350796 14.439)
(5.58375e-15 -0.0609804 14.4172)
(-5.73414e-15 -0.087507 14.4102)
(1.31382e-14 -0.113581 14.4181)
(2.42602e-15 -0.137748 14.44)
(8.26541e-15 -0.159163 14.4744)
(1.72548e-14 -0.176863 14.5193)
(2.14435e-14 -0.190737 14.572)
(1.75516e-14 -0.200848 14.6304)
(1.63664e-14 -0.207688 14.6918)
(1.41535e-14 -0.211977 14.755)
(1.63813e-14 -0.214354 14.8182)
(1.27149e-14 -0.215589 14.8809)
(2.01013e-16 -0.216182 14.9425)
(8.02271e-15 -0.21667 15.0029)
(7.60211e-15 -0.21737 15.0621)
(9.38413e-16 -0.218544 15.1211)
(-4.06255e-16 -0.220459 15.1777)
(-2.75321e-15 -0.223201 15.2398)
(-5.11534e-15 -0.226281 15.2853)
(-8.30376e-15 -0.23353 15.3769)
(-4.77292e-16 -0.068405 18.6363)
(-1.36771e-16 -0.053439 18.7187)
(3.23011e-15 -0.0399918 18.7637)
(4.84742e-15 -0.0263355 18.7909)
(5.16073e-15 -0.0164916 18.7971)
(4.85213e-15 -0.0101124 18.7903)
(2.66008e-15 -0.00805479 18.7725)
(1.18771e-15 -0.00740707 18.7512)
(2.79666e-15 -0.00945766 18.7286)
(-1.03112e-14 -0.0124655 18.7036)
(7.21707e-17 -0.0179671 18.6789)
(2.03759e-15 -0.024529 18.6538)
(-4.55614e-16 -0.0309003 18.6318)
(-6.85844e-16 -0.037063 18.6196)
(8.51692e-16 -0.0442515 18.6206)
(-2.16427e-15 -0.0522345 18.628)
(-2.24471e-15 -0.0607942 18.6446)
(-1.73085e-15 -0.0694709 18.6666)
(-1.41777e-15 -0.0778619 18.6964)
(8.24931e-15 -0.0857306 18.7335)
(-6.67798e-15 -0.0926031 18.7783)
(-4.89226e-16 -0.0985371 18.8275)
(8.6878e-17 -0.102869 18.8819)
(4.92548e-16 -0.105247 18.9357)
(7.51666e-16 -0.105504 18.9897)
(-7.70063e-16 -0.1033 19.0391)
(-6.90277e-15 -0.0985681 19.0829)
(6.15699e-15 -0.0913722 19.12)
(4.14882e-15 -0.0819711 19.1478)
(2.5423e-15 -0.0707764 19.1662)
(-2.82306e-15 -0.0580285 19.1721)
(-2.80683e-15 -0.0440873 19.1666)
(-2.45498e-15 -0.0291859 19.1485)
(-2.20038e-15 -0.0136983 19.1185)
(-2.00356e-15 0.00192152 19.0761)
(-1.29403e-15 0.0174452 19.021)
(-1.21587e-15 0.0327349 18.9538)
(-9.0878e-16 0.047585 18.8754)
(-8.35805e-16 0.0617784 18.7863)
(3.79342e-16 0.0752548 18.6868)
(2.50402e-15 0.0880165 18.5778)
(-4.11108e-15 0.100021 18.4609)
(-1.3546e-15 0.111159 18.3365)
(-1.93552e-15 0.121371 18.2057)
(-3.45465e-15 0.130545 18.0689)
(-2.98258e-15 0.138646 17.9268)
(-2.92039e-15 0.145703 17.782)
(2.1322e-15 0.151826 17.635)
(-8.58928e-15 0.156735 17.4855)
(3.96163e-15 0.160604 17.3331)
(1.29287e-14 0.16312 17.1799)
(1.30081e-15 0.164623 17.0269)
(3.96641e-15 0.164807 16.8751)
(4.38758e-15 0.164101 16.7248)
(4.71245e-15 0.162117 16.5756)
(5.23243e-15 0.159292 16.4284)
(5.17222e-15 0.155375 16.2833)
(2.29625e-15 0.150917 16.142)
(1.13024e-14 0.1458 16.0041)
(4.17221e-15 0.140552 15.8707)
(2.76491e-15 0.134999 15.7412)
(3.12839e-15 0.129791 15.6167)
(4.54995e-15 0.124663 15.4961)
(5.50786e-15 0.120122 15.3799)
(8.51697e-16 0.115985 15.2672)
(1.111e-15 0.112546 15.1582)
(1.44138e-14 0.109703 15.0522)
(2.72e-14 0.10735 14.9486)
(2.1638e-14 0.105453 14.8471)
(6.32319e-15 0.103483 14.7471)
(1.83208e-14 0.101363 14.6489)
(-2.07413e-15 0.0980608 14.5521)
(5.51978e-15 0.0933612 14.4576)
(1.53702e-14 0.0860081 14.3656)
(2.59039e-14 0.0757177 14.2781)
(-1.24689e-14 0.0616659 14.1961)
(3.29938e-14 0.0436184 14.1223)
(2.82279e-15 0.0215596 14.0582)
(2.00315e-14 -0.00440157 14.0058)
(1.22714e-14 -0.0334381 13.9668)
(1.19696e-14 -0.0647409 13.942)
(1.1103e-14 -0.0969051 13.9324)
(-8.78448e-15 -0.128581 13.9382)
(1.62048e-14 -0.157971 13.9584)
(1.73519e-14 -0.18399 13.9916)
(9.09867e-15 -0.205421 14.0356)
(6.45716e-15 -0.222105 14.0874)
(2.66524e-15 -0.234131 14.1447)
(-4.34213e-16 -0.242105 14.2048)
(-3.53606e-15 -0.246935 14.2663)
(-1.34251e-14 -0.249417 14.3276)
(-8.04859e-15 -0.250508 14.3882)
(-6.66366e-15 -0.250826 14.4476)
(-1.62166e-14 -0.251047 14.506)
(-1.74667e-14 -0.251543 14.5635)
(-2.17762e-14 -0.252695 14.6212)
(-1.72311e-14 -0.254646 14.6772)
(-2.25681e-14 -0.258033 14.7395)
(-2.28006e-14 -0.260429 14.7851)
(-2.40149e-14 -0.27031 14.8812)
(-8.13155e-15 -0.0767055 18.6366)
(2.6599e-15 -0.059859 18.7125)
(6.31223e-16 -0.0435226 18.7512)
(-4.20411e-15 -0.0279409 18.7714)
(7.29129e-15 -0.0167215 18.7705)
(4.37595e-15 -0.0094429 18.7569)
(1.67869e-15 -0.00689175 18.7324)
(-6.41863e-15 -0.00615648 18.7048)
(6.88622e-16 -0.00837195 18.6759)
(-5.34006e-16 -0.0118385 18.6448)
(-2.55628e-17 -0.0179949 18.6139)
(-3.51721e-16 -0.0254299 18.5829)
(-4.44312e-16 -0.0326193 18.5549)
(-4.76779e-16 -0.0397596 18.5365)
(-1.46682e-15 -0.0479944 18.5308)
(3.63878e-15 -0.0572378 18.5314)
(4.01754e-15 -0.0670954 18.5408)
(1.75908e-15 -0.077127 18.5555)
(5.03471e-16 -0.086799 18.5778)
(-4.26785e-16 -0.0958733 18.6073)
(-1.35745e-15 -0.103769 18.6445)
(-2.24955e-15 -0.110547 18.6859)
(-1.20275e-15 -0.115457 18.7325)
(2.64702e-16 -0.118096 18.7784)
(-6.06166e-17 -0.118292 18.8245)
(-1.10954e-15 -0.115643 18.8663)
(-7.12252e-15 -0.11012 18.9024)
(6.1429e-15 -0.101755 18.932)
(-5.52903e-16 -0.0908734 18.9523)
(-1.7408e-15 -0.0779037 18.9634)
(-1.50204e-15 -0.063154 18.9623)
(-9.95586e-16 -0.0470005 18.9496)
(-3.9035e-16 -0.029734 18.9246)
(-5.29269e-16 -0.0117597 18.8877)
(-5.47779e-16 0.00640477 18.8385)
(-3.21754e-17 0.0245115 18.7767)
(4.81263e-16 0.0423626 18.7029)
(5.48621e-16 0.0597351 18.6179)
(2.0052e-17 0.07636 18.5221)
(-5.57927e-16 0.0921782 18.416)
(1.14981e-15 0.107165 18.3004)
(8.87755e-16 0.12128 18.1768)
(1.49889e-15 0.134394 18.0457)
(-3.71201e-15 0.146438 17.9081)
(-2.41433e-15 0.157276 17.7646)
(-2.48552e-15 0.166874 17.6157)
(-2.50572e-15 0.175241 17.4643)
(-2.5959e-15 0.182519 17.3106)
(-2.36482e-15 0.188397 17.1545)
(-1.2166e-15 0.193062 16.9954)
(-9.66654e-16 0.196154 16.8356)
(-1.05278e-14 0.198047 16.6761)
(-2.23471e-16 0.198392 16.518)
(-4.20461e-16 0.19767 16.3615)
(-8.93216e-16 0.195457 16.2062)
(-8.07341e-16 0.192213 16.053)
(-2.3677e-15 0.187716 15.9021)
(-1.0134e-15 0.182531 15.7553)
(-2.31277e-15 0.176574 15.6122)
(-1.11586e-14 0.17047 15.4737)
(9.63454e-16 0.163993 15.3396)
(6.18242e-16 0.157868 15.2108)
(-5.19109e-16 0.151851 15.0863)
(-1.00325e-15 0.146478 14.9664)
(-1.79727e-16 0.141594 14.8504)
(2.70052e-15 0.137487 14.7385)
(-8.54571e-15 0.134111 14.6299)
(8.25692e-15 0.131305 14.5241)
(-5.88317e-15 0.129099 14.4204)
(-1.08957e-14 0.126852 14.3186)
(-2.82631e-14 0.124509 14.2187)
(-2.48208e-15 0.120853 14.1202)
(-4.5302e-15 0.115618 14.0238)
(-1.26698e-14 0.107332 13.9297)
(-3.09724e-15 0.0956174 13.84)
(-1.86228e-15 0.0794814 13.7557)
(3.02811e-15 0.0586125 13.6796)
(-1.52617e-14 0.032967 13.6131)
(-4.00479e-15 0.00264675 13.5583)
(-2.77743e-15 -0.0314153 13.5172)
(5.92789e-15 -0.0683031 13.4909)
(-1.77502e-14 -0.106327 13.4805)
(-7.42453e-15 -0.143861 13.4861)
(-1.29459e-14 -0.178677 13.5069)
(-1.5398e-14 -0.209402 13.5412)
(-1.49018e-14 -0.234573 13.5866)
(-2.06812e-14 -0.253972 13.6399)
(-2.29142e-14 -0.267767 13.6986)
(-2.53673e-14 -0.276717 13.7599)
(-2.65735e-14 -0.281949 13.8225)
(-2.94285e-14 -0.284451 13.885)
(-4.02701e-14 -0.285375 13.9469)
(-2.82586e-14 -0.285471 14.0079)
(-2.44751e-14 -0.285544 14.0685)
(-3.3868e-14 -0.286018 14.1286)
(-3.09947e-14 -0.287379 14.1897)
(-3.44212e-14 -0.289675 14.2497)
(-2.96955e-14 -0.293777 14.3171)
(-2.93911e-14 -0.29656 14.3669)
(-2.68895e-14 -0.308545 14.4744)
(-7.22327e-15 -0.0850616 18.6199)
(5.22096e-15 -0.0653368 18.6906)
(-3.2064e-15 -0.0463836 18.7235)
(-9.33685e-15 -0.0294106 18.7376)
(-2.45981e-15 -0.0170673 18.731)
(4.07997e-15 -0.00889894 18.7119)
(-1.82919e-15 -0.00578104 18.6823)
(-1.85295e-15 -0.00486279 18.6498)
(-1.09274e-15 -0.00714288 18.6158)
(-5.4389e-16 -0.0109709 18.5792)
(-7.37434e-16 -0.0176928 18.5426)
(-2.57203e-15 -0.0259191 18.5056)
(-3.67832e-15 -0.0338843 18.4713)
(-2.31003e-15 -0.0419787 18.4461)
(-1.36271e-15 -0.0512431 18.4331)
(-1.27388e-15 -0.0617281 18.426)
(-1.76495e-15 -0.0728799 18.4275)
(-4.73213e-16 -0.0842652 18.4341)
(2.54968e-15 -0.0952444 18.4482)
(-5.34646e-15 -0.105556 18.4695)
(-3.41393e-15 -0.114516 18.4983)
(-3.26183e-15 -0.12219 18.5314)
(-2.18434e-15 -0.127723 18.5697)
(-3.39305e-15 -0.130671 18.6074)
(-9.26163e-15 -0.130849 18.6453)
(9.27137e-17 -0.127785 18.679)
(1.55192e-15 -0.121488 18.7072)
(-4.87279e-16 -0.111945 18.7292)
(-7.6552e-16 -0.0995617 18.7421)
(-6.97889e-16 -0.0847854 18.746)
(-6.4905e-16 -0.0680002 18.7377)
(-6.64525e-16 -0.049612 18.7181)
(-3.84693e-15 -0.0299591 18.6863)
(1.72537e-16 -0.00948465 18.6427)
(-1.98914e-15 0.0112462 18.587)
(-5.44889e-15 0.0319567 18.5188)
(6.11694e-17 0.0523928 18.4386)
(-2.16135e-16 0.072308 18.3473)
(-3.97485e-16 0.0913888 18.2453)
(-3.76207e-16 0.109572 18.133)
(-1.48267e-16 0.126805 18.0111)
(8.50692e-17 0.143049 17.8812)
(-7.45484e-16 0.15815 17.7439)
(-7.40682e-16 0.172027 17.6001)
(-6.0771e-16 0.18452 17.4503)
(-6.84927e-16 0.19558 17.2952)
(-1.20608e-15 0.205242 17.1376)
(-1.61453e-15 0.213626 16.9779)
(-2.06829e-15 0.220427 16.8157)
(-2.40471e-15 0.225831 16.6506)
(-2.56677e-15 0.229448 16.485)
(-2.71318e-15 0.231668 16.3197)
(-3.08024e-15 0.232108 16.156)
(-3.20507e-15 0.231304 15.9941)
(-3.2894e-15 0.228786 15.8335)
(-3.03772e-15 0.225066 15.6752)
(-1.49956e-14 0.219897 15.5194)
(-5.20929e-15 0.213929 15.3681)
(-1.20116e-14 0.207032 15.2206)
(-1.3607e-14 0.199977 15.0782)
(-1.89667e-14 0.192479 14.9404)
(-8.17846e-15 0.185313 14.8082)
(-8.16292e-15 0.178263 14.6808)
(-1.10108e-14 0.171941 14.5583)
(-2.48181e-14 0.166186 14.4402)
(-1.91155e-15 0.161303 14.3264)
(1.77409e-15 0.15728 14.2163)
(-3.24934e-14 0.153934 14.1092)
(-7.55547e-15 0.15135 14.0047)
(-1.51184e-14 0.148807 13.9021)
(-1.19819e-14 0.146269 13.8015)
(-1.1469e-14 0.142326 13.7023)
(-8.40945e-15 0.136646 13.605)
(-2.12861e-14 0.127525 13.5098)
(-2.46438e-14 0.114466 13.4189)
(-6.14754e-15 0.0963218 13.3331)
(-3.29911e-14 0.0726757 13.2553)
(-8.02394e-15 0.0434633 13.187)
(-3.72093e-14 0.00872954 13.1306)
(-1.75444e-14 -0.030506 13.0883)
(-1.30616e-14 -0.0731748 13.0613)
(4.18253e-16 -0.117332 13.051)
(-2.81622e-14 -0.160967 13.0575)
(-1.80784e-14 -0.201416 13.0799)
(-1.94225e-14 -0.236981 13.1165)
(-2.78829e-14 -0.265926 13.1647)
(-2.78258e-14 -0.288013 13.221)
(-2.84002e-14 -0.303507 13.2828)