/*--------------------------------*- C++ -*----------------------------------*\
| =========                 |                                                 |
| \\      /  F ield         | OpenFOAM: The Open Source CFD Toolbox           |
|  \\    /   O peration     | Version:  4.1                                   |
|   \\  /    A nd           | Web:      www.OpenFOAM.org                      |
|    \\/     M anipulation  |                                                 |
\*---------------------------------------------------------------------------*/
FoamFile
{
    version     2.0;
    format      ascii;
    class       volScalarField;
    location    "4";
    object      p;
}
// * * * * * * * * * * * * * * * * * * * * * * * * * * * * * * * * * * * * * //

dimensions      [0 2 -2 0 0 0 0];

internalField   nonuniform List<scalar> 
26785
(
-0.293051
-0.684236
-0.921115
-1.21618
-1.41307
-1.54928
-1.54922
-1.46588
-1.29236
-1.04189
-0.83726
-0.648154
-0.550563
-0.502528
-0.439817
-0.348942
-0.267915
-0.202666
-0.150174
-0.101158
-0.0492523
0.0258941
0.124699
0.246669
0.371291
0.468168
0.531965
0.612988
0.723579
0.822221
0.891344
0.972223
1.05343
1.10086
1.13189
1.20372
1.32767
1.45238
1.53801
1.58296
1.60549
1.63166
1.65364
1.6561
1.6392
1.60367
1.56288
1.53587
1.51249
1.48348
1.439
1.37481
1.31484
1.28512
1.26573
1.22141
1.14312
1.05195
0.970148
0.910133
0.864295
0.823434
0.785353
0.751946
0.72447
0.700986
0.681267
0.662872
0.647001
0.632154
0.61981
0.608069
0.598632
0.589252
0.580905
0.571049
0.561112
0.550018
0.540125
0.530808
0.523482
0.516359
0.509887
0.501949
0.49287
0.481068
0.467579
0.451429
0.433934
0.414065
0.392755
0.368575
0.342161
0.311629
0.277807
0.238407
0.197992
0.14693
0.110828
0.0100556
-0.310439
-0.686731
-0.920153
-1.21782
-1.41475
-1.55015
-1.55075
-1.46747
-1.29419
-1.04284
-0.837066
-0.646005
-0.548942
-0.500684
-0.437726
-0.348648
-0.269782
-0.206175
-0.154044
-0.10397
-0.0506014
0.0271665
0.127639
0.249861
0.371921
0.466305
0.530085
0.612635
0.72437
0.823389
0.892327
0.971676
1.05018
1.0984
1.13269
1.20609
1.32949
1.45137
1.53637
1.5832
1.60683
1.6342
1.65466
1.6545
1.63703
1.6031
1.56409
1.53753
1.51232
1.48168
1.43756
1.3747
1.31646
1.28687
1.26521
1.21822
1.13915
1.04899
0.969224
0.910453
0.864879
0.823949
0.785992
0.752563
0.724746
0.700717
0.680501
0.661755
0.645747
0.63101
0.618877
0.607425
0.598268
0.589107
0.580859
0.571086
0.561267
0.550358
0.540717
0.531633
0.5245
0.517482
0.511041
0.503047
0.493913
0.482009
0.468373
0.452019
0.434319
0.414248
0.392812
0.368575
0.342133
0.311562
0.277688
0.238074
0.197572
0.145135
0.121172
-0.0100255
-0.341345
-0.690285
-0.917988
-1.2212
-1.41799
-1.55247
-1.55379
-1.46998
-1.29648
-1.04404
-0.836186
-0.641808
-0.546705
-0.497608
-0.432817
-0.346562
-0.271203
-0.210911
-0.160507
-0.109402
-0.0534843
0.0294593
0.134345
0.256798
0.374614
0.464536
0.528127
0.613197
0.725968
0.824581
0.895596
0.973174
1.04581
1.09341
1.1331
1.21241
1.33522
1.4517
1.53423
1.58318
1.61127
1.64063
1.65771
1.65279
1.63385
1.60191
1.56655
1.54046
1.51388
1.48143
1.43525
1.37295
1.3198
1.29212
1.2665
1.21451
1.13326
1.04414
0.967192
0.910187
0.86488
0.823778
0.786146
0.75291
0.724852
0.700158
0.67939
0.660103
0.643895
0.629077
0.617049
0.605584
0.596565
0.587413
0.579213
0.569375
0.559638
0.548898
0.539695
0.531086
0.524524
0.517977
0.511871
0.503983
0.494959
0.483175
0.469702
0.453459
0.43587
0.415822
0.394415
0.37027
0.344084
0.313827
0.280369
0.24082
0.200399
0.145848
0.126316
0.00110369
-0.383246
-0.692497
-0.915007
-1.22695
-1.42387
-1.55714
-1.55909
-1.47375
-1.29931
-1.04485
-0.833435
-0.635392
-0.542923
-0.491947
-0.42456
-0.342183
-0.27217
-0.217468
-0.170341
-0.117987
-0.0572854
0.033282
0.143866
0.265469
0.37851
0.463288
0.525766
0.613426
0.726703
0.825683
0.899589
0.973805
1.03929
1.08625
1.13405
1.22188
1.34239
1.45138
1.52985
1.58171
1.61714
1.64795
1.66026
1.64973
1.62871
1.59972
1.56908
1.54391
1.51678
1.48079
1.43182
1.37244
1.32524
1.29866
1.26815
1.21091
1.12763
1.03979
0.965234
0.909453
0.863945
0.82273
0.785564
0.752998
0.725038
0.70042
0.679698
0.660751
0.644839
0.630592
0.618828
0.607574
0.598371
0.589115
0.580594
0.570684
0.560794
0.550187
0.541093
0.532817
0.526505
0.520355
0.514391
0.506571
0.497286
0.485366
0.47162
0.455275
0.437444
0.4173
0.395487
0.370961
0.344287
0.313864
0.28002
0.240541
0.198531
0.145651
0.106626
0.0279247
-0.432386
-0.688369
-0.909756
-1.23471
-1.43202
-1.56379
-1.56633
-1.47871
-1.30282
-1.04499
-0.829227
-0.627047
-0.537116
-0.483994
-0.414364
-0.336939
-0.273869
-0.226519
-0.183086
-0.128244
-0.0606459
0.0388021
0.154721
0.274525
0.382749
0.461718
0.522099
0.61178
0.725674
0.826446
0.90268
0.973
1.03211
1.07966
1.13717
1.23204
1.3485
1.44972
1.52484
1.58095
1.62311
1.65371
1.66134
1.64618
1.62394
1.59896
1.57246
1.54811
1.51891
1.47979
1.43012
1.37432
1.33045
1.30257
1.26713
1.20669
1.12324
1.03775
0.964969
0.909411
0.862706
0.821068
0.783879
0.751741
0.723362
0.698697
0.677745
0.659206
0.643412
0.629651
0.617836
0.606694
0.596941
0.587188
0.577854
0.567594
0.557415
0.547027
0.538106
0.530223
0.524109
0.518273
0.512428
0.504782
0.495486
0.483662
0.469859
0.453505
0.435614
0.41558
0.393845
0.369504
0.342793
0.312483
0.278621
0.239688
0.196652
0.146426
0.0938529
0.0432497
-0.486679
-0.675671
-0.90202
-1.24401
-1.44206
-1.57226
-1.57552
-1.48523
-1.30705
-1.04449
-0.823823
-0.616976
-0.52953
-0.474856
-0.404301
-0.332434
-0.276827
-0.236878
-0.19607
-0.137584
-0.0625558
0.0453821
0.165184
0.282586
0.385463
0.458728
0.517354
0.608541
0.722915
0.825998
0.904581
0.971272
1.02568
1.07507
1.14075
1.23952
1.35121
1.44651
1.52071
1.58149
1.62819
1.65662
1.65952
1.64087
1.61824
1.59644
1.57251
1.54798
1.51605
1.47519
1.42511
1.37167
1.32846
1.29806
1.25818
1.19652
1.11429
1.03203
0.961243
0.906187
0.858735
0.817462
0.781241
0.750724
0.723086
0.699125
0.678702
0.661139
0.64612
0.633196
0.62173
0.61072
0.600739
0.590789
0.581095
0.570688
0.560422
0.550191
0.541389
0.5337
0.52762
0.521781
0.515788
0.508028
0.498471
0.486309
0.472105
0.455441
0.437198
0.416881
0.394868
0.370349
0.343418
0.312945
0.278789
0.239861
0.195931
0.146756
0.0871085
0.0501992
-0.547787
-0.659495
-0.895597
-1.25547
-1.45357
-1.58192
-1.58585
-1.49259
-1.31141
-1.04354
-0.817999
-0.606867
-0.52187
-0.466494
-0.39616
-0.329572
-0.28021
-0.246474
-0.206629
-0.144297
-0.0628229
0.0519757
0.1735
0.288008
0.38581
0.454561
0.512792
0.604829
0.719246
0.824932
0.905869
0.96862
1.01961
1.07118
1.14221
1.24145
1.34819
1.44023
1.51634
1.58158
1.6304
1.65522
1.65378
1.63315
1.61131
1.59187
1.56894
1.54314
1.50896
1.46799
1.41891
1.36794
1.32569
1.29335
1.25008
1.18756
1.10713
1.02732
0.957684
0.902501
0.854517
0.813164
0.777442
0.74794
0.721354
0.698418
0.678708
0.661757
0.647102
0.634437
0.623044
0.612042
0.602032
0.592064
0.582146
0.571498
0.561062
0.550901
0.542337
0.534997
0.529104
0.52331
0.517212
0.50933
0.499573
0.487218
0.472863
0.456175
0.437892
0.417528
0.395418
0.370827
0.343779
0.313254
0.279015
0.240143
0.195539
0.146881
0.0828838
0.053865
-0.602538
-0.635753
-0.887662
-1.26536
-1.46385
-1.59093
-1.59585
-1.50001
-1.31546
-1.04283
-0.812534
-0.598029
-0.514891
-0.458942
-0.390024
-0.327762
-0.282959
-0.253837
-0.213598
-0.147514
-0.0610996
0.0582608
0.179665
0.291183
0.384814
0.450455
0.50917
0.601399
0.715323
0.823274
0.906307
0.966186
1.0148
1.06776
1.14109
1.23893
1.34166
1.43283
1.51247
1.58143
1.63043
1.65083
1.6455
1.62368
1.60337
1.58589
1.56291
1.5346
1.4979
1.45705
1.40955
1.36058
1.31905
1.28538
1.23941
1.17577
1.0967
1.01875
0.950242
0.895438
0.847687
0.807098
0.77255
0.744435
0.71923
0.697669
0.678935
0.662779
0.648652
0.636355
0.625106
0.614293
0.604524
0.594672
0.584607
0.573826
0.563414
0.553506
0.545336
0.538374
0.532632
0.526827
0.520559
0.512431
0.502316
0.489594
0.47499
0.458246
0.439955
0.419609
0.397458
0.372747
0.345468
0.314754
0.280297
0.241257
0.196032
0.147512
0.08076
0.0562287
-0.643434
-0.608106
-0.88004
-1.27313
-1.47204
-1.59867
-1.60476
-1.50693
-1.31889
-1.04258
-0.807508
-0.590792
-0.508676
-0.452407
-0.38543
-0.326369
-0.284461
-0.25853
-0.217142
-0.147915
-0.057719
0.0640134
0.18463
0.293561
0.383681
0.447344
0.50679
0.59892
0.71211
0.821446
0.905306
0.963316
1.01042
1.06359
1.13709
1.23267
1.333
1.42449
1.50726
1.57846
1.6267
1.64296
1.63454
1.61233
1.59429
1.57857
1.55451
1.52331
1.48407
1.44383
1.39868
1.35173
1.31074
1.27655
1.22854
1.16386
1.08594
1.00954
0.942362
0.888497
0.841397
0.801945
0.76873
0.741928
0.717991
0.69772
0.679798
0.664232
0.65037
0.638196
0.62704
0.616578
0.607274
0.597543
0.587278
0.576323
0.565962
0.556433
0.548781
0.542169
0.536483
0.530486
0.523831
0.515251
0.504687
0.491684
0.476995
0.460286
0.442018
0.421674
0.399453
0.37462
0.347213
0.316381
0.281682
0.242405
0.196642
0.148138
0.0796686
0.0577667
-0.666937
-0.585869
-0.876408
-1.2787
-1.47735
-1.60429
-1.61161
-1.51226
-1.32071
-1.04171
-0.802029
-0.583996
-0.502542
-0.446
-0.381187
-0.324078
-0.284105
-0.26033
-0.217642
-0.146268
-0.053113
0.0692663
0.18903
0.296477
0.383128
0.444631
0.504387
0.596351
0.708656
0.819353
0.903559
0.959798
1.00505
1.05762
1.13099
1.22476
1.32461
1.41729
1.50244
1.57447
1.62133
1.63396
1.62221
1.59936
1.58397
1.57008
1.54415
1.51
1.46853
1.42933
1.38698
1.34196
1.30111
1.26704
1.21727
1.15153
1.07443
0.999255
0.933508
0.881098
0.834974
0.79694
0.765073
0.739524
0.716847
0.697783
0.680559
0.665524
0.651904
0.63986
0.629035
0.619239
0.610495
0.600828
0.590371
0.579321
0.569139
0.560164
0.553068
0.54672
0.540972
0.534633
0.527433
0.518269
0.507257
0.494107
0.479446
0.462821
0.444582
0.424174
0.401816
0.376865
0.349359
0.31838
0.283467
0.243975
0.197778
0.149175
0.0794015
0.0590207
-0.668488
-0.576836
-0.879171
-1.28251
-1.48016
-1.60811
-1.61673
-1.51615
-1.32115
-1.04
-0.796016
-0.577197
-0.496099
-0.439851
-0.377041
-0.320918
-0.28237
-0.260142
-0.216119
-0.143816
-0.048539
0.0734154
0.192488
0.299613
0.383515
0.442489
0.501724
0.593156
0.704791
0.817649
0.902064
0.956578
0.999506
1.05082
1.12382
1.21643
1.31688
1.4109
1.49737
1.5692
1.61427
1.62383
1.6084
1.58525
1.57301
1.56062
1.53201
1.4951
1.452
1.41436
1.37518
1.33192
1.29085
1.25734
1.20601
1.13929
1.06277
0.988699
0.924526
0.873766
0.828853
0.792406
0.761939
0.7375
0.716082
0.698034
0.681296
0.666645
0.653279
0.641413
0.631222
0.622425
0.614198
0.604471
0.593827
0.582749
0.572946
0.564658
0.55803
0.551752
0.545718
0.538833
0.530971
0.521242
0.50998
0.496813
0.482149
0.465493
0.447152
0.426624
0.404212
0.379231
0.351622
0.320456
0.285303
0.245575
0.198973
0.150182
0.0794334
0.0597784
-0.629516
-0.567912
-0.881965
-1.28372
-1.48187
-1.61168
-1.62138
-1.51936
-1.32073
-1.03754
-0.789459
-0.569984
-0.489111
-0.433557
-0.372764
-0.316765
-0.279539
-0.258229
-0.212991
-0.1405
-0.044107
0.0763924
0.194745
0.302703
0.385502
0.440785
0.498435
0.589485
0.700763
0.817237
0.901589
0.954446
0.994271
1.04346
1.11583
1.20845
1.30997
1.40527
1.49217
1.56259
1.60571
1.61273
1.59334
1.57017
1.56114
1.54971
1.51824
1.4792
1.43492
1.39968
1.36392
1.32176
1.27997
1.24724
1.19461
1.1271
1.05087
0.977917
0.915627
0.866486
0.8229
0.788076
0.759089
0.735615
0.71531
0.698094
0.681691
0.667349
0.654303
0.642774
0.633466
0.625845
0.61805
0.608261
0.597562
0.586663
0.577466
0.569827
0.563473
0.557054
0.550534
0.542971
0.534439
0.524354
0.513059
0.499905
0.485175
0.468337
0.449806
0.429194
0.406781
0.381766
0.354049
0.322713
0.287305
0.247261
0.200218
0.151124
0.0797057
0.0600224
-0.575088
-0.567847
-0.889046
-1.28617
-1.48491
-1.61624
-1.62619
-1.52242
-1.31996
-1.03476
-0.782423
-0.562631
-0.481745
-0.427406
-0.368349
-0.312106
-0.276295
-0.255341
-0.20936
-0.137129
-0.0404044
0.0778531
0.195348
0.304972
0.388177
0.439468
0.494996
0.585794
0.696958
0.818639
0.902085
0.953037
0.989656
1.036
1.10741
1.20142
1.304
1.40025
1.48682
1.55482
1.59588
1.60056
1.57753
1.55455
1.54824
1.53736
1.50356
1.46315
1.41806
1.3862
1.35366
1.31176
1.26905
1.23697
1.18341
1.1154
1.03931
0.967133
0.906806
0.859239
0.817143
0.783849
0.75642
0.733842
0.71438
0.697768
0.681569
0.667524
0.654801
0.643814
0.635639
0.629104
0.621643
0.611923
0.601388
0.591045
0.582628
0.575412
0.569053
0.562243
0.555072
0.546803
0.537865
0.527729
0.51644
0.503179
0.488189
0.471088
0.452463
0.431865
0.409439
0.384358
0.356509
0.324964
0.289243
0.24884
0.201358
0.151891
0.0800962
0.0597863
-0.523452
-0.574015
-0.896993
-1.2888
-1.48888
-1.62162
-1.63113
-1.52534
-1.31888
-1.03158
-0.774817
-0.554779
-0.473765
-0.420767
-0.363338
-0.306926
-0.27295
-0.252013
-0.205795
-0.134035
-0.0374635
0.0782665
0.194712
0.307212
0.391703
0.439027
0.49185
0.582471
0.694218
0.821737
0.903579
0.952549
0.986088
1.02919
1.09932
1.19548
1.29905
1.39589
1.48132
1.54631
1.58544
1.58741
1.56124
1.53849
1.5343
1.52363
1.48829
1.44706
1.40159
1.37374
1.34376
1.30161
1.25823
1.22628
1.17221
1.10411
1.02807
0.956183
0.897742
0.851721
0.811295
0.779522
0.753647
0.732095
0.713299
0.697129
0.681035
0.667288
0.654848
0.64453
0.637618
0.631897
0.624715
0.615256
0.605274
0.595881
0.5882
0.581127
0.574465
0.567083
0.5592
0.550497
0.541532
0.53142
0.519982
0.506413
0.491126
0.473921
0.455329
0.434762
0.412319
0.38717
0.35916
0.327355
0.291273
0.250456
0.202502
0.152613
0.0805867
0.0592805
-0.482734
-0.58342
-0.905238
-1.2923
-1.49417
-1.62807
-1.63656
-1.52855
-1.31796
-1.0284
-0.767111
-0.546756
-0.465307
-0.414082
-0.358091
-0.301986
-0.270232
-0.249142
-0.202671
-0.131613
-0.0356993
0.0786774
0.193826
0.310381
0.395533
0.439526
0.489151
0.579476
0.692948
0.825575
0.906284
0.953178
0.983303
1.02283
1.09151
1.19047
1.29532
1.3922
1.47563
1.53785
1.57485
1.57344
1.54534
1.52309
1.52001
1.50894
1.47282
1.43136
1.38578
1.36211
1.33379
1.29124
1.24791
1.21546
1.16119
1.09345
1.01743
0.945379
0.888686
0.844127
0.805479
0.775335
0.750873
0.730472
0.712359
0.696562
0.680492
0.666945
0.654883
0.645152
0.639287
0.634082
0.62714
0.618108
0.609148
0.600888
0.593726
0.586543
0.579369
0.571318
0.562988
0.554277
0.54539
0.535089
0.523288
0.50939
0.494021
0.476902
0.458397
0.437874
0.4154
0.390131
0.361898
0.32977
0.293273
0.251993
0.203547
0.153215
0.0810147
0.0585949
-0.452792
-0.594286
-0.914298
-1.29724
-1.5009
-1.63563
-1.64249
-1.53195
-1.31708
-1.02507
-0.759157
-0.538089
-0.456335
-0.407087
-0.352557
-0.297355
-0.26769
-0.246313
-0.199385
-0.128849
-0.03425
0.0792532
0.193472
0.315442
0.399684
0.440823
0.487228
0.577285
0.693859
0.830861
0.910798
0.954576
0.980583
1.01656
1.08379
1.18648
1.29306
1.38903
1.46974
1.53004
1.5642
1.55903
1.53036
1.50852
1.50502
1.49341
1.45733
1.41595
1.37042
1.35062
1.32319
1.28053
1.23816
1.20447
1.1501
1.08315
1.00717
0.934641
0.87962
0.836517
0.799638
0.771392
0.748306
0.729224
0.711829
0.696353
0.680319
0.666903
0.655468
0.64628
0.640927
0.635886
0.629063
0.620772
0.613137
0.605808
0.598885
0.591422
0.583675
0.575206
0.566949
0.558379
0.549304
0.538582
0.526437
0.512467
0.497231
0.480255
0.461838
0.441321
0.418755
0.393287
0.364748
0.332221
0.295247
0.253456
0.204509
0.153724
0.081367
0.0577871
-0.426613
-0.603095
-0.923872
-1.30343
-1.50861
-1.64395
-1.64892
-1.53588
-1.31675
-1.02216
-0.751336
-0.52938
-0.447494
-0.400054
-0.346819
-0.293213
-0.265105
-0.242697
-0.195677
-0.126179
-0.0336309
0.0794622
0.194203
0.321501
0.403487
0.442076
0.485657
0.575468
0.696936
0.837026
0.915175
0.955601
0.977726
1.01052
1.07667
1.18311
1.29148
1.38571
1.46397
1.52306
1.55325
1.54418
1.51638
1.49502
1.4901
1.47797
1.4423
1.4009
1.35664
1.33938
1.3122
1.26987
1.22887
1.19338
1.139
1.07317
0.997321
0.924267
0.870982
0.829364
0.794126
0.767929
0.746294
0.728449
0.711792
0.696591
0.680809
0.66765
0.656997
0.64822
0.642679
0.637442
0.63077
0.623607
0.617246
0.610392
0.603357
0.595482
0.587414
0.579101
0.571156
0.562452
0.552917
0.541791
0.529559
0.515749
0.5007
0.483854
0.465472
0.444882
0.422128
0.396362
0.367425
0.334423
0.296921
0.254595
0.205164
0.153954
0.081534
0.0568367
-0.40518
-0.611481
-0.934892
-1.31113
-1.5174
-1.65305
-1.65591
-1.54022
-1.31679
-1.01937
-0.743546
-0.520338
-0.438634
-0.392607
-0.34018
-0.288995
-0.261761
-0.238256
-0.191534
-0.123366
-0.0330388
0.0797368
0.196399
0.328156
0.407207
0.44267
0.483943
0.574362
0.704285
0.843981
0.919075
0.956238
0.975034
1.00544
1.07044
1.1809
1.29071
1.38276
1.45941
1.5168
1.54193
1.52905
1.50285
1.48193
1.47505
1.46258
1.42737
1.38574
1.34468
1.32807
1.30082
1.25911
1.21957
1.18196
1.12776
1.06331
0.987694
0.914409
0.86286
0.82271
0.788771
0.764326
0.744256
0.727446
0.711425
0.696633
0.681596
0.669147
0.659396
0.650761
0.644425
0.638846
0.632762
0.626978
0.621472
0.614563
0.607112
0.598902
0.591046
0.583205
0.575306
0.566199
0.556245
0.545028
0.532982
0.519419
0.504568
0.487804
0.469351
0.448545
0.425453
0.399262
0.369835
0.33631
0.29827
0.255423
0.205552
0.153966
0.0815949
0.0558092
-0.388423
-0.618546
-0.946216
-1.31941
-1.52681
-1.66261
-1.66336
-1.54517
-1.31762
-1.01719
-0.736611
-0.511908
-0.429996
-0.385354
-0.333427
-0.285251
-0.258297
-0.233952
-0.187469
-0.120772
-0.0326885
0.0800076
0.199739
0.334243
0.410211
0.442129
0.481993
0.575267
0.714973
0.850591
0.921366
0.955296
0.971847
1.00111
1.0649
1.17994
1.29056
1.38009
1.45565
1.51052
1.5299
1.51432
1.49008
1.46947
1.46025
1.44744
1.41273
1.371
1.33377
1.31683
1.28946
1.2486
1.21022
1.17044
1.11681
1.05393
0.978571
0.905399
0.855303
0.816345
0.783505
0.760237
0.741663
0.725624
0.710096
0.696214
0.682497
0.67123
0.662318
0.653264
0.645867
0.640301
0.635295
0.630697
0.625474
0.618134
0.610143
0.601977
0.594632
0.586961
0.578771
0.569347
0.559381
0.5484
0.536624
0.523277
0.508518
0.491685
0.473
0.45183
0.428286
0.401598
0.371656
0.337621
0.299089
0.25579
0.205559
0.153679
0.0814906
0.0547091
-0.376301
-0.625065
-0.957914
-1.32836
-1.53709
-1.6728
-1.67105
-1.55059
-1.31896
-1.01521
-0.730608
-0.503977
-0.421215
-0.37805
-0.327608
-0.281845
-0.254275
-0.229745
-0.183605
-0.118534
-0.0323378
0.0806892
0.204677
0.33954
0.411557
0.441118
0.48156
0.578637
0.727049
0.856777
0.922396
0.953397
0.968611
0.997309
1.0599
1.18034
1.29074
1.37732
1.45192
1.50365
1.51723
1.50037
1.47797
1.45709
1.44527
1.43228
1.39829
1.35669
1.32285
1.30568
1.27812
1.23833
1.20051
1.15869
1.10619
1.04491
0.969949
0.897149
0.847973
0.810023
0.778805
0.756488
0.739029
0.723345
0.708319
0.695759
0.683571
0.673358
0.66526
0.655598
0.647225
0.642199
0.63845
0.63453
0.629139
0.621128
0.612887
0.605091
0.597941
0.590037
0.581647
0.572371
0.562765
0.552093
0.540501
0.527199
0.512342
0.495274
0.476242
0.454642
0.430617
0.403429
0.372991
0.338484
0.299518
0.255837
0.205326
0.153237
0.0813283
0.0536329
-0.368708
-0.631
-0.9693
-1.33746
-1.54765
-1.68325
-1.67889
-1.55682
-1.32116
-1.01406
-0.726142
-0.496386
-0.412901
-0.37164
-0.322611
-0.278893
-0.250101
-0.225805
-0.180287
-0.117283
-0.0322747
0.0818889
0.210615
0.344216
0.412173
0.44049
0.482719
0.584572
0.738755
0.862136
0.922847
0.951609
0.966042
0.994085
1.05512
1.18161
1.29094
1.37432
1.44786
1.49619
1.50498
1.48784
1.46688
1.44464
1.4306
1.41762
1.38458
1.34334
1.31217
1.29493
1.26696
1.22838
1.19049
1.14691
1.09594
1.03612
0.962015
0.889639
0.840991
0.804175
0.775022
0.753909
0.737101
0.721224
0.706805
0.695485
0.684711
0.67425
0.667439
0.657651
0.648836
0.644654
0.642017
0.638093
0.632206
0.623671
0.61556
0.607922
0.600548
0.592489
0.584345
0.575506
0.566228
0.555694
0.544062
0.530602
0.515513
0.498145
0.478753
0.456744
0.432278
0.404632
0.373743
0.338819
0.299481
0.255491
0.204781
0.152581
0.0810381
0.0526057
-0.363152
-0.637019
-0.980715
-1.34718
-1.5586
-1.69398
-1.68685
-1.56353
-1.32363
-1.01337
-0.722093
-0.488641
-0.405343
-0.36541
-0.317161
-0.275509
-0.245953
-0.22167
-0.176529
-0.116045
-0.0316832
0.0845015
0.217828
0.34905
0.412939
0.44103
0.486164
0.594863
0.75162
0.867831
0.924577
0.95132
0.964944
0.992305
1.05312
1.18541
1.29213
1.37163
1.44374
1.48843
1.49362
1.47686
1.45638
1.43143
1.41614
1.40352
1.37167
1.33089
1.30151
1.28392
1.25522
1.21798
1.17921
1.13502
1.08592
1.02728
0.954378
0.88202
0.833647
0.798883
0.771557
0.752093
0.735619
0.719675
0.706067
0.695701
0.686143
0.674645
0.668335
0.659205
0.651199
0.64786
0.645691
0.641282
0.634831
0.626158
0.618167
0.610348
0.602877
0.595119
0.587436
0.578888
0.569686
0.559059
0.547228
0.533518
0.518165
0.500511
0.480791
0.458408
0.433536
0.405465
0.374153
0.33884
0.299171
0.254928
0.204081
0.151851
0.0807
0.0517111
-0.359176
-0.643259
-0.991822
-1.35718
-1.56974
-1.70467
-1.695
-1.5709
-1.32688
-1.01407
-0.71864
-0.481621
-0.398406
-0.359614
-0.311411
-0.271776
-0.242273
-0.217739
-0.172825
-0.114518
-0.0302231
0.0888388
0.226105
0.353114
0.413392
0.442883
0.491617
0.607942
0.76423
0.872886
0.926296
0.951453
0.963792
0.990673
1.05434
1.19117
1.29428
1.36921
1.43916
1.48044
1.48285
1.46701
1.44631
1.41825
1.40247
1.39042
1.35988
1.31945
1.29081
1.27236
1.24257
1.20628
1.1657
1.12311
1.07574
1.01779
0.945787
0.872977
0.825011
0.793329
0.768016
0.750133
0.733941
0.718681
0.706125
0.696537
0.687838
0.676882
0.669618
0.660963
0.65402
0.650857
0.648749
0.643746
0.637025
0.628436
0.620413
0.612572
0.605435
0.598091
0.590611
0.582051
0.572693
0.561841
0.549765
0.535797
0.520195
0.502283
0.482269
0.459544
0.434294
0.40583
0.374124
0.338454
0.2985
0.254064
0.203145
0.150968
0.0802293
0.0509429
-0.356732
-0.649963
-1.00287
-1.36754
-1.5815
-1.71535
-1.70304
-1.57837
-1.33071
-1.01592
-0.715251
-0.475107
-0.391171
-0.353347
-0.305165
-0.268102
-0.238636
-0.213289
-0.168624
-0.112061
-0.0275372
0.0942851
0.234932
0.357154
0.414837
0.44664
0.500178
0.623592
0.776812
0.877453
0.927954
0.951893
0.962622
0.989344
1.06014
1.19841
1.29758
1.36742
1.43353
1.47209
1.47186
1.45723
1.43566
1.40507
1.38926
1.37757
1.34788
1.30824
1.2798
1.26018
1.22897
1.19333
1.15086
1.11071
1.06466
1.00706
0.935529
0.862314
0.815516
0.787637
0.764723
0.747792
0.732171
0.718033
0.706555
0.697868
0.689589
0.679344
0.671711
0.663821
0.657363
0.652914
0.650435
0.645443
0.639066
0.630787
0.622868
0.615377
0.608578
0.601317
0.593738
0.58498
0.575385
0.564287
0.551979
0.537772
0.521931
0.503771
0.483475
0.460417
0.434794
0.405946
0.373864
0.337856
0.297646
0.253063
0.202125
0.150058
0.0797061
0.0503344
-0.356209
-0.656372
-1.01378
-1.37758
-1.59363
-1.72593
-1.71118
-1.58616
-1.33642
-1.01933
-0.712429
-0.469583
-0.384308
-0.346704
-0.298991
-0.265142
-0.23525
-0.208747
-0.164151
-0.108757
-0.0239981
0.100567
0.243978
0.361385
0.417347
0.451705
0.511343
0.64058
0.7889
0.882136
0.929956
0.952446
0.961689
0.989599
1.07035
1.20534
1.30028
1.36504
1.42694
1.46309
1.4609
1.44759
1.4241
1.39226
1.37668
1.36511
1.33525
1.29683
1.26865
1.24795
1.21543
1.1803
1.13696
1.09785
1.05234
0.994519
0.923445
0.851228
0.807361
0.783164
0.762061
0.745473
0.730677
0.717517
0.707075
0.699219
0.691306
0.68179
0.674908
0.668189
0.66149
0.654924
0.651108
0.64647
0.641218
0.633374
0.6258
0.618521
0.611664
0.604207
0.5964
0.587408
0.577581
0.566253
0.553728
0.539297
0.523219
0.504811
0.484237
0.460859
0.434876
0.405662
0.373237
0.336929
0.296507
0.251832
0.200935
0.149042
0.0790674
0.0498274
-0.357268
-0.662808
-1.02504
-1.38724
-1.60635
-1.73647
-1.71922
-1.59351
-1.34338
-1.02243
-0.708783
-0.464785
-0.378208
-0.338373
-0.292958
-0.262743
-0.231531
-0.203616
-0.159224
-0.104672
-0.0194967
0.107857
0.253341
0.3663
0.421168
0.45853
0.525687
0.659633
0.801262
0.887374
0.93273
0.953383
0.961973
0.993168
1.0835
1.21205
1.30231
1.36228
1.42057
1.45408
1.4501
1.43701
1.41171
1.37953
1.36447
1.35262
1.32201
1.2846
1.25725
1.23591
1.20271
1.16749
1.12401
1.08484
1.03783
0.97969
0.909764
0.840698
0.800819
0.779268
0.759116
0.743102
0.728992
0.71671
0.70779
0.700639
0.69317
0.685245
0.680105
0.674017
0.665979
0.657786
0.652293
0.648131
0.643804
0.63644
0.62904
0.621629
0.614543
0.606848
0.598822
0.589622
0.579586
0.568042
0.555296
0.540639
0.524314
0.505642
0.484785
0.461088
0.434756
0.405188
0.372441
0.335866
0.295265
0.250536
0.199722
0.148033
0.0784127
0.0494079
-0.358762
-0.669009
-1.03632
-1.39632
-1.61954
-1.74689
-1.7274
-1.60067
-1.35113
-1.02495
-0.70531
-0.461068
-0.373327
-0.329858
-0.287717
-0.260542
-0.227906
-0.198821
-0.154679
-0.10049
-0.0143236
0.115956
0.262879
0.371876
0.426
0.466558
0.541675
0.678834
0.812818
0.892518
0.935672
0.954439
0.963643
0.999902
1.09731
1.21901
1.30409
1.35952
1.41457
1.44532
1.43961
1.42517
1.39924
1.36716
1.35267
1.33984
1.30858
1.27176
1.24582
1.22385
1.19026
1.15462
1.11086
1.07106
1.02133
0.963285
0.894889
0.830034
0.794804
0.774944
0.755548
0.740202
0.726535
0.716269
0.708904
0.702213
0.695844
0.690042
0.686115
0.679222
0.669426
0.660536
0.65435
0.650551
0.64632
0.639198
0.631802
0.624225
0.616943
0.609043
0.600823
0.59143
0.581193
0.569432
0.556455
0.541564
0.524985
0.506044
0.484905
0.460908
0.434253
0.404366
0.371335
0.334546
0.293816
0.24908
0.198397
0.146947
0.0777011
0.0489962
-0.360554
-0.675378
-1.04761
-1.40558
-1.63333
-1.75693
-1.73507
-1.60653
-1.35786
-1.0263
-0.702325
-0.457456
-0.368144
-0.32221
-0.283121
-0.257851
-0.224246
-0.194047
-0.150102
-0.0956628
-0.00760638
0.125301
0.273544
0.378579
0.432015
0.476418
0.559571
0.698737
0.824546
0.898261
0.939423
0.956581
0.967814
1.01036
1.11173
1.22588
1.30508
1.35682
1.40898
1.43593
1.42888
1.41269
1.38602
1.3546
1.34093
1.32618
1.29466
1.25889
1.23457
1.21119
1.17689
1.14087
1.09698
1.05613
1.00442
0.946431
0.880494
0.820815
0.789757
0.770706
0.751821
0.73646
0.724408
0.717297
0.71093
0.704748
0.699941
0.696337
0.691921
0.683054
0.672247
0.662941
0.657301
0.653345
0.648724
0.641677
0.634305
0.626614
0.619176
0.611096
0.60269
0.593106
0.582665
0.570677
0.557456
0.542313
0.525471
0.506248
0.484826
0.460539
0.433585
0.403408
0.370124
0.333157
0.292337
0.247621
0.197094
0.14589
0.0770317
0.0485736
-0.363805
-0.681232
-1.05855
-1.41499
-1.6472
-1.76643
-1.74258
-1.61188
-1.3635
-1.02758
-0.70109
-0.453644
-0.362121
-0.317258
-0.279314
-0.254939
-0.220898
-0.189332
-0.145187
-0.0899704
0.000647683
0.136031
0.28495
0.384819
0.438489
0.487926
0.5788
0.718503
0.836229
0.90473
0.943906
0.959798
0.97443
1.02321
1.12589
1.23187
1.30509
1.35408
1.40349
1.42558
1.4177
1.39979
1.37184
1.34169
1.32922
1.31201
1.28057
1.24674
1.2233
1.19785
1.16257
1.12655
1.08288
1.04064
0.987367
0.92974
0.867462
0.813572
0.785473
0.766844
0.747959
0.733124
0.724347
0.719691
0.713659
0.708313
0.705418
0.70248
0.695699
0.68565
0.67493
0.665836
0.660316
0.655773
0.650726
0.643714
0.636365
0.628585
0.621009
0.612763
0.604172
0.594393
0.583743
0.571519
0.558044
0.542635
0.525527
0.506028
0.484333
0.459783
0.432571
0.402152
0.368666
0.331571
0.290711
0.246054
0.195717
0.144773
0.0763566
0.0480784
-0.368568
-0.68708
-1.06937
-1.42475
-1.66068
-1.77523
-1.74931
-1.61583
-1.36675
-1.02833
-0.700632
-0.448615
-0.355006
-0.313766
-0.27549
-0.2513
-0.217161
-0.183791
-0.138864
-0.0825123
0.0108984
0.148387
0.296578
0.391054
0.446268
0.50203
0.600352
0.738993
0.848485
0.912378
0.949512
0.964799
0.984508
1.0388
1.14
1.23677
1.30419
1.35114
1.39713
1.41404
1.40583
1.38639
1.35676
1.32841
1.31671
1.29719
1.26628
1.2346
1.21116
1.18361
1.14784
1.11248
1.06912
1.025
0.970457
0.914363
0.856341
0.808336
0.78201
0.763188
0.744355
0.732197
0.727092
0.72335
0.717416
0.713237
0.711906
0.70692
0.698219
0.68804
0.677804
0.669183
0.663354
0.658126
0.652674
0.645643
0.638301
0.630443
0.622731
0.614325
0.605545
0.595562
0.584691
0.572218
0.558474
0.542783
0.525398
0.505624
0.483662
0.458868
0.431431
0.400807
0.367159
0.329966
0.289096
0.244517
0.194381
0.143692
0.0757571
0.04752
-0.374307
-0.693179
-1.07989
-1.43454
-1.67337
-1.7838
-1.7559
-1.61902
-1.36857
-1.02941
-0.700353
-0.442513
-0.348071
-0.310335
-0.2716
-0.247078
-0.212828
-0.177574
-0.131377
-0.0736238
0.0225418
0.161724
0.307782
0.397926
0.45549
0.51794
0.622988
0.75887
0.860397
0.920424
0.955488
0.971249
0.99747
1.05527
1.15302
1.2404
1.30245
1.34772
1.38928
1.40204
1.39391
1.37191
1.34115
1.31553
1.30368
1.28272
1.25207
1.22188
1.19842
1.16911
1.13328
1.09874
1.05551
1.00934
0.954208
0.900871
0.84689
0.804023
0.778937
0.759768
0.742821
0.734266
0.731923
0.727541
0.721782
0.719067
0.716964
0.708866
0.69994
0.690105
0.680418
0.672021
0.665849
0.660082
0.654294
0.647209
0.639855
0.631921
0.624078
0.615513
0.606542
0.596344
0.585243
0.572512
0.55849
0.54251
0.524845
0.504811
0.482603
0.457597
0.429981
0.399207
0.36545
0.328204
0.287362
0.242894
0.192978
0.142554
0.0751687
0.0468743
-0.379173
-0.700098
-1.09005
-1.4447
-1.68494
-1.79223
-1.76121
-1.62
-1.36831
-1.02989
-0.698489
-0.435461
-0.341023
-0.305524
-0.267416
-0.241815
-0.207489
-0.170606
-0.122781
-0.0631403
0.0359465
0.176408
0.319561
0.40661
0.466834
0.536197
0.647197
0.778765
0.87264
0.929352
0.962295
0.979953
1.01318
1.07251
1.16512
1.24314
1.30031
1.34358
1.37986
1.38992
1.3813
1.35619
1.32601
1.3037
1.29038
1.26865
1.23847
1.20945
1.18533
1.15481
1.11943
1.08518
1.04174
0.993644
0.939467
0.889396
0.838889
0.800385
0.776303
0.757557
0.744319
0.739614
0.738146
0.73214
0.727052
0.724708
0.718824
0.71008
0.701552
0.692103
0.682925
0.674643
0.668178
0.661982
0.655902
0.648735
0.641348
0.633328
0.625348
0.616619
0.607448
0.59702
0.585672
0.57267
0.558359
0.54208
0.524128
0.503839
0.4814
0.456203
0.428438
0.397552
0.363718
0.326447
0.285647
0.241299
0.191607
0.141445
0.0746467
0.0461847
-0.38414
-0.707072
-1.09983
-1.45484
-1.69575
-1.80096
-1.76566
-1.61949
-1.36756
-1.03016
-0.695298
-0.429014
-0.334526
-0.301023
-0.263539
-0.236189
-0.201653
-0.163607
-0.113899
-0.0518652
0.0504504
0.192035
0.331917
0.416644
0.479309
0.555738
0.671524
0.797563
0.884553
0.938579
0.969523
0.990402
1.02992
1.09005
1.17543
1.24507
1.29793
1.33845
1.3699
1.37824
1.36723
1.34141
1.31308
1.29246
1.27701
1.25502
1.22614
1.19744
1.17192
1.14126
1.10636
1.07157
1.02788
0.978426
0.926742
0.879244
0.832305
0.797922
0.774594
0.757575
0.748525
0.747203
0.744159
0.736719
0.732505
0.72769
0.719123
0.710915
0.702797
0.693733
0.684928
0.676721
0.670037
0.663505
0.657178
0.64992
0.642489
0.634374
0.626257
0.617352
0.607979
0.59731
0.585705
0.572428
0.557824
0.541248
0.523017
0.502488
0.479848
0.454491
0.426616
0.395664
0.361796
0.324538
0.283805
0.239601
0.190152
0.140275
0.0741117
0.0454582