# vtk DataFile Version 2.0
track0
ASCII
DATASET POLYDATA
POINTS 10859 float
-0.0205 0.001 1e-05
-0.0202034 0.00100023 1e-05
-0.0199069 0.00100077 1e-05
-0.0196103 0.0010015 1e-05
-0.0193137 0.00100243 1e-05
-0.0190172 0.00100355 1e-05
-0.0187132 0.00100513 1e-05
-0.0184093 0.00100626 1e-05
-0.0181054 0.00100735 1e-05
-0.0178015 0.0010084 1e-05
-0.0174976 0.0010094 1e-05
-0.0172058 0.0010107 1e-05
-0.016914 0.00101142 1e-05
-0.0166222 0.00101211 1e-05
-0.0163305 0.00101277 1e-05
-0.0160387 0.00101339 1e-05
-0.0157586 0.00101435 1e-05
-0.0154784 0.00101492 1e-05
-0.0151983 0.00101552 1e-05
-0.0149182 0.00101617 1e-05
-0.0146381 0.00101686 1e-05
-0.0143692 0.00101784 1e-05
-0.0141002 0.0010186 1e-05
-0.0138313 0.00101941 1e-05
-0.0135624 0.00102027 1e-05
-0.0132934 0.00102119 1e-05
-0.0130353 0.00102231 1e-05
-0.0127771 0.0010233 1e-05
-0.0125189 0.00102433 1e-05
-0.0122607 0.0010254 1e-05
-0.0120025 0.00102651 1e-05
-0.0117547 0.00102771 1e-05
-0.0115068 0.00102885 1e-05
-0.0112589 0.00103001 1e-05
-0.0110111 0.0010312 1e-05
-0.0107632 0.00103242 1e-05
-0.0105252 0.00103365 1e-05
-0.0102873 0.00103487 1e-05
-0.0100493 0.0010361 1e-05
-0.00981133 0.00103734 1e-05
-0.00957337 0.0010386 1e-05
-0.00951211 0.00103893 1e-05
-0.00945086 0.00103926 1e-05
-0.0093896 0.00103959 1e-05
-0.00932835 0.00103992 1e-05
-0.00926718 0.00104025 1e-05
-0.00909996 0.00104116 1e-05
-0.00893274 0.00104207 1e-05
-0.00876552 0.00104299 1e-05
-0.0085983 0.00104391 1e-05
-0.00843108 0.00104483 1e-05
-0.00821175 0.00104604 1e-05
-0.00799242 0.00104727 1e-05
-0.00777309 0.00104849 1e-05
-0.00755376 0.00104972 1e-05
-0.00733443 0.00105095 1e-05
-0.00712387 0.00105213 1e-05
-0.0069133 0.00105331 1e-05
-0.00670273 0.00105449 1e-05
-0.00649217 0.00105567 1e-05
-0.0062816 0.00105686 1e-05
-0.00607944 0.00105798 1e-05
-0.00587729 0.00105911 1e-05
-0.00567514 0.00106023 1e-05
-0.00547298 0.00106136 1e-05
-0.00527083 0.00106248 1e-05
-0.00507675 0.00106354 1e-05
-0.00488267 0.00106461 1e-05
-0.0046886 0.00106567 1e-05
-0.00449452 0.00106672 1e-05
-0.00430044 0.00106777 1e-05
-0.00411412 0.00106877 1e-05
-0.0039278 0.00106976 1e-05
-0.00374147 0.00107075 1e-05
-0.00355515 0.00107173 1e-05
-0.00336883 0.00107271 1e-05
-0.00318995 0.00107362 1e-05
-0.00301107 0.00107454 1e-05
-0.00283219 0.00107545 1e-05
-0.00265331 0.00107635 1e-05
-0.00247443 0.00107724 1e-05
-0.0023027 0.00107808 1e-05
-0.00213097 0.00107891 1e-05
-0.00195924 0.00107973 1e-05
-0.0017875 0.00108054 1e-05
-0.00161577 0.00108134 1e-05
-0.0014509 0.00108209 1e-05
-0.00128603 0.00108282 1e-05
-0.00112116 0.00108354 1e-05
-0.000956289 0.00108424 1e-05
-0.000791418 0.00108492 1e-05
-0.000633135 0.00108555 1e-05
-0.000474851 0.00108616 1e-05
-0.000316567 0.00108675 1e-05
-0.000158283 0.0010873 1e-05
0 0.00108783 1e-05
0.000105677 0.00108817 1e-05
0.000211355 0.00108849 1e-05
0.000317032 0.00108879 1e-05
0.00042271 0.00108908 1e-05
0.000528387 0.00108936 1e-05
0.000634886 0.00108961 1e-05
0.000741385 0.00108986 1e-05
0.000847885 0.0010901 1e-05
0.000954384 0.00109032 1e-05
0.00106088 0.00109053 1e-05
0.00116821 0.00109073 1e-05
0.00127554 0.00109092 1e-05
0.00138286 0.0010911 1e-05
0.00149019 0.00109127 1e-05
0.00159752 0.00109142 1e-05
0.00170568 0.00109156 1e-05
0.00181384 0.0010917 1e-05
0.001922 0.00109182 1e-05
0.00203016 0.00109193 1e-05
0.00213833 0.00109203 1e-05
0.00224733 0.00109211 1e-05
0.00235633 0.0010922 1e-05
0.00246533 0.00109227 1e-05
0.00257434 0.00109233 1e-05
0.00268334 0.00109239 1e-05
0.00279319 0.00109242 1e-05
0.00290304 0.00109246 1e-05
0.00301289 0.00109249 1e-05
0.00312274 0.00109252 1e-05
0.00323259 0.00109253 1e-05
0.00334329 0.00109253 1e-05
0.003454 0.00109254 1e-05
0.0035647 0.00109253 1e-05
0.0036754 0.00109252 1e-05
0.00378611 0.00109251 1e-05
0.00389767 0.00109248 1e-05
0.00400924 0.00109246 1e-05
0.0041208 0.00109242 1e-05
0.00423237 0.00109239 1e-05
0.00434393 0.00109234 1e-05
0.00445636 0.00109229 1e-05
0.00456879 0.00109223 1e-05
0.00468123 0.00109217 1e-05
0.00479366 0.0010921 1e-05
0.00490609 0.00109203 1e-05
0.0050194 0.00109195 1e-05
0.0051327 0.00109187 1e-05
0.00524601 0.00109178 1e-05
0.00535932 0.00109169 1e-05
0.00547262 0.00109159 1e-05
0.00558681 0.00109148 1e-05
0.005701 0.00109137 1e-05
0.00581518 0.00109125 1e-05
0.00592937 0.00109113 1e-05
0.00604356 0.001091 1e-05
0.00609263 0.00109094 1e-05
0.00614171 0.00109089 1e-05
0.00619078 0.00109083 1e-05
0.00623986 0.00109077 1e-05
0.00628797 0.00109071 1e-05
0.00635416 0.00109062 1e-05
0.00642035 0.00109054 1e-05
0.00648655 0.00109045 1e-05
0.00655274 0.00109036 1e-05
0.00661893 0.00109027 1e-05
0.0067349 0.00109011 1e-05
0.00685087 0.00108994 1e-05
0.00696684 0.00108977 1e-05
0.00708281 0.00108959 1e-05
0.00719878 0.00108941 1e-05
0.00731565 0.00108921 1e-05
0.00743252 0.00108902 1e-05
0.00754939 0.00108882 1e-05
0.00766626 0.00108861 1e-05
0.00778313 0.0010884 1e-05
0.00790091 0.00108817 1e-05
0.00801869 0.00108795 1e-05
0.00813647 0.00108772 1e-05
0.00825425 0.00108748 1e-05
0.00837203 0.00108724 1e-05
0.00849073 0.00108698 1e-05
0.00860942 0.00108672 1e-05
0.00872812 0.00108646 1e-05
0.00884682 0.0010862 1e-05
0.00896551 0.00108592 1e-05
0.00908513 0.00108563 1e-05
0.00920475 0.00108534 1e-05
0.00932437 0.00108505 1e-05
0.00944398 0.00108475 1e-05
0.0095636 0.00108445 1e-05
0.00968415 0.00108411 1e-05
0.0098047 0.00108379 1e-05
0.00992525 0.00108347 1e-05
0.0100458 0.00108314 1e-05
0.0101663 0.0010828 1e-05
0.0102878 0.00108243 1e-05
0.0104093 0.00108207 1e-05
0.0105308 0.00108172 1e-05
0.0106523 0.00108135 1e-05
0.0107738 0.00108098 1e-05
0.0108962 0.00108057 1e-05
0.0110186 0.00108018 1e-05
0.0111411 0.00107978 1e-05
0.0112635 0.00107938 1e-05
0.0113859 0.00107897 1e-05
0.0115093 0.00107852 1e-05
0.0116327 0.0010781 1e-05
0.0117561 0.00107766 1e-05
0.0118795 0.00107722 1e-05
0.0120028 0.00107677 1e-05
0.0121272 0.00107628 1e-05
0.0122515 0.00107581 1e-05
0.0123759 0.00107534 1e-05
0.0125002 0.00107486 1e-05
0.0126245 0.00107437 1e-05
0.0127498 0.00107383 1e-05
0.0128752 0.00107332 1e-05
0.0130005 0.0010728 1e-05
0.0131258 0.00107228 1e-05
0.0132511 0.00107174 1e-05
0.0133774 0.00107116 1e-05
0.0135036 0.0010706 1e-05
0.0136299 0.00107004 1e-05
0.0137562 0.00106946 1e-05
0.0138825 0.00106888 1e-05
0.0140098 0.00106826 1e-05
0.014137 0.00106765 1e-05
0.0142643 0.00106703 1e-05
0.0143915 0.0010664 1e-05
0.0145188 0.00106577 1e-05
0.0146471 0.00106509 1e-05
0.0147753 0.00106443 1e-05
0.0149036 0.00106376 1e-05
0.0150318 0.00106308 1e-05
0.0151601 0.00106238 1e-05
0.0152893 0.00106165 1e-05
0.0154186 0.00106093 1e-05
0.0155478 0.0010602 1e-05
0.0156771 0.00105946 1e-05
0.0158063 0.00105871 1e-05
0.0159366 0.00105792 1e-05
0.0160668 0.00105714 1e-05
0.0161971 0.00105634 1e-05
0.0163274 0.00105554 1e-05
0.0164576 0.00105472 1e-05
0.0165889 0.00105388 1e-05
0.0167201 0.00105302 1e-05
0.0168514 0.00105216 1e-05
0.0169827 0.00105129 1e-05
0.0171139 0.00105041 1e-05
0.0172462 0.00104949 1e-05
0.0173785 0.00104857 1e-05
0.0175108 0.00104764 1e-05
0.0176431 0.00104669 1e-05
0.0177754 0.00104573 1e-05
0.0179087 0.00104475 1e-05
0.018042 0.00104376 1e-05
0.0181753 0.00104274 1e-05
0.0183087 0.00104172 1e-05
0.018442 0.00104068 1e-05
0.0185763 0.00103963 1e-05
0.0187107 0.00103855 1e-05
0.018845 0.00103745 1e-05
0.0189794 0.00103634 1e-05
0.0191137 0.00103522 1e-05
0.0192491 0.00103409 1e-05
0.0193845 0.00103293 1e-05
0.0195199 0.00103175 1e-05
0.0196553 0.00103054 1e-05
0.0197907 0.00102934 1e-05
0.0199272 0.00102812 1e-05
0.0200636 0.00102688 1e-05
0.0202001 0.0010256 1e-05
0.0203365 0.0010243 1e-05
0.020473 0.001023 1e-05
0.0206105 0.0010217 1e-05
0.020748 0.00102036 1e-05
0.0208855 0.00101898 1e-05
0.021023 0.00101759 1e-05
0.0211606 0.0010162 1e-05
0.0212991 0.0010148 1e-05
0.0214377 0.00101337 1e-05
0.0215763 0.00101189 1e-05
0.0217149 0.00101039 1e-05
0.0218535 0.0010089 1e-05
0.0219931 0.00100741 1e-05
0.0221328 0.00100587 1e-05
0.0222724 0.00100429 1e-05
0.0224121 0.00100268 1e-05
0.0225517 0.00100109 1e-05
0.0226925 0.000999494 1e-05
0.0228332 0.000997849 1e-05
0.022974 0.000996157 1e-05
0.0231147 0.000994445 1e-05
0.0232555 0.000992743 1e-05
0.0233973 0.000991038 1e-05
0.0235391 0.000989282 1e-05
0.023681 0.000987476 1e-05
0.0238228 0.00098565 1e-05
0.0239647 0.000983834 1e-05
0.0241076 0.000982015 1e-05
0.0242505 0.000980142 1e-05
0.0243935 0.000978216 1e-05
0.0245364 0.000976271 1e-05
0.0246794 0.000974336 1e-05
0.0248234 0.000972396 1e-05
0.0249675 0.000970402 1e-05
0.0251115 0.000968355 1e-05
0.0252556 0.000966289 1e-05
0.0253996 0.00096423 1e-05
0.0255448 0.000962165 1e-05
0.02569 0.000960044 1e-05
0.0258351 0.000957874 1e-05
0.0259803 0.000955684 1e-05
0.0261255 0.000953495 1e-05
0.0262718 0.000951298 1e-05
0.0264181 0.000949043 1e-05
0.0265644 0.000946743 1e-05
0.0267107 0.000944422 1e-05
0.026857 0.000942096 1e-05
0.0270044 0.00093976 1e-05
0.0271519 0.000937366 1e-05
0.0272993 0.000934932 1e-05
0.0274467 0.000932477 1e-05
0.0275942 0.000930009 1e-05
0.0277428 0.000927529 1e-05
0.0278914 0.000924991 1e-05
0.0280399 0.000922419 1e-05
0.0281885 0.000919823 1e-05
0.0283371 0.000917208 1e-05
0.0284869 0.000914577 1e-05
0.0286366 0.000911887 1e-05
0.0287863 0.000909168 1e-05
0.0289361 0.000906425 1e-05
0.0290858 0.000903656 1e-05
0.0292367 0.000900866 1e-05
0.0293876 0.000898021 1e-05
0.0295385 0.000895149 1e-05
0.0296894 0.00089225 1e-05
0.0298403 0.000889324 1e-05
0.0299924 0.000886369 1e-05
0.0301445 0.000883363 1e-05
0.0302966 0.00088033 1e-05
0.0304486 0.000877269 1e-05
0.0306007 0.000874179 1e-05
0.030754 0.000871051 1e-05
0.0309072 0.000867879 1e-05
0.0310605 0.000864677 1e-05
0.0312138 0.000861447 1e-05
0.031367 0.000858186 1e-05
0.0315215 0.000854878 1e-05
0.0316759 0.000851532 1e-05
0.0318304 0.000848154 1e-05
0.0319848 0.000844746 1e-05
0.0321393 0.000841306 1e-05
0.0321785 0.000840425 1e-05
0.0322177 0.000839542 1e-05
0.0322569 0.000838657 1e-05
0.0322961 0.00083777 1e-05
0.0323345 0.000836899 1e-05
0.0324511 0.000834248 1e-05
0.0325677 0.000831578 1e-05
[...]
POINT_DATA 10859
 FIELD attributes 2
p 1 10859 float
-6.17375 -6.17847 -6.17005 -6.16155 -6.15296 -6.13759 -6.13988 -6.15059 -6.16131 -6.17202 -6.20713 -6.21681 -6.25053 -6.28426 -6.31798 -6.36612 -6.37057 -6.39791 -6.42527 -6.45263 -6.49298 -6.50443 -6.5308 -6.5572 -6.58361 -6.61958 -6.63882 -6.66571 -6.69261 -6.71953 -6.75121 -6.7714 -6.79518 -6.81897 -6.84277 -6.86837 -6.88695 -6.90701 -6.92707 -6.94713 -6.96748 -6.97203 -6.97681 -6.98158 -6.98636 -6.99113 -7.00418 -7.01722 -7.03027 -7.04332 -7.05596 -7.07287 -7.08952 -7.10617 -7.12281 -7.13872 -7.15508 -7.17094 -7.18681 -7.20267 -7.21762 -7.23353 -7.24885 -7.26417 -7.27949 -7.29384 -7.30951 -7.32457 -7.33964 -7.3547 -7.36882 -7.38451 -7.39968 -7.41485 -7.43002 -7.44431 -7.46032 -7.47593 -7.49154 -7.50714 -7.52191 -7.53853 -7.55503 -7.57152 -7.58802 -7.60363 -7.62076 -7.63793 -7.6551 -7.67226 -7.68809 -7.70317 -7.71771 -7.73227 -7.74682 -7.7594 -7.76749 -7.77392 -7.78035 -7.78678 -7.79179 -7.79406 -7.79435 -7.79464 -7.79493 -7.79457 -7.79539 -7.79531 -7.79524 -7.79518 -7.79506 -7.79797 -7.79942 -7.80088 -7.80233 -7.80278 -7.80603 -7.80692 -7.8078 -7.80869 -7.80774 -7.81004 -7.81007 -7.81009 -7.81012 -7.80831 -7.81006 -7.81014 -7.81021 -7.81029 -7.80887 -7.81013 -7.81021 -7.81029 -7.81038 -7.8094 -7.8096 -7.80905 -7.80849 -7.80793 -7.80678 -7.8059 -7.80464 -7.80337 -7.8021 -7.80061 -7.7993 -7.79784 -7.79638 -7.79493 -7.79344 -7.79295 -7.79243 -7.79191 -7.79139 -7.79088 -7.79018 -7.78949 -7.78879 -7.78809 -7.78734 -7.78639 -7.78539 -7.78439 -7.7834 -7.7823 -7.78132 -7.78026 -7.7792 -7.77814 -7.77699 -7.77574 -7.7745 -7.77327 -7.77203 -7.77089 -7.76937 -7.76818 -7.76698 -7.76578 -7.7651 -7.76345 -7.76262 -7.76178 -7.76094 -7.76122 -7.75947 -7.75915 -7.75883 -7.75851 -7.76002 -7.75803 -7.75816 -7.75828 -7.75841 -7.76116 -7.75871 -7.75915 -7.75959 -7.76002 -7.76395 -7.76089 -7.76156 -7.76223 -7.7629 -7.76801 -7.76434 -7.76528 -7.76621 -7.76715 -7.77354 -7.76934 -7.77068 -7.77203 -7.77337 -7.78122 -7.77675 -7.77864 -7.78052 -7.78241 -7.7917 -7.78733 -7.78972 -7.79221 -7.79523 -7.80522 -7.8018 -7.80413 -7.80718 -7.8114 -7.82156 -7.81923 -7.82148 -7.82495 -7.83012 -7.84005 -7.83873 -7.8409 -7.84469 -7.85057 -7.86013 -7.85974 -7.86193 -7.86599 -7.87245 -7.88163 -7.88221 -7.88455 -7.88891 -7.8958 -7.90456 -7.90611 -7.90874 -7.91338 -7.92055 -7.92886 -7.93134 -7.93438 -7.93928 -7.94653 -7.95435 -7.95768 -7.9612 -7.96629 -7.97342 -7.98072 -7.98477 -7.98881 -7.99406 -8.00082 -8.00759 -8.01218 -8.01678 -8.0221 -8.02834 -8.03457 -8.03957 -8.04457 -8.04988 -8.05562 -8.06137 -8.06661 -8.07186 -8.07711 -8.08239 -8.08767 -8.09301 -8.09836 -8.1035 -8.10835 -8.11321 -8.11853 -8.12385 -8.12883 -8.13329 -8.13775 -8.14293 -8.14812 -8.15285 -8.15691 -8.16098 -8.1659 -8.1708 -8.17517 -8.17889 -8.18256 -8.1871 -8.19152 -8.19546 -8.19891 -8.20219 -8.20627 -8.21012 -8.21361 -8.21676 -8.21962 -8.22315 -8.22639 -8.22938 -8.23217 -8.23459 -8.2375 -8.24007 -8.24251 -8.24487 -8.24679 -8.24901 -8.25086 -8.25269 -8.25452 -8.25591 -8.25736 -8.25852 -8.25969 -8.26086 -8.26174 -8.26238 -8.26286 -8.26335 -8.26383 -8.26414 -8.26397 -8.2637 -8.26343 -8.26317 -8.26282 -8.26179 -8.26071 -8.25963 -8.25856 -8.25748 -8.25701 -8.25655 -8.25608 -8.25561 -8.25516 -8.25383 -8.2525 -8.25118 -8.24986 -8.24848 -8.24602 -8.24348 -8.24094 -8.23842 -8.23575 -8.23252 -8.22906 -8.2256 -8.22215 -8.21841 -8.21435 -8.20983 -8.20531 -8.2008 -8.19586 -8.19088 -8.18536 -8.1798 -8.17414 -8.16813 -8.16208 -8.15572 -8.14917 -8.14241 -8.13546 -8.12839 -8.12121 -8.11371 -8.1059 -8.09803 -8.09 -8.08199 -8.07348 -8.06455 -8.05562 -8.04644 -8.03728 -8.02776 -8.01789 -8.00802 -7.99775 -7.98749 -7.97706 -7.96642 -7.95579 -7.94467 -7.93355 -7.92226 -7.91078 -7.89926 -7.88725 -7.87516 -7.86295 -7.85065 -7.83824 -7.82528 -7.81224 -7.79918 -7.78613 -7.77299 -7.75922 -7.74538 -7.73155 -7.71772 -7.70387 -7.68929 -7.67473 -7.66018 -7.64563 -7.6311 -7.62526 -7.61945 -7.61364 -7.60784 -7.60217 -7.59295 -7.58374 -7.57453 -7.56533 -7.55628 -7.54083 -7.52555 -7.51029 -7.49503 -7.48026 -7.46424 -7.44877 -7.43331 -7.41793 -7.40333 -7.38704 -7.37127 -7.35573 -7.34069 -7.3261 -7.30974 -7.29353 -7.27803 -7.26357 -7.24917 -7.23289 -7.21662 -7.20155 -7.18769 -7.17384 -7.15801 -7.14219 -7.12773 -7.11461 -7.10149 -7.08631 -7.07161 -7.05808 -7.04524 -7.033 -7.01862 -7.0056 -6.99304 -6.98048 -6.96928 -6.95631 -6.94492 -6.93353 -6.92214 -6.91138 -6.9034 -6.89612 -6.88885 -6.88157 -6.87434 -6.87147 -6.8686 -6.86573 -6.86287 -6.86027 -6.85112 -6.84223 -6.83333 -6.82444 -6.81684 -6.80835 -6.80113 -6.79391 -6.78669 -6.78184 -6.77438 -6.76875 -6.76337 -6.75888 -6.75605 -6.7505 -6.74577 -6.74235 -6.74084 -6.73994 -6.73639 -6.73283 -6.73162 -6.7327 -6.73376 -6.73226 -6.73075 -6.73151 -6.73455 -6.73759 -6.73816 -6.73872 -6.74137 -6.74635 -6.75131 -6.75394 -6.75716 -6.76188 -6.76785 -6.7747 -6.77936 -6.78524 -6.79181 -6.79874 -6.80739 -6.81399 -6.82228 -6.83059 -6.83888 -6.8488 -6.85769 -6.86762 -6.87754 -6.88744 -6.89819 -6.90908 -6.92045 -6.9318 -6.94314 -6.95467 -6.95896 -6.96336 -6.96775 -6.97214 -6.97672 -6.98482 -6.99292 -7.00101 -7.0091 -7.01726 -7.0306 -7.04415 -7.0577 -7.07123 -7.08482 -7.09873 -7.1131 -7.12747 -7.14182 -7.15612 -7.17045 -7.18538 -7.2003 -7.21521 -7.22982 -7.24436 -7.25954 -7.27471 -7.28982 -7.3044 -7.31905 -7.33406 -7.34916 -7.36401 -7.37825 -7.39267 -7.40724 -7.42191 -7.43606 -7.44966 -7.46354 -7.47741 -7.49127 -7.50427 -7.51682 -7.52976 -7.54265 -7.55535 -7.56677 -7.57797 -7.58963 -7.6013 -7.61245 -7.62197 -7.63149 -7.64155 -7.65162 -7.66078 -7.66839 -7.676 -7.68422 -7.69244 -7.69934 -7.70473 -7.71012 -7.71619 -7.72226 -7.72659 -7.72949 -7.73241 -7.73603 -7.73966 -7.74113 -7.74122 -7.74132 -7.74217 -7.74271 -7.74104 -7.73831 -7.73531 -7.7331 -7.72982 -7.7249 -7.71924 -7.71279 -7.70715 -7.69954 -7.69105 -7.68234 -7.67216 -7.66275 -7.65037 -7.638 -7.62561 -7.61186 -7.59726 -7.58067 -7.56409 -7.54751 -7.53036 -7.51938 -7.50763 -7.49588 -7.48413 -7.47377 -7.46435 -7.45492 -7.4455 -7.43607 -7.42597 -7.40113 -7.37574 -7.35035 -7.32496 -7.2972 -7.26885 -7.23847 -7.2081 -7.1772 -7.14299 -7.11003 -7.07558 -7.03997 -7.00172 -6.96214 -6.9238 -6.88547 -6.84386 -6.79871 -6.7535 -6.70956 -6.66561 -6.61804 -6.56713 -6.51615 -6.46642 -6.41439 -6.36038 -6.30618 -6.24923 -6.19242 -6.13235 -6.07226 -6.01217 -5.95536 -5.95469 -5.95402 -5.95335 -5.95268 -5.95197 -5.88686 -5.82171 -5.75657 -5.69143 -5.62259 -5.55421 -5.48343 -5.41212 -5.33795 -5.26191 -5.18724 -5.11256 -5.03418 -4.95206 -4.86974 -4.78875 -4.70577 -4.62022 -4.53466 -4.44618 -4.3957 -4.34262 -4.28953 -4.23643 -4.18787 -4.14885 -4.10983 -4.07082 -4.03177 -3.99071 -3.89631 -3.7999 -3.70351 -3.60492 -3.50367 -3.40387 -3.30408 -3.20085 -3.09411 -2.98697 -2.88126 -2.77242 -2.66247 -2.55251 -2.44178 -2.43562 -2.4293 -2.42292 -2.41655 -2.41022 -2.30265 -2.19511 -2.08759 -1.97928 -1.86745 -1.7506 -1.63377 -1.514 -1.39134 -1.26808 -1.15025 -1.03018 -0.909062 -0.787958 -0.680869 -0.67395 -0.667031 -0.660113 -0.653127 -0.646013 -0.518335 -0.390426 -0.26256 -0.133393 -0.00179002 0.128356 0.258464 0.390733 0.524183 0.658956 0.719772 0.781058 0.842783 0.9045 0.963159 1.03704 1.1109 1.18474 1.25903 1.33411 1.47009 1.60602 1.74302 1.88083 2.0196 2.11722 2.21499 2.31298 2.41094 2.50211 2.54386 2.58561 2.62735 2.66919 2.71121 2.84974 2.98842 3.12714 3.26586 3.40563 3.51251 3.61921 3.72561 3.83198 3.93122 3.96458 3.99794 4.03129 4.06461 4.09795 4.23555 4.37303 4.51044 4.64702 4.78457 4.90687 5.02865 5.14962 5.27054 5.38387 5.39959 5.41532 5.43104 5.44665 5.46222 5.59653 5.73053 5.86447 5.99656 6.12936 6.23814 6.34628 6.45283 6.55934 6.66082 6.685 6.70917 6.73335 6.75716 6.78089 6.90944 7.03735 7.16487 7.28955 7.41498 7.49214 7.56885 7.64379 7.71872 7.7919 7.8396 7.88729 7.93498 7.98157 8.02799 8.14824 8.26847 8.38633 8.50192 8.61788 8.65632 8.69456 8.73161 8.76867 8.80554 8.88202 8.9585 9.03498 9.1091 9.18287 9.29315 9.40296 9.50892 9.61491 9.72079 9.7218 9.72281 9.72378 9.72474 9.72571 9.82858 9.93146 10.0344 10.1335 10.2318 10.2994 10.3667 10.4314 10.4961 10.5623 10.5931 10.624 10.6549 10.6846 10.714 10.8075 10.901 10.992 11.0803 11.1681 11.2036 11.2387 11.2725 11.3063 11.341 11.3925 11.444 11.4955 11.5451 11.5939 11.676 11.7582 11.837 11.9151 11.9917 12.009 12.026 12.0425 12.0589 12.0757 12.1342 12.1927 12.2511 12.3076 12.3629 12.4341 12.5053 12.5731 12.6409 12.7071 12.7217 12.7361 12.75 12.7638 12.7781 12.8287 12.8792 12.9298 12.979 13.0267 13.0877 13.1487 13.2075 13.2649 13.3215 13.35 13.3777 13.4048 13.4319 13.4613 13.4881 13.5148 13.5415 13.5678 13.5932 13.6448 13.6959 13.7466 13.7951 13.8431 13.8904 13.9368 13.982 14.0271 14.0713 14.0849 14.0981 14.1111 14.1241 14.1379 14.1668 14.1956 14.2244 14.253 14.2805 14.3198 14.3587 14.3973 14.4345 14.4713 14.507 14.5427 14.5769 14.6108 14.6443 14.6767 14.7078 14.7389 14.77 14.8008 14.8029 14.8048 14.8067 14.8087 14.8107 14.8375 14.8643 14.891 14.9178 14.9436 14.9699 14.996 15.022 15.0474 15.0724 15.0961 15.1199 15.1431 15.1657 15.1883 15.2097 15.2309 15.2516 15.2721 15.2924 15.3117 15.3304 15.3489 15.3675 15.3859 15.4004 15.4146 15.4288 15.443 15.4597 15.4617 15.4637 15.4657 15.4677 15.4697 15.4849 15.5002 15.5154 15.5305 15.5455 15.5591 15.5727 15.5864 15.6 15.6134 15.6254 15.6376 15.6499 15.662 15.6741 15.6849 15.6958 15.7068 15.7177 15.7286 15.7383 15.7481 15.7579 15.7678 15.7776 15.7864 15.7952 15.804 15.813 15.8219 15.8299 15.8379 15.8459 15.8541 15.8623 15.8696 15.877 15.8845 15.892 15.8996 15.9065 15.9135 15.9206 15.9276 15.9349 15.9415 15.9485 15.9554 15.9623 15.9693 15.9762 15.9832 15.9903 15.9974 16.0046 16.012 16.0197 16.0274 16.035 16.0428 16.0512 16.0597 16.0683 16.0768 16.0853 16.0909 16.0967 16.1024 16.1081 16.12 16.1233 16.1266 16.13 16.1333 16.1367 16.1462 16.1557 16.165 16.1743 16.1836 16.1847 16.1857 16.1868 16.1879 16.1886 16.1984 16.2082 16.2179 16.2274 16.2372 16.2382 16.2363 16.2343 16.2324 16.2303 16.228 16.2256 16.2229 16.22 16.2051 16.1709 16.1364 16.1017 16.067 16.0263 15.983 15.945 15.9081 15.873 15.8405 15.8061 15.7717 15.7375 15.7034 15.6693 15.6328 15.5964 15.5575 15.5165 15.4754 15.4316 15.3877 15.3427 15.2966 15.2504 15.2014 15.1524 15.1026 15.0521 15.0016 14.9483 14.8949 14.8402 14.7847 14.729 14.6704 14.6111 14.5507 14.4895 14.4275 14.3625 14.2962 14.2293 14.1619 14.0931 14.0211 13.9472 13.8729 13.7987 13.7223 13.6422 13.5598 13.4775 13.3952 13.3111 13.2216 13.1302 13.0387 12.9473 12.8544 12.7541 12.6524 12.5506 12.4489 12.3463 12.2338 12.1205 12.0071 11.8937 11.7802 11.7541 11.7278 11.7015 11.6752 11.6474 11.5477 11.448 11.3484 11.2487 11.1482 11.0079 10.8667 10.7255 10.5842 10.441 10.2852 10.1272 9.96925 9.81126 9.65023 9.47662 9.29847 9.12029 8.94209 8.75823 8.56334 8.3645 8.16566 7.9668 7.76337 7.54892 7.31916 7.08937 6.85954 6.61273 6.35639 6.10744 5.85849 5.60973 5.36834 5.11888 4.80612 4.48712 4.15684 3.76744 3.36443 3.05216 2.76388 2.50059 2.32299 2.1392 1.77795 1.33369 0.744803 0