# vtk DataFile Version 2.0
track0
ASCII
DATASET POLYDATA
POINTS 10859 float
-0.0205 0.001 1e-05
-0.0202034 0.00100023 1e-05
-0.0199069 0.00100077 1e-05
-0.0196103 0.0010015 1e-05
-0.0193137 0.00100243 1e-05
-0.0190172 0.00100355 1e-05
-0.0187132 0.00100513 1e-05
-0.0184093 0.00100626 1e-05
-0.0181054 0.00100735 1e-05
-0.0178015 0.0010084 1e-05
-0.0174976 0.0010094 1e-05
-0.0172058 0.0010107 1e-05
-0.016914 0.00101142 1e-05
-0.0166222 0.00101211 1e-05
-0.0163305 0.00101277 1e-05
-0.0160387 0.00101339 1e-05
-0.0157586 0.00101435 1e-05
-0.0154784 0.00101492 1e-05
-0.0151983 0.00101552 1e-05
-0.0149182 0.00101617 1e-05
-0.0146381 0.00101686 1e-05
-0.0143692 0.00101784 1e-05
-0.0141002 0.0010186 1e-05
-0.0138313 0.00101941 1e-05
-0.0135624 0.00102027 1e-05
-0.0132934 0.00102119 1e-05
-0.0130353 0.00102231 1e-05
-0.0127771 0.0010233 1e-05
-0.0125189 0.00102433 1e-05
-0.0122607 0.0010254 1e-05
-0.0120025 0.00102651 1e-05
-0.0117547 0.00102771 1e-05
-0.0115068 0.00102885 1e-05
-0.0112589 0.00103001 1e-05
-0.0110111 0.0010312 1e-05
-0.0107632 0.00103242 1e-05
-0.0105252 0.00103365 1e-05
-0.0102873 0.00103487 1e-05
-0.0100493 0.0010361 1e-05
-0.00981133 0.00103734 1e-05
-0.00957337 0.0010386 1e-05
-0.00951211 0.00103893 1e-05
-0.00945086 0.00103926 1e-05
-0.0093896 0.00103959 1e-05
-0.00932835 0.00103992 1e-05
-0.00926718 0.00104025 1e-05
-0.00909996 0.00104116 1e-05
-0.00893274 0.00104207 1e-05
-0.00876552 0.00104299 1e-05
-0.0085983 0.00104391 1e-05
-0.00843108 0.00104483 1e-05
-0.00821175 0.00104604 1e-05
-0.00799242 0.00104727 1e-05
-0.00777309 0.00104849 1e-05
-0.00755376 0.00104972 1e-05
-0.00733443 0.00105095 1e-05
-0.00712387 0.00105213 1e-05
-0.0069133 0.00105331 1e-05
-0.00670273 0.00105449 1e-05
-0.00649217 0.00105567 1e-05
-0.0062816 0.00105686 1e-05
-0.00607944 0.00105798 1e-05
-0.00587729 0.00105911 1e-05
-0.00567514 0.00106023 1e-05
-0.00547298 0.00106136 1e-05
-0.00527083 0.00106248 1e-05
-0.00507675 0.00106354 1e-05
-0.00488267 0.00106461 1e-05
-0.0046886 0.00106567 1e-05
-0.00449452 0.00106672 1e-05
-0.00430044 0.00106777 1e-05
-0.00411412 0.00106877 1e-05
-0.0039278 0.00106976 1e-05
-0.00374147 0.00107075 1e-05
-0.00355515 0.00107173 1e-05
-0.00336883 0.00107271 1e-05
-0.00318995 0.00107362 1e-05
-0.00301107 0.00107454 1e-05
-0.00283219 0.00107545 1e-05
-0.00265331 0.00107635 1e-05
-0.00247443 0.00107724 1e-05
-0.0023027 0.00107808 1e-05
-0.00213097 0.00107891 1e-05
-0.00195924 0.00107973 1e-05
-0.0017875 0.00108054 1e-05
-0.00161577 0.00108134 1e-05
-0.0014509 0.00108209 1e-05
-0.00128603 0.00108282 1e-05
-0.00112116 0.00108354 1e-05
-0.000956289 0.00108424 1e-05
-0.000791418 0.00108492 1e-05
-0.000633135 0.00108555 1e-05
-0.000474851 0.00108616 1e-05
-0.000316567 0.00108675 1e-05
-0.000158283 0.0010873 1e-05
0 0.00108783 1e-05
0.000105677 0.00108817 1e-05
0.000211355 0.00108849 1e-05
0.000317032 0.00108879 1e-05
0.00042271 0.00108908 1e-05
0.000528387 0.00108936 1e-05
0.000634886 0.00108961 1e-05
0.000741385 0.00108986 1e-05
0.000847885 0.0010901 1e-05
0.000954384 0.00109032 1e-05
0.00106088 0.00109053 1e-05
0.00116821 0.00109073 1e-05
0.00127554 0.00109092 1e-05
0.00138286 0.0010911 1e-05
0.00149019 0.00109127 1e-05
0.00159752 0.00109142 1e-05
0.00170568 0.00109156 1e-05
0.00181384 0.0010917 1e-05
0.001922 0.00109182 1e-05
0.00203016 0.00109193 1e-05
0.00213833 0.00109203 1e-05
0.00224733 0.00109211 1e-05
0.00235633 0.0010922 1e-05
0.00246533 0.00109227 1e-05
0.00257434 0.00109233 1e-05
0.00268334 0.00109239 1e-05
0.00279319 0.00109242 1e-05
0.00290304 0.00109246 1e-05
0.00301289 0.00109249 1e-05
0.00312274 0.00109252 1e-05
0.00323259 0.00109253 1e-05
0.00334329 0.00109253 1e-05
0.003454 0.00109254 1e-05
0.0035647 0.00109253 1e-05
0.0036754 0.00109252 1e-05
0.00378611 0.00109251 1e-05
0.00389767 0.00109248 1e-05
0.00400924 0.00109246 1e-05
0.0041208 0.00109242 1e-05
0.00423237 0.00109239 1e-05
0.00434393 0.00109234 1e-05
0.00445636 0.00109229 1e-05
0.00456879 0.00109223 1e-05
0.00468123 0.00109217 1e-05
0.00479366 0.0010921 1e-05
0.00490609 0.00109203 1e-05
0.0050194 0.00109195 1e-05
0.0051327 0.00109187 1e-05
0.00524601 0.00109178 1e-05
0.00535932 0.00109169 1e-05
0.00547262 0.00109159 1e-05
0.00558681 0.00109148 1e-05
0.005701 0.00109137 1e-05
0.00581518 0.00109125 1e-05
0.00592937 0.00109113 1e-05
0.00604356 0.001091 1e-05
0.00609263 0.00109094 1e-05
0.00614171 0.00109089 1e-05
0.00619078 0.00109083 1e-05
0.00623986 0.00109077 1e-05
0.00628797 0.00109071 1e-05
0.00635416 0.00109062 1e-05
0.00642035 0.00109054 1e-05
0.00648655 0.00109045 1e-05
0.00655274 0.00109036 1e-05
0.00661893 0.00109027 1e-05
0.0067349 0.00109011 1e-05
0.00685087 0.00108994 1e-05
0.00696684 0.00108977 1e-05
0.00708281 0.00108959 1e-05
0.00719878 0.00108941 1e-05
0.00731565 0.00108921 1e-05
0.00743252 0.00108902 1e-05
0.00754939 0.00108882 1e-05
0.00766626 0.00108861 1e-05
0.00778313 0.0010884 1e-05
0.00790091 0.00108817 1e-05
0.00801869 0.00108795 1e-05
0.00813647 0.00108772 1e-05
0.00825425 0.00108748 1e-05
0.00837203 0.00108724 1e-05
0.00849073 0.00108698 1e-05
0.00860942 0.00108672 1e-05
0.00872812 0.00108646 1e-05
0.00884682 0.0010862 1e-05
0.00896551 0.00108592 1e-05
0.00908513 0.00108563 1e-05
0.00920475 0.00108534 1e-05
0.00932437 0.00108505 1e-05
0.00944398 0.00108475 1e-05
0.0095636 0.00108445 1e-05
0.00968415 0.00108411 1e-05
0.0098047 0.00108379 1e-05
0.00992525 0.00108347 1e-05
0.0100458 0.00108314 1e-05
0.0101663 0.0010828 1e-05
0.0102878 0.00108243 1e-05
0.0104093 0.00108207 1e-05
0.0105308 0.00108172 1e-05
0.0106523 0.00108135 1e-05
0.0107738 0.00108098 1e-05
0.0108962 0.00108057 1e-05
0.0110186 0.00108018 1e-05
0.0111411 0.00107978 1e-05
0.0112635 0.00107938 1e-05
0.0113859 0.00107897 1e-05
0.0115093 0.00107852 1e-05
0.0116327 0.0010781 1e-05
0.0117561 0.00107766 1e-05
0.0118795 0.00107722 1e-05
0.0120028 0.00107677 1e-05
0.0121272 0.00107628 1e-05
0.0122515 0.00107581 1e-05
0.0123759 0.00107534 1e-05
0.0125002 0.00107486 1e-05
0.0126245 0.00107437 1e-05
0.0127498 0.00107383 1e-05
0.0128752 0.00107332 1e-05
0.0130005 0.0010728 1e-05
0.0131258 0.00107228 1e-05
0.0132511 0.00107174 1e-05
0.0133774 0.00107116 1e-05
0.0135036 0.0010706 1e-05
0.0136299 0.00107004 1e-05
0.0137562 0.00106946 1e-05
0.0138825 0.00106888 1e-05
0.0140098 0.00106826 1e-05
0.014137 0.00106765 1e-05
0.0142643 0.00106703 1e-05
0.0143915 0.0010664 1e-05
0.0145188 0.00106577 1e-05
0.0146471 0.00106509 1e-05
0.0147753 0.00106443 1e-05
0.0149036 0.00106376 1e-05
0.0150318 0.00106308 1e-05
0.0151601 0.00106238 1e-05
0.0152893 0.00106165 1e-05
0.0154186 0.00106093 1e-05
0.0155478 0.0010602 1e-05
0.0156771 0.00105946 1e-05
0.0158063 0.00105871 1e-05
0.0159366 0.00105792 1e-05
0.0160668 0.00105714 1e-05
0.0161971 0.00105634 1e-05
0.0163274 0.00105554 1e-05
0.0164576 0.00105472 1e-05
0.0165889 0.00105388 1e-05
0.0167201 0.00105302 1e-05
0.0168514 0.00105216 1e-05
0.0169827 0.00105129 1e-05
0.0171139 0.00105041 1e-05
0.0172462 0.00104949 1e-05
0.0173785 0.00104857 1e-05
0.0175108 0.00104764 1e-05
0.0176431 0.00104669 1e-05
0.0177754 0.00104573 1e-05
0.0179087 0.00104475 1e-05
0.018042 0.00104376 1e-05
0.0181753 0.00104274 1e-05
0.0183087 0.00104172 1e-05
0.018442 0.00104068 1e-05
0.0185763 0.00103963 1e-05
0.0187107 0.00103855 1e-05
0.018845 0.00103745 1e-05
0.0189794 0.00103634 1e-05
0.0191137 0.00103522 1e-05
0.0192491 0.00103409 1e-05
0.0193845 0.00103293 1e-05
0.0195199 0.00103175 1e-05
0.0196553 0.00103054 1e-05
0.0197907 0.00102934 1e-05
0.0199272 0.00102812 1e-05
0.0200636 0.00102688 1e-05
0.0202001 0.0010256 1e-05
0.0203365 0.0010243 1e-05
0.020473 0.001023 1e-05
0.0206105 0.0010217 1e-05
0.020748 0.00102036 1e-05
0.0208855 0.00101898 1e-05
0.021023 0.00101759 1e-05
0.0211606 0.0010162 1e-05
0.0212991 0.0010148 1e-05
0.0214377 0.00101337 1e-05
0.0215763 0.00101189 1e-05
0.0217149 0.00101039 1e-05
0.0218535 0.0010089 1e-05
0.0219931 0.00100741 1e-05
0.0221328 0.00100587 1e-05
0.0222724 0.00100429 1e-05
0.0224121 0.00100268 1e-05
0.0225517 0.00100109 1e-05
0.0226925 0.000999494 1e-05
0.0228332 0.000997849 1e-05
0.022974 0.000996157 1e-05
0.0231147 0.000994445 1e-05
0.0232555 0.000992743 1e-05
0.0233973 0.000991038 1e-05
0.0235391 0.000989282 1e-05
0.023681 0.000987476 1e-05
0.0238228 0.00098565 1e-05
0.0239647 0.000983834 1e-05
0.0241076 0.000982015 1e-05
0.0242505 0.000980142 1e-05
0.0243935 0.000978216 1e-05
0.0245364 0.000976271 1e-05
0.0246794 0.000974336 1e-05
0.0248234 0.000972396 1e-05
0.0249675 0.000970402 1e-05
0.0251115 0.000968355 1e-05
0.0252556 0.000966289 1e-05
0.0253996 0.00096423 1e-05
0.0255448 0.000962165 1e-05
0.02569 0.000960044 1e-05
0.0258351 0.000957874 1e-05
0.0259803 0.000955684 1e-05
0.0261255 0.000953495 1e-05
0.0262718 0.000951298 1e-05
0.0264181 0.000949043 1e-05
0.0265644 0.000946743 1e-05
0.0267107 0.000944422 1e-05
0.026857 0.000942096 1e-05
0.0270044 0.00093976 1e-05
0.0271519 0.000937366 1e-05
0.0272993 0.000934932 1e-05
0.0274467 0.000932477 1e-05
0.0275942 0.000930009 1e-05
0.0277428 0.000927529 1e-05
0.0278914 0.000924991 1e-05
0.0280399 0.000922419 1e-05
0.0281885 0.000919823 1e-05
0.0283371 0.000917208 1e-05
0.0284869 0.000914577 1e-05
0.0286366 0.000911887 1e-05
0.0287863 0.000909168 1e-05
0.0289361 0.000906425 1e-05
0.0290858 0.000903656 1e-05
0.0292367 0.000900866 1e-05
0.0293876 0.000898021 1e-05
0.0295385 0.000895149 1e-05
0.0296894 0.00089225 1e-05
0.0298403 0.000889324 1e-05
0.0299924 0.000886369 1e-05
0.0301445 0.000883363 1e-05
0.0302966 0.00088033 1e-05
0.0304486 0.000877269 1e-05
0.0306007 0.000874179 1e-05
0.030754 0.000871051 1e-05
0.0309072 0.000867879 1e-05
0.0310605 0.000864677 1e-05
0.0312138 0.000861447 1e-05
0.031367 0.000858186 1e-05
0.0315215 0.000854878 1e-05
0.0316759 0.000851532 1e-05
0.0318304 0.000848154 1e-05
0.0319848 0.000844746 1e-05
0.0321393 0.000841306 1e-05
0.0321785 0.000840425 1e-05
0.0322177 0.000839542 1e-05
0.0322569 0.000838657 1e-05
0.0322961 0.00083777 1e-05
0.0323345 0.000836899 1e-05
0.0324511 0.000834248 1e-05
0.0325677 0.000831578 1e-05
[...]
POINT_DATA 10859
 FIELD attributes 1
U 3 10859 float
10.0003 	0.00776059 	0 10.0019 	0.0181326 	0 10.0037 	0.0247505 	0 10.0054 	0.0313237 	0 10.0072 	0.0378526 	0 10.0157 	0.0520569 	0 10.0157 	0.0373544 	0 10.0203 	0.0359043 	0 10.0249 	0.0344576 	0 10.0296 	0.0330144 	0 10.0406 	0.044739 	0 10.0403 	0.0248166 	0 10.0456 	0.0237392 	0 10.0508 	0.0226584 	0 10.0561 	0.0215741 	0 10.0661 	0.0344271 	0 10.0666 	0.0203637 	0 10.0712 	0.021798 	0 10.0759 	0.0232389 	0 10.0806 	0.0246866 	0 10.0879 	0.0370336 	0 10.0897 	0.0283183 	0 10.0938 	0.030393 	0 10.0978 	0.0324769 	0 10.1018 	0.0345699 	0 10.1065 	0.0437685 	0 10.1097 	0.0386654 	0 10.1131 	0.0402717 	0 10.1165 	0.0418838 	0 10.1199 	0.043502 	0 10.1224 	0.0490927 	0 10.126 	0.0465277 	0 10.1286 	0.0475969 	0 10.1313 	0.0486693 	0 10.1339 	0.0497448 	0 10.1352 	0.0525475 	0 10.1383 	0.0516937 	0 10.1402 	0.0523772 	0 10.142 	0.0530624 	0 10.1439 	0.0537491 	0 10.1453 	0.0547104 	0 10.1461 	0.0545777 	0 10.1464 	0.0546837 	0 10.1467 	0.0547897 	0 10.1471 	0.0548957 	0 10.1474 	0.0550017 	0 10.1483 	0.0552876 	0 10.1493 	0.0555739 	0 10.1502 	0.0558605 	0 10.1511 	0.0561475 	0 10.1522 	0.056171 	0 10.1529 	0.0565279 	0 10.1538 	0.0566952 	0 10.1546 	0.0568627 	0 10.1554 	0.0570304 	0 10.1564 	0.056694 	0 10.1568 	0.0570575 	0 10.1573 	0.0570546 	0 10.1577 	0.0570518 	0 10.1581 	0.0570489 	0 10.1588 	0.0564075 	0 10.1591 	0.0567441 	0 10.1593 	0.056609 	0 10.1594 	0.0564739 	0 10.1595 	0.0563386 	0 10.1597 	0.0555026 	0 10.1602 	0.0557816 	0 10.1601 	0.0555335 	0 10.1601 	0.0552853 	0 10.16 	0.055037 	0 10.1595 	0.0540716 	0 10.1605 	0.0542605 	0 10.1603 	0.053897 	0 10.16 	0.0535333 	0 10.1598 	0.0531695 	0 10.1587 	0.0520956 	0 10.1603 	0.0521529 	0 10.16 	0.0516526 	0 10.1596 	0.0511522 	0 10.1593 	0.0506516 	0 10.1574 	0.0494613 	0 10.1599 	0.0493239 	0 10.1595 	0.0486222 	0 10.1592 	0.0479203 	0 10.1588 	0.0472182 	0 10.1561 	0.0458405 	0 10.1595 	0.0453402 	0 10.159 	0.0442432 	0 10.1586 	0.043146 	0 10.1581 	0.0420487 	0 10.1543 	0.0402975 	0 10.1585 	0.0391861 	0 10.1579 	0.0374778 	0 10.1572 	0.0357692 	0 10.1565 	0.0340604 	0 10.1515 	0.0319261 	0 10.156 	0.0309066 	-3.26039e-21 10.1549 	0.0293427 	-1.07021e-20 10.1538 	0.0277786 	-1.81452e-20 10.1527 	0.0262143 	-2.55898e-20 10.1469 	0.0243582 	-3.37407e-20 10.1511 	0.0237199 	-6.04887e-20 10.1497 	0.0225256 	-6.02019e-20 10.1482 	0.0213311 	-5.99085e-20 10.1468 	0.0201364 	-5.96084e-20 10.1407 	0.0185524 	-3.10615e-20 10.1447 	0.0181259 	-3.21831e-20 10.1432 	0.0169659 	-3.66984e-20 10.1417 	0.0158056 	-4.12165e-20 10.1401 	0.014645 	-4.57373e-20 10.1341 	0.0129755 	-5.14174e-20 10.1379 	0.0127535 	-7.48537e-20 10.1364 	0.0116333 	-7.45793e-20 10.1348 	0.0105126 	-7.42999e-20 10.1333 	0.00939152 	-7.40155e-20 10.1274 	0.00760732 	-5.48294e-20 10.1309 	0.00766451 	-3.99762e-20 10.1292 	0.00676362 	-2.38426e-20 10.1275 	0.00586229 	-7.70992e-21 10.1258 	0.00496052 	8.42196e-21 10.12 	0.00326955 	2.47221e-20 10.1229 	0.00352197 	1.51191e-20 10.121 	0.00285463 	9.44957e-21 10.1191 	0.00218693 	3.7803e-21 10.1173 	0.00151887 	-1.88871e-21 10.1116 	4.50393e-05 	-1.10313e-22 10.1139 	0.000306729 	1.28964e-20 10.1119 	-0.000232709 	1.39114e-20 10.1098 	-0.000772441 	1.49222e-20 10.1077 	-0.00131247 	1.59289e-20 10.1024 	-0.00255736 	2.47123e-21 10.1039 	-0.00242425 	3.44974e-20 10.1017 	-0.00291927 	3.90351e-20 10.0994 	-0.00341454 	4.35657e-20 10.0971 	-0.00391007 	4.80892e-20 10.0921 	-0.00493766 	2.58341e-20 10.0928 	-0.0049755 	2.30456e-20 10.0902 	-0.00545361 	1.70662e-20 10.0877 	-0.00593193 	1.10872e-20 10.0851 	-0.00641047 	5.10851e-21 10.0804 	-0.00723126 	-1.76962e-21 10.0801 	-0.00743021 	7.40574e-21 10.0772 	-0.00790059 	1.60365e-20 10.0743 	-0.00837115 	2.46679e-20 10.0714 	-0.00884191 	3.32997e-20 10.0672 	-0.00948619 	4.14079e-20 10.0655 	-0.0098148 	3.35233e-20 10.0623 	-0.0102796 	2.51284e-20 10.059 	-0.0107446 	1.6734e-20 10.0558 	-0.0112097 	8.34013e-21 10.0521 	-0.0117182 	1.71298e-22 10.0511 	-0.011879 	-3.28617e-21 10.0495 	-0.0120749 	-6.9691e-21 10.048 	-0.0122708 	-1.06521e-20 10.0464 	-0.0124667 	-1.43353e-20 10.0449 	-0.0126589 	-1.7946e-20 10.0428 	-0.0129246 	-2.33123e-20 10.0407 	-0.0131905 	-2.86799e-20 10.0385 	-0.0134563 	-3.40488e-20 10.0364 	-0.0137223 	-3.94191e-20 10.0299 	-0.014115 	-4.24802e-20 10.03 	-0.014441 	-2.5532e-20 10.0259 	-0.0149003 	-8.58328e-21 10.0218 	-0.0153598 	8.36541e-21 10.0176 	-0.0158194 	2.53141e-20 10.001 	-0.0166926 	4.1176e-20 10.0084 	-0.0167355 	5.47151e-20 10.0038 	-0.0171932 	6.25272e-20 9.99919 	-0.0176511 	7.03422e-20 9.99458 	-0.0181092 	7.81602e-20 9.96876 	-0.0193186 	7.43146e-20 9.98386 	-0.019047 	6.54555e-20 9.97874 	-0.0195032 	5.67092e-20 9.97361 	-0.0199595 	4.79613e-20 9.96848 	-0.020416 	3.92119e-20 9.93315 	-0.0219783 	3.43819e-20 9.95612 	-0.0213904 	1.74022e-20 9.95045 	-0.0218437 	-2.8624e-21 9.94477 	-0.0222971 	-2.31266e-20 9.93909 	-0.0227507 	-4.33904e-20 9.89414 	-0.024653 	-5.54373e-20 9.92495 	-0.0237721 	-3.41859e-20 9.9187 	-0.0242217 	-3.28713e-20 9.91246 	-0.0246716 	-3.15503e-20 9.9062 	-0.0251217 	-3.02228e-20 9.8518 	-0.0273285 	-5.55431e-20 9.89017 	-0.0261964 	-4.73957e-20 9.88334 	-0.0266441 	-3.39586e-20 9.87651 	-0.027092 	-2.05204e-20 9.86968 	-0.0275402 	-7.08141e-21 9.80625 	-0.030002 	0 9.85164 	-0.0286748 	-3.59301e-21 9.84423 	-0.0291244 	-1.06061e-20 9.83682 	-0.0295742 	-1.76187e-20 9.82939 	-0.0300243 	-2.46307e-20 9.75764 	-0.0326822 	-2.37493e-20 9.80932 	-0.0312241 	-2.75477e-20 9.80132 	-0.0316806 	-2.73487e-20 9.79331 	-0.0321374 	-2.71487e-20 9.7853 	-0.0325946 	-2.69476e-20 9.70613 	-0.0353827 	-2.5164e-20 9.76314 	-0.0338634 	-2.395e-20 9.75455 	-0.0343323 	-1.66584e-20 9.74596 	-0.0348015 	-9.36629e-21 9.73735 	-0.0352711 	-2.07362e-21 9.65192 	-0.0381206 	-3.40536e-21 9.71316 	-0.0366097 	-3.35246e-21 9.704 	-0.0370957 	-1.62364e-20 9.69483 	-0.0375821 	-2.91193e-20 9.68566 	-0.038069 	-4.20012e-20 9.59524 	-0.0409062 	-4.46932e-20 9.6595 	-0.0394828 	9.60616e-21 9.64978 	-0.0399902 	1.11541e-20 9.64004 	-0.0404982 	1.27099e-20 9.6303 	-0.0410067 	1.42734e-20 9.53629 	-0.0437508 	-4.28425e-20 9.60224 	-0.0424917 	-4.07591e-20 9.59197 	-0.043025 	-2.72737e-20 9.5817 	-0.0435589 	-1.37871e-20 9.57141 	-0.0440933 	-2.99225e-22 9.47532 	-0.0466684 	0 9.54061 	-0.0456601 	0 9.5309 	-0.0462034 	0 9.52011 	-0.0467697 	0 9.50367 	-0.0474527 	0 9.41259 	-0.0496773 	0 9.47037 	-0.0490737 	0 9.46678 	-0.0495448 	1.22061e-20 9.4555 	-0.0501511 	2.59385e-20 9.43222 	-0.0509623 	3.96756e-20 9.34836 	-0.0528063 	5.3442e-20 9.3987 	-0.0525796 	3.91652e-20 9.40011 	-0.0530459 	4.65381e-20 9.38839 	-0.0536988 	5.97158e-20 9.35959 	-0.0545742 	7.55228e-20 9.28298 	-0.0560716 	9.87021e-20 9.32605 	-0.0562111 	7.42872e-20 9.33132 	-0.056738 	5.63652e-20 9.31918 	-0.057444 	4.14284e-20 9.28616 	-0.0583189 	3.53525e-20 9.21668 	-0.0594887 	4.4757e-20 9.25281 	-0.0600015 	3.46195e-20 9.26086 	-0.0606582 	1.85643e-20 9.24834 	-0.0614208 	-1.82113e-21 9.21235 	-0.0622245 	-1.37847e-20 9.14973 	-0.0630751 	-1.6186e-20 9.17936 	-0.0639615 	4.83943e-20 9.18917 	-0.0648163 	8.36326e-20 9.1763 	-0.065635 	8.52951e-20 9.13851 	-0.0662928 	4.8966e-20 9.08236 	-0.0668326 	-1.53297e-20 9.106 	-0.0680782 	-1.24646e-20 9.1167 	-0.0691939 	-8.36706e-21 9.10351 	-0.0700679 	-1.99294e-21 9.06493 	-0.070512 	0 9.01479 	-0.070761 	0 9.033 	-0.0723468 	0 9.04386 	-0.0737814 	0 9.03038 	-0.074709 	0 8.99188 	-0.0748753 	0 8.94721 	-0.0748546 	0 8.96059 	-0.0767489 	0 8.97102 	-0.0785472 	0 8.95728 	-0.0795263 	0 8.91956 	-0.0793656 	0 8.87979 	-0.0791083 	0 8.88893 	-0.0812818 	0 8.89799 	-0.0834582 	0 8.88357 	-0.0844459 	8.84069e-21 8.84813 	-0.0839849 	3.18316e-20 8.81269 	-0.0835237 	5.48227e-20 8.81817 	-0.0859398 	2.09605e-19 8.82355 	-0.088359 	3.6439e-19 8.80942 	-0.0893509 	3.59621e-19 8.77774 	-0.0887208 	2.02155e-19 8.74607 	-0.0880904 	4.46838e-20 8.74841 	-0.090705 	-3.34272e-20 8.75065 	-0.0933231 	-1.1153e-19 8.73691 	-0.0943204 	-1.21575e-19 8.70846 	-0.0935748 	-6.54534e-20 8.68004 	-0.0928287 	-9.33113e-21 8.67973 	-0.0956272 	-5.87762e-21 8.67931 	-0.0984291 	-2.4181e-21 8.66606 	-0.0994291 	5.56857e-21 8.64037 	-0.098581 	1.47356e-20 8.6147 	-0.0977321 	2.39046e-20 8.61218 	-0.10064 	1.37489e-20 8.60955 	-0.103551 	3.58376e-21 8.59688 	-0.104551 	1.94192e-20 8.5735 	-0.10367 	6.08047e-20 8.55015 	-0.102789 	1.02193e-19 8.54577 	-0.105785 	1.73529e-19 8.54128 	-0.108784 	2.44858e-19 8.52926 	-0.109788 	2.38254e-19 8.50784 	-0.108909 	1.40201e-19 8.48644 	-0.108029 	4.21433e-20 8.48054 	-0.111102 	2.74061e-20 8.47453 	-0.114179 	1.26769e-20 8.46321 	-0.115181 	-4.50546e-21 8.44341 	-0.114295 	-2.1234e-20 8.42364 	-0.113409 	-3.79643e-20 8.41651 	-0.116506 	-2.06244e-20 8.40911 	-0.119516 	-3.8525e-21 8.39812 	-0.120462 	-2.85847e-22 8.38026 	-0.119766 	1.15978e-20 8.36181 	-0.118927 	2.42079e-20 8.35369 	-0.122051 	1.07259e-20 8.34493 	-0.124742 	3.63453e-21 8.33405 	-0.12574 	2.13814e-20 8.31832 	-0.125423 	3.48148e-20 8.30095 	-0.124655 	4.67639e-20 8.29202 	-0.12782 	9.01571e-20 8.28234 	-0.130193 	1.15779e-19 8.27151 	-0.131234 	1.11578e-19 8.25747 	-0.131281 	7.70986e-20 8.24096 	-0.130552 	1.89728e-20 8.23136 	-0.133678 	2.57903e-20 8.22109 	-0.135679 	1.23114e-20 8.2103 	-0.136752 	-1.79147e-20 8.19763 	-0.137191 	-4.57828e-20 8.18182 	-0.136556 	-6.96633e-20 8.17162 	-0.13962 	-2.04856e-19 8.16102 	-0.141267 	-2.33083e-19 8.15025 	-0.142385 	-2.21402e-19 8.13867 	-0.143223 	-1.8705e-19 8.12345 	-0.142727 	-4.53152e-20 8.11274 	-0.145759 	-2.87245e-20 8.10199 	-0.147085 	-1.57704e-20 8.09119 	-0.148253 	-3.15656e-21 8.08034 	-0.149422 	9.45543e-21 8.06573 	-0.14909 	3.06277e-20 8.05459 	-0.151883 	5.47551e-20 8.0438 	-0.153096 	3.98151e-20 8.03295 	-0.15431 	2.48583e-20 8.02206 	-0.155525 	9.88471e-21 8.00857 	-0.155629 	-2.67232e-20 7.99721 	-0.158045 	-1.03798e-19 7.98634 	-0.159296 	-1.0362e-19 7.97542 	-0.160547 	-1.03418e-19 7.96445 	-0.1618 	-1.03192e-19 7.95185 	-0.162306 	-5.63758e-20 7.9404 	-0.164354 	-5.24348e-20 7.92945 	-0.165638 	-5.63922e-20 7.91845 	-0.166924 	-6.03584e-20 7.9074 	-0.16821 	-6.43334e-20 7.89551 	-0.169103 	-7.20178e-20 7.88412 	-0.170838 	-9.02295e-20 7.87306 	-0.172168 	-8.39423e-20 7.86195 	-0.1735 	-7.76319e-20 7.85078 	-0.174833 	-7.12981e-20 7.83941 	-0.17609 	-6.00834e-20 7.8365 	-0.176517 	-5.71571e-20 7.83369 	-0.176865 	-5.42387e-20 7.83087 	-0.177213 	-5.13205e-20 7.82805 	-0.177561 	-4.84026e-20 7.82528 	-0.177902 	-4.55434e-20 7.81648 	-0.178943 	-3.59723e-20 7.80765 	-0.179985 	-2.63986e-20 7.79878 	-0.181027 	-1.68224e-20 7.78987 	-0.18207 	-7.24361e-21 7.78228 	-0.182902 	0 7.76982 	-0.184532 	-2.2328e-21 7.75789 	-0.185959 	-5.0304e-21 7.7459 	-0.187388 	-7.82682e-21 7.73384 	-0.188817 	-1.0622e-20 7.72481 	-0.189765 	-1.60173e-20 7.71134 	-0.19168 	-4.02978e-20 7.6992 	-0.193132 	-3.04656e-20 7.687 	-0.194585 	-2.06655e-20 7.67474 	-0.19604 	-1.08976e-20 7.66725 	-0.196762 	4.75057e-20 7.65276 	-0.19896 	9.22617e-20 7.6404 	-0.200441 	9.76842e-20 7.62798 	-0.201922 	1.03125e-19 7.61549 	-0.203405 	1.08584e-19 7.60949 	-0.203912 	6.20181e-20 7.59415 	-0.206346 	4.18172e-20 7.58134 	-0.207917 	2.64517e-20 7.56867 	-0.209419 	1.14732e-20 7.5575 	-0.210686 	0 7.55143 	-0.21118 	0 7.53596 	-0.213624 	0 7.52205 	-0.215503 	0 7.50911 	-0.217022 	0 7.49949 	-0.218025 	0 7.49296 	-0.218549 	0 7.47735 	-0.220996 	0 7.46236 	-0.223187 	1.35931e-21 7.44911 	-0.224723 	6.17276e-21 7.44091 	-0.225469 	1.09619e-20 7.43386 	-0.226031 	1.57451e-20 7.41802 	-0.22847 	5.1338e-20 7.40208 	-0.23091 	8.69266e-20 7.38902 	-0.232398 	8.671e-20 7.38149 	-0.232987 	5.041e-20 7.37392 	-0.233576 	1.41053e-20 7.35781 	-0.235992 	8.64236e-21 7.34161 	-0.23841 	3.17568e-21 7.32919 	-0.239926 	-2.64112e-21 7.32113 	-0.240544 	-7.14079e-21 7.31303 	-0.241164 	-1.16399e-20 7.29661 	-0.243557 	-4.50737e-20 7.28008 	-0.245952 	-7.85035e-20 7.26826 	-0.247489 	-7.73415e-20 7.25968 	-0.248115 	-3.8871e-20 7.25107 	-0.248741 	-3.96112e-22 7.23426 	-0.251097 	-3.75422e-20 7.21776 	-0.253391 	-7.18688e-20 7.20648 	-0.254848 	-6.9265e-20 7.19707 	-0.25557 	-3.37812e-20 7.188 	-0.256152 	7.99007e-21 7.17083 	-0.25845 	2.95828e-21 7.15589 	-0.260385 	-9.84339e-24 7.14421 	-0.261796 	-3.51382e-24 7.13348 	-0.262822 	-3.58407e-21 7.12397 	-0.263365 	-1.16437e-20 7.10653 	-0.265617 	-2.27085e-21 7.09316 	-0.267201 	0 7.08105 	-0.268572 	0 7.06896 	-0.269913 	-2.85172e-22 7.05889 	-0.270429 	-8.37287e-21 7.04169 	-0.272521 	3.82607e-24 7.0292 	-0.273829 	3.72339e-23 7.01666 	-0.275137 	7.0656e-23 7.00405 	-0.276447 	1.04093e-22 6.99269 	-0.277238 	2.39943e-21 6.97708 	-0.27892 	1.55827e-20 6.96417 	-0.280153 	1.30315e-20 6.9512 	-0.281387 	1.04653e-20 6.93818 	-0.282623 	7.88412e-21 6.92546 	-0.283716 	8.32108e-22 6.91957 	-0.284284 	-1.69907e-21 6.91445 	-0.284726 	-4.73976e-21 6.90932 	-0.285169 	-7.78093e-21 6.90418 	-0.285611 	-1.08226e-20 6.89916 	-0.286043 	-1.37937e-20 6.89059 	-0.286763 	-1.78977e-20 6.88199 	-0.287484 	-2.20004e-20 6.87338 	-0.288205 	-2.61017e-20 6.86474 	-0.288926 	-3.02015e-20 6.85641 	-0.289475 	-3.13978e-20 6.84261 	-0.290748 	-2.06526e-20 6.82837 	-0.291819 	-1.67864e-20 6.81407 	-0.292891 	-1.28991e-20 6.79972 	-0.293964 	-8.99046e-21 6.78621 	-0.294584 	-2.84685e-20 6.77263 	-0.296083 	-2.32818e-20 6.75802 	-0.297049 	-1.53507e-20 6.74335 	-0.298015 	-7.41618e-21 6.72875 	-0.298924 	1.27024e-22 6.71534 	-0.299197 	3.43451e-21 6.70162 	-0.300698 	2.66055e-20 6.68703 	-0.301741 	3.54431e-20 6.67203 	-0.30258 	3.79341e-20 6.65772 	-0.30306 	2.93748e-20 6.64407 	-0.303199 	1.03361e-20 6.63002 	-0.304546 	4.64695e-21 6.61572 	-0.305787 	-7.20731e-23 6.60045 	-0.306494 	-3.54561e-24 6.58652 	-0.306539 	0 6.57265 	-0.306548 	0 6.5583 	-0.307753 	0 6.54388 	-0.308959 	0 6.52935 	-0.309485 	1.12917e-21 6.51534 	-0.309338 	4.06826e-21 6.50132 	-0.309191 	7.00812e-21 6.48672 	-0.31023 	2.63233e-20 6.47207 	-0.311269 	4.56398e-20 6.45863 	-0.311648 	4.5883e-20 6.44454 	-0.311329 	2.70086e-20 6.43044 	-0.31101 	8.13262e-21 6.41567 	-0.311865 	-1.45619e-20 6.40134 	-0.312508 	-3.00767e-20 6.38817 	-0.31263 	-2.80706e-20 6.3745 	-0.312421 	-1.49638e-20 6.36041 	-0.311922 	7.85997e-21 6.34554 	-0.312588 	5.8593e-21 6.33194 	-0.312695 	5.78907e-21 6.31877 	-0.312612 	6.37135e-21 6.30558 	-0.31253 	6.95443e-21 6.29158 	-0.311852 	9.42473e-21 6.27707 	-0.312157 	7.37681e-21 6.26399 	-0.311858 	5.32189e-21 6.2509 	-0.31156 	3.26724e-21 6.2378 	-0.311262 	1.21286e-21 6.22439 	-0.310716 	0 6.2144 	-0.310599 	0 6.20504 	-0.310226 	0 6.19568 	-0.309854 	0 6.18633 	-0.309481 	0 6.17703 	-0.309112 	0 6.17372 	-0.308971 	0 6.17041 	-0.30883 	0 6.1671 	-0.308689 	0 6.16379 	-0.308549 	0 6.16055 	-0.308305 	0 6.14905 	-0.307676 	-1.40283e-21 6.13732 	-0.306951 	-3.02849e-21 6.12559 	-0.306226 	-4.65423e-21 6.11386 	-0.3055 	-6.28005e-21 6.1025 	-0.304294 	-7.90921e-21 6.09212 	-0.30378 	-6.03153e-21 6.08069 	-0.30283 	-4.26961e-21 6.06927 	-0.301879 	-2.50791e-21 6.05786 	-0.300929 	-7.46437e-22 6.04718 	-0.299114 	-7.50237e-22 6.03772 	-0.298611 	1.2229e-20 6.02688 	-0.297517 	1.75088e-20 6.01585 	-0.296339 	2.16843e-20 6.00514 	-0.294838 	2.09276e-20 5.99498 	-0.29274 	1.10393e-20 5.98592 	-0.291994 	1.94744e-20 5.97627 	-0.290993 	2.37601e-20 5.96572 	-0.28959 	2.15345e-20 5.95585 	-0.287499 	9.88253e-21 5.94624 	-0.285182 	-4.84736e-21 5.93766 	-0.284198 	-2.49793e-21 5.92909 	-0.283214 	-1.48006e-22 5.91935 	-0.281522 	-2.01667e-21 5.91027 	-0.279014 	-9.04366e-21 5.90126 	-0.276506 	-1.60678e-20 5.89323 	-0.275307 	-1.99624e-20 5.88522 	-0.274108 	-2.38561e-20 5.87708 	-0.27217 	-2.33915e-20 5.86864 	-0.2695 	-1.84439e-20 5.86026 	-0.266831 	-1.34931e-20 5.85284 	-0.265441 	-9.00132e-21 5.84546 	-0.264051 	-4.50784e-21 5.83889 	-0.261891 	-4.51054e-21 5.8311 	-0.259093 	-9.44461e-21 5.82338 	-0.256296 	-1.43747e-20 5.81663 	-0.254745 	-1.01754e-20 5.81015 	-0.252966 	-6.64421e-21 5.80431 	-0.250614 	-4.80336e-21 5.79775 	-0.247945 	-4.86661e-21 5.79071 	-0.24505 	-6.27825e-21 5.78466 	-0.243363 	-5.36653e-21 5.77914 	-0.241193 	-5.05525e-21 5.77396 	-0.23875 	-5.08359e-21 5.76859 	-0.236214 	-5.30625e-21 5.76223 	-0.233264 	-6.40993e-21 5.75691 	-0.231478 	-5.74585e-21 5.75231 	-0.229005 	-5.971e-21 5.74778 	-0.226516 	-6.21403e-21 5.74331 	-0.224029 	-6.45418e-21 5.73787 	-0.221169 	-8.15335e-21 5.73347 	-0.219137 	-8.0382e-22 5.72953 	-0.216655 	2.38647e-21 5.72565 	-0.214173 	5.58251e-21 5.72183 	-0.211692 	8.78431e-21 5.7175 	-0.209025 	8.486e-21 5.71395 	-0.206828 	7.60485e-21 5.71064 	-0.204402 	7.80362e-21 5.70739 	-0.201977 	7.99974e-21 5.7042 	-0.199553 	8.19319e-21 5.70092 	-0.197087 	8.57513e-21 5.69993 	-0.196331 	7.57563e-21 5.69897 	-0.195523 	6.41408e-21 5.69802 	-0.194715 	5.25251e-21 5.69708 	-0.193907 	4.09093e-21 5.6961 	-0.193065 	2.88041e-21 5.69448 	-0.191556 	7.03844e-22 5.69287 	-0.190048 	-1.47269e-21 5.69129 	-0.18854 	-3.64921e-21 5.68974 	-0.187032 	-5.82569e-21 5.68843 	-0.18545 	-7.7019e-21 5.68644 	-0.183328 	-1.02405e-20 5.68445 	-0.181155 	-1.07878e-20 5.68251 	-0.178983 	-1.13286e-20 5.68062 	-0.176813 	-1.1863e-20 5.67927 	-0.174483 	-8.48717e-21 5.6779 	-0.172618 	-2.78645e-21 5.67642 	-0.17065 	-7.74267e-22 5.67499 	-0.168682 	1.23327e-21 5.6736 	-0.166716 	3.23616e-21 5.67292 	-0.164543 	-2.11432e-21 5.67213 	-0.162956 	-4.2502e-21 5.67111 	-0.161241 	-4.48393e-21 5.67013 	-0.159528 	-4.7145e-21 5.6692 	-0.157815 	-4.94191e-21 5.66904 	-0.155878 	-3.83054e-21 5.66879 	-0.154595 	-5.33275e-21 5.66818 	-0.153184 	-5.61444e-21 5.6676 	-0.151773 	-5.89354e-21 5.66712 	-0.150346 	-5.98179e-21 5.66729 	-0.148742 	-4.07957e-21 5.66745 	-0.147775 	-5.79888e-22 5.66726 	-0.146734 	5.1559e-23 5.66701 	-0.145676 	4.92187e-23 5.66694 	-0.14458 	-1.5542e-22 5.66728 	-0.143388 	-8.63858e-22 5.66776 	-0.142785 	-5.79189e-21 5.66795 	-0.14215 	-7.87328e-21 5.66796 	-0.141494 	-8.10555e-21 5.66817 	-0.140798 	-5.89148e-21 5.66862 	-0.140059 	-1.01502e-21 5.66934 	-0.139866 	-3.59988e-22 5.66985 	-0.139663 	2.47892e-23 5.67005 	-0.139444 	6.20338e-24 5.67044 	-0.139191 	0 5.67094 	-0.138921 	0 5.67184 	-0.13916 	0 5.67262 	-0.139401 	-2.74738e-22 5.67294 	-0.13965 	-1.65009e-21 5.67342 	-0.139889 	-5.39864e-22 5.67392 	-0.140126 	1.00313e-21 5.67494 	-0.140837 	-1.17379e-20 5.67595 	-0.141549 	-2.4478e-20 5.67635 	-0.14231 	-2.43517e-20 5.6768 	-0.143101 	-1.12402e-20 5.67723 	-0.143892 	1.8727e-21 5.67831 	-0.145128 	6.437e-22 5.67937 	-0.146362 	-5.83602e-22 5.67988 	-0.14766 	0 5.68022 	-0.149013 	0 5.68053 	-0.150365 	0 5.68159 	-0.152136 	0 5.68261 	-0.153905 	0 5.68316 	-0.155742 	0 5.68331 	-0.157645 	0 5.68342 	-0.159547 	0 5.68438 	-0.161846 	0 5.68529 	-0.164143 	0 5.68579 	-0.166513 	-2.01538e-21 5.68568 	-0.168957 	-5.14739e-21 5.68551 	-0.171399 	-8.28212e-21 5.6863 	-0.17422 	-5.44238e-21 5.68702 	-0.17704 	-2.60544e-21 5.68738 	-0.179937 	-3.46399e-21 5.68693 	-0.182911 	-7.42426e-21 5.68642 	-0.185883 	-1.13888e-20 5.68695 	-0.18922 	-1.3934e-20 5.68737 	-0.192566 	-1.57824e-20 5.6874 	-0.195989 	-1.26878e-20 5.68671 	-0.199469 	-7.81662e-21 5.68578 	-0.202961 	-2.50623e-21 5.68598 	-0.206809 	-1.80068e-21 5.68593 	-0.210691 	-4.3621e-22 5.68554 	-0.214627 	1.93415e-21 5.68464 	-0.218594 	3.21515e-21 5.68322 	-0.222597 	3.34943e-21 5.68302 	-0.226946 	3.5395e-21 5.68238 	-0.231359 	1.36702e-21 5.6815 	-0.235798 	-1.84804e-21 5.68039 	-0.240243 	-5.06142e-21 5.67841 	-0.244744 	-8.26536e-21 5.67772 	-0.24959 	-5.08608e-21 5.67638 	-0.254524 	-7.13266e-21 5.67493 	-0.259455 	-9.18748e-21 5.67336 	-0.264381 	-1.12505e-20 5.671 	-0.26935 	-1.66956e-20 5.66955 	-0.274711 	-2.59632e-20 5.66759 	-0.280122 	-1.72046e-20 5.66551 	-0.285529 	-8.39698e-21 5.66329 	-0.290931 	4.59707e-22 5.66068 	-0.296347 	1.3595e-20 5.65944 	-0.299602 	9.34483e-21 5.658 	-0.302875 	1.11345e-20 5.65652 	-0.306146 	1.29455e-20 5.65499 	-0.309415 	1.47779e-20 5.65361 	-0.312295 	1.64113e-20 5.65238 	-0.314952 	1.84589e-20 5.65113 	-0.317608 	2.05258e-20 5.64986 	-0.320263 	2.26118e-20 