/*--------------------------------*- C++ -*----------------------------------*\
| =========                 |                                                 |
| \\      /  F ield         | OpenFOAM: The Open Source CFD Toolbox           |
|  \\    /   O peration     | Version:  4.1                                   |
|   \\  /    A nd           | Web:      www.OpenFOAM.org                      |
|    \\/     M anipulation  |                                                 |
\*---------------------------------------------------------------------------*/
FoamFile
{
    version     2.0;
    format      ascii;
    class       volVectorField;
    location    "2";
    object      U;
}
// * * * * * * * * * * * * * * * * * * * * * * * * * * * * * * * * * * * * * //

dimensions      [0 1 -1 0 0 0 0];

internalField   nonuniform List<vector> 
26785
(
(2.31159e-15 -0.0392336 9.77915)
(2.22053e-15 -0.039601 10.8911)
(2.28032e-15 -0.0325757 12.0469)
(2.71477e-15 -0.0145325 12.892)
(2.86314e-15 0.0130727 13.0622)
(4.80173e-16 0.0359425 12.4793)
(5.31484e-16 0.048549 11.6225)
(8.39899e-16 0.0693482 10.5181)
(2.8968e-15 0.100227 8.87992)
(-2.45032e-15 0.178588 6.78936)
(7.20122e-16 0.1589 1.94303)
(1.84329e-15 0.0398128 -0.325898)
(1.71408e-15 -0.0140143 -0.214809)
(1.81702e-15 0.00125587 -0.398693)
(2.6789e-15 0.00891796 -0.763694)
(2.89654e-15 0.0121454 -0.788088)
(1.78539e-15 0.00801623 -0.497515)
(-4.6795e-16 0.0276673 -0.323425)
(-1.30821e-15 0.0446125 -0.353837)
(3.15642e-15 0.0423009 -0.685739)
(-1.88285e-15 0.0427836 -0.733598)
(-3.67897e-15 0.024346 -0.525625)
(3.2517e-16 0.0332418 -0.680499)
(-5.87677e-17 0.0375078 -1.29931)
(-1.44966e-15 0.0163468 -1.55517)
(-1.86662e-16 -0.0161474 -1.44033)
(-1.40258e-15 -0.0231334 -0.999563)
(-3.54858e-15 -0.00508945 -0.70919)
(-5.1175e-15 0.0232126 -0.678495)
(-3.02678e-15 0.00470088 -1.19784)
(-2.47492e-15 0.00167608 -1.15552)
(9.58427e-16 -0.00182735 -1.22275)
(-1.80679e-15 -0.00525117 -1.27247)
(1.67874e-15 -0.0121078 -1.1691)
(-4.89879e-15 -0.0040219 -0.998575)
(-1.04107e-15 0.00347929 -1.06542)
(-1.1704e-15 -0.00263069 -1.1729)
(-1.2979e-15 -0.00805103 -1.17101)
(-1.02189e-15 -0.0068105 -1.12298)
(-1.36215e-15 -0.00254334 -1.1202)
(-1.33414e-15 -0.00153848 -1.15246)
(3.17651e-16 -0.00298456 -1.17482)
(6.59214e-17 -0.00592548 -1.16278)
(-1.74151e-16 -0.00716841 -1.12432)
(-8.9016e-16 -0.00653325 -1.07851)
(-1.24028e-15 -0.00702867 -1.03788)
(-1.87618e-15 -0.00672607 -1.02354)
(-1.65986e-15 -0.00241766 -1.01129)
(-1.8662e-15 -0.00544355 -0.992845)
(-2.17773e-15 -0.00563924 -0.952569)
(-3.91579e-16 -0.00725324 -0.896202)
(-8.81171e-16 -0.0045279 -0.846238)
(-1.3076e-15 -0.00614388 -0.798965)
(-1.31551e-15 -0.0054072 -0.750954)
(-1.18084e-15 -0.00625055 -0.696618)
(-8.39656e-16 -0.00430621 -0.646342)
(-3.27733e-16 -0.00513378 -0.59155)
(-1.5486e-15 -0.00549309 -0.533319)
(-4.26148e-16 -0.00862468 -0.466767)
(4.58475e-16 -0.00907184 -0.394028)
(-5.45641e-16 -0.00722475 -0.337826)
(-6.43776e-16 -0.00272386 -0.29636)
(-1.12115e-15 -0.00260028 -0.279832)
(-5.81005e-16 -0.00527618 -0.242131)
(-4.15842e-16 -0.008563 -0.197799)
(-4.12802e-16 -0.0103869 -0.107423)
(-4.27654e-16 -0.00758242 -0.0388648)
(-3.90044e-16 -0.00423735 0.0138478)
(1.79999e-16 -0.00176831 0.0466364)
(5.91602e-16 0.000140432 0.0758766)
(1.2572e-16 0.00286383 0.0982861)
(2.04426e-16 0.00588843 0.102611)
(4.32242e-16 0.00469185 0.0938956)
(4.98089e-16 0.00230021 0.099075)
(7.04324e-16 0.00353697 0.103941)
(1.40405e-15 0.00464431 0.0969853)
(5.18182e-16 0.00443369 0.0770981)
(5.57499e-16 0.00320442 0.0593397)
(3.6122e-16 -0.00171896 0.0567725)
(1.85445e-16 -0.00781951 0.0834593)
(2.72658e-16 -0.00857957 0.12436)
(1.69502e-16 -0.00743263 0.163783)
(1.36632e-16 -0.00754726 0.200024)
(1.45436e-16 -0.00774497 0.235455)
(-5.12935e-16 -0.00838788 0.272564)
(3.20785e-16 -0.00985207 0.314456)
(1.81756e-16 -0.010347 0.357953)
(3.96708e-16 -0.00988402 0.399814)
(-5.78217e-17 -0.00937556 0.439452)
(5.52944e-16 -0.00923649 0.477845)
(5.30912e-16 -0.00857058 0.513829)
(5.40608e-16 -0.00698959 0.545613)
(6.38491e-16 -0.00511014 0.570216)
(6.6669e-16 -0.00385895 0.591034)
(6.86861e-16 -0.00254838 0.606976)
(-3.02549e-17 -0.000908181 0.617182)
(5.70079e-16 0.000398151 0.61684)
(5.35847e-16 0.00139291 0.621424)
(4.9543e-16 0.00460778 0.597763)
(4.03415e-16 0.000629466 0.593179)
(3.19243e-15 -0.130521 11.7076)
(6.83412e-16 -0.156396 13.0081)
(2.43183e-15 -0.14215 13.9925)
(2.87896e-15 -0.0728735 14.4443)
(4.16172e-15 0.0341085 14.3588)
(8.66007e-16 0.113434 13.8882)
(5.50082e-15 0.158783 13.2754)
(2.12945e-15 0.227863 12.3189)
(-1.34953e-15 0.320003 11.0349)
(1.05258e-15 0.497337 9.82685)
(9.41254e-16 0.510323 7.68595)
(8.72792e-16 0.251542 6.39178)
(1.3537e-15 0.0866873 5.95393)
(-4.23166e-16 0.0995908 5.10163)
(1.05493e-14 0.109245 4.61237)
(2.85193e-15 0.0724294 3.66466)
(-7.84506e-15 0.0724136 1.09303)
(1.15542e-15 0.0355118 0.285489)
(4.19737e-16 0.115753 -0.146005)
(-1.04309e-14 0.172984 -1.22122)
(2.12998e-14 0.106195 -3.3497)
(-1.10343e-14 0.0354065 -4.03873)
(5.049e-15 -0.00362168 -2.35693)
(-1.75008e-15 -0.0185057 -1.65194)
(3.30919e-16 0.00535062 -0.875086)
(-2.79949e-15 -0.012813 -0.685745)
(-4.4451e-16 -0.09195 -1.32066)
(-7.08372e-16 -0.0883821 -2.29627)
(-9.04173e-16 -0.0823929 1.02196)
(-1.21569e-14 -0.0632877 1.15103)
(7.32638e-15 0.0974989 0.490544)
(-8.3289e-16 0.0821368 0.17034)
(1.60128e-16 -0.0616335 0.314378)
(8.01932e-17 -0.159028 0.267546)
(-1.28525e-14 0.0112901 0.409443)
(-2.18269e-15 0.0767688 0.106882)
(-1.49349e-15 0.0137611 -0.234248)
(-1.71469e-15 -0.0373806 -0.323067)
(-1.99492e-15 -0.0279358 -0.294491)
(-2.03653e-15 0.00575393 -0.389994)
(-1.78333e-15 0.0115146 -0.550119)
(3.05802e-15 0.000978958 -0.673066)
(-2.47411e-15 -0.0179429 -0.716173)
(3.35758e-15 -0.0245053 -0.703675)
(1.23945e-15 -0.0212685 -0.679307)
(8.37074e-16 -0.0257335 -0.665492)
(9.16144e-16 -0.0216144 -0.684041)
(4.28624e-16 -0.000348 -0.694466)
(-9.1789e-16 -0.0159024 -0.712776)
(5.98254e-16 -0.0203052 -0.68381)
(-2.91468e-16 -0.0275412 -0.619568)
(-1.87893e-15 -0.0139426 -0.553691)
(-1.00604e-16 -0.017973 -0.502676)
(-1.95104e-15 -0.0134284 -0.468146)
(-1.87462e-15 -0.0198314 -0.421465)
(1.39965e-15 -0.0155143 -0.37228)
(1.59909e-15 -0.020556 -0.310263)
(-3.36933e-15 -0.0167959 -0.260225)
(-1.96704e-15 -0.0236152 -0.206142)
(-2.64812e-16 -0.0196116 -0.175893)
(4.14607e-16 -0.019609 -0.155749)
(1.63439e-16 -0.01096 -0.0912919)
(-3.87926e-15 -0.00617894 -0.0550707)
(-2.56383e-15 -0.00153187 -0.0526669)
(1.29203e-16 -0.00699655 -0.0795487)
(-6.08209e-16 -0.010398 -0.114671)
(-1.17774e-15 -0.0122543 -0.155619)
(-1.30055e-15 -0.0116937 -0.10079)
(-1.10779e-15 -0.0118311 -0.0744696)
(1.18147e-17 -0.0121567 -0.0304034)
(-6.07856e-16 -0.00893467 0.00746074)
(-3.61425e-16 -0.00290832 0.0661052)
(-2.68865e-16 -0.00245039 0.113703)
(-7.09367e-16 -0.00583873 0.157207)
(-5.90873e-16 -0.00256272 0.202988)
(-6.07953e-16 0.00228256 0.252536)
(4.71373e-16 0.00324188 0.302699)
(4.58457e-16 -0.000176022 0.364504)
(-8.04294e-16 -0.00726927 0.427033)
(-4.57051e-16 -0.0165933 0.478806)
(-3.82334e-16 -0.0205945 0.528632)
(-5.82408e-16 -0.0207417 0.582435)
(-2.14874e-16 -0.0202008 0.635306)
(2.98401e-16 -0.0209368 0.688047)
(2.74258e-16 -0.0224872 0.740758)
(-4.18202e-16 -0.0242042 0.791972)
(-1.10204e-15 -0.0243772 0.840229)
(-2.73051e-16 -0.0236104 0.885068)
(1.11052e-15 -0.0224573 0.926167)
(3.99489e-16 -0.0211388 0.961773)
(1.14818e-16 -0.0190776 0.989937)
(3.20495e-16 -0.0167377 1.01279)
(6.44537e-16 -0.0143171 1.0314)
(-5.74529e-16 -0.0116276 1.04413)
(2.72942e-16 -0.00807484 1.04678)
(5.65759e-16 -0.0039199 1.04271)
(2.31324e-16 -8.88407e-05 1.03236)
(4.23531e-16 0.00330385 1.02322)
(5.28591e-16 0.0111354 0.996843)
(4.56394e-16 0.00395694 0.987232)
(2.89859e-15 -0.208037 13.69)
(5.92346e-15 -0.22823 14.8103)
(5.51248e-15 -0.178263 15.5092)
(5.04941e-15 -0.068815 15.752)
(5.1514e-15 0.0643621 15.7307)
(9.66693e-16 0.158757 15.5789)
(6.45705e-15 0.227549 15.3001)
(2.9269e-15 0.336183 14.6247)
(1.71284e-15 0.464749 13.5818)
(2.10155e-15 0.677512 12.2458)
(1.63923e-15 0.711922 10.4269)
(1.07859e-15 0.43239 8.79972)
(1.16662e-15 0.261307 7.1592)
(5.40278e-16 0.262149 5.43802)
(2.4517e-15 0.291226 4.17503)
(7.16951e-15 0.283655 2.63454)
(-5.40483e-15 0.248207 1.10252)
(8.99864e-15 0.17231 0.684906)
(-3.6491e-15 0.191456 0.469775)
(5.86977e-15 0.21492 0.769853)
(-9.14657e-16 0.156918 0.998353)
(-1.08973e-14 0.035725 1.05961)
(3.40465e-15 -0.0484873 1.55919)
(4.79309e-15 -0.0487846 1.63519)
(7.92751e-16 -0.0262679 1.39032)
(-4.45809e-16 0.0118708 2.0155)
(-5.04233e-15 0.0466527 2.06435)
(-4.0695e-15 -0.0455177 1.25056)
(-1.941e-15 -0.224616 2.35199)
(-3.44598e-15 -0.104654 2.29154)
(-3.56914e-16 0.204196 1.56058)
(1.54949e-14 0.227331 1.26115)
(-2.20049e-14 -0.128811 1.94577)
(-1.60889e-14 -0.232239 0.725276)
(9.26253e-17 0.0864058 0.559286)
(-7.52767e-16 0.16576 0.368184)
(-3.88135e-16 0.040621 0.12153)
(-3.61842e-16 -0.0528672 0.00390723)
(-3.74623e-16 -0.03164 -0.0144763)
(-4.87247e-16 0.0338902 -0.145886)
(1.91171e-17 0.0381098 -0.323917)
(3.94075e-16 0.0143186 -0.431657)
(-1.48271e-16 -0.0236386 -0.447419)
(-1.08363e-15 -0.0354248 -0.392505)
(-1.19654e-15 -0.024365 -0.351977)
(-1.19287e-15 -0.0337557 -0.362113)
(-7.73421e-16 -0.0316441 -0.376691)
(4.26912e-16 0.00145197 -0.303265)
(1.31046e-15 -0.0156501 -0.300905)
(1.43984e-15 -0.024603 -0.289196)
(6.51869e-16 -0.0466365 -0.238339)
(2.61073e-16 -0.0364275 -0.130538)
(-6.59289e-16 -0.038252 -0.00356659)
(-1.56289e-15 -0.0278341 0.0838447)
(-2.97905e-16 -0.0289717 0.17671)
(1.13378e-15 -0.0171767 0.214863)
(7.34638e-16 -0.0222985 0.200215)
(-1.35233e-15 -0.0221749 0.192994)
(-1.4718e-15 -0.0252432 0.200213)
(-2.79723e-15 -0.0210611 0.209688)
(-1.69772e-15 -0.0208131 0.247411)
(-1.31279e-15 -0.0179025 0.319232)
(-1.25516e-15 -0.0140588 0.395399)
(-1.32995e-15 -0.0119998 0.461731)
(-6.04899e-16 -0.0143674 0.522622)
(-7.43861e-16 -0.0173576 0.576304)
(-1.35094e-15 -0.0195296 0.616902)
(-1.39398e-15 -0.0192615 0.643235)
(-1.14238e-15 -0.0172873 0.656603)
(-9.68436e-16 -0.0151553 0.667044)
(-8.48576e-16 -0.013624 0.681917)
(-7.84937e-16 -0.0132259 0.703491)
(-9.29766e-16 -0.0139966 0.730302)
(-1.28864e-15 -0.015871 0.762741)
(-1.09757e-15 -0.0158556 0.798206)
(-8.60189e-16 -0.0148758 0.836244)
(-8.81916e-16 -0.0170197 0.884195)
(-9.59008e-16 -0.0223234 0.940133)
(-9.61311e-16 -0.0275541 0.989)
(-9.05541e-16 -0.0325173 1.03165)
(-9.73731e-16 -0.0359639 1.07409)
(-8.60932e-16 -0.0366607 1.11501)
(-1.1109e-15 -0.0361192 1.1552)
(-8.54776e-16 -0.0362898 1.1958)
(-8.70583e-16 -0.0371467 1.23492)
(-8.31828e-16 -0.0377551 1.27063)
(-7.92916e-16 -0.03689 1.30121)
(-7.20217e-16 -0.034746 1.32704)
(-3.62258e-16 -0.0317394 1.3482)
(-6.60281e-16 -0.0279215 1.36335)
(-4.06894e-16 -0.0234738 1.37315)
(-2.7429e-16 -0.018462 1.37812)
(-6.45878e-16 -0.0125705 1.37438)
(-1.53458e-17 -0.00581949 1.36256)
(1.86298e-16 0.00107335 1.34511)
(2.39679e-16 0.00718642 1.32526)
(2.48292e-16 0.0120254 1.30362)
(2.51201e-16 0.0156465 1.28922)
(2.60763e-16 0.0217597 1.26612)
(1.34894e-16 0.0086946 1.27812)
(3.11467e-15 -0.27439 15.0235)
(4.60638e-15 -0.286491 15.8121)
(5.61486e-15 -0.211043 16.3192)
(7.61726e-15 -0.0816203 16.6003)
(3.93937e-15 0.0630409 16.7805)
(6.78445e-15 0.172527 16.8683)
(4.37447e-15 0.277892 16.6959)
(2.23187e-15 0.442243 16.0583)
(2.2835e-15 0.626393 14.9155)
(2.1498e-15 0.868367 13.3575)
(1.7846e-15 0.896123 11.5272)
(1.41332e-15 0.652168 9.58081)
(2.05013e-15 0.484612 7.82434)
(-1.0357e-16 0.433639 6.48649)
(-9.60033e-16 0.40311 5.65445)
(3.83391e-16 0.381225 5.11728)
(8.33036e-16 0.332436 4.38209)
(-3.67136e-15 0.247541 4.02392)
(3.37978e-15 0.208266 3.91265)
(1.33282e-15 0.224393 3.89584)
(-1.12999e-15 0.199535 3.918)
(-3.85189e-15 0.0456113 3.84241)
(7.47095e-16 -0.060372 3.87242)
(1.98202e-15 -0.0140762 3.66068)
(1.29207e-15 -0.00657589 3.11052)
(1.24394e-15 -0.0313234 3.42573)
(-2.61634e-15 0.086227 3.52215)
(-3.17228e-15 -0.00271678 2.86533)
(-2.56796e-15 -0.231206 3.26911)
(-2.10319e-15 -0.0749572 2.8371)
(3.63018e-15 0.311609 2.00141)
(1.00114e-14 0.306551 1.80737)
(-2.8385e-15 -0.13436 2.68249)
(-1.69743e-17 -0.164488 1.34842)
(-1.64986e-15 0.17959 0.620855)
(2.61087e-14 0.217914 0.726219)
(-3.09662e-14 0.0506612 0.96445)
(-3.63185e-16 -0.0591791 0.664403)
(1.00995e-14 -0.0209793 0.415154)
(-5.67642e-15 0.0753978 0.219722)
(2.44528e-16 0.0760007 -0.00527725)
(1.22244e-14 0.0346919 -0.148557)
(6.98908e-15 -0.0298724 -0.0701633)
(-6.79089e-15 -0.0507548 0.109934)
(-1.89254e-15 -0.0207434 0.243665)
(-3.1613e-15 -0.0359584 0.147293)
(-4.3784e-15 -0.0568122 0.0683815)
(-3.5186e-16 -0.0295616 0.247507)
(2.49141e-15 -0.0438836 0.457592)
(-4.73024e-15 -0.0314528 0.553574)
(2.32098e-15 -0.0472851 0.354976)
(1.78826e-15 -0.0419281 0.281378)
(4.22678e-16 -0.0465198 0.308773)
(-4.58425e-15 -0.0433682 0.354453)
(-1.02596e-15 -0.0404449 0.41262)
(-8.70759e-16 -0.0340476 0.477475)
(1.33887e-15 -0.0316637 0.547665)
(-1.75682e-15 -0.031309 0.607132)
(-8.13289e-16 -0.0315958 0.655768)
(-1.50791e-15 -0.0305245 0.697354)
(-6.75935e-16 -0.0318004 0.740078)
(-1.54126e-15 -0.0309947 0.785638)
(-1.03669e-15 -0.0265048 0.834788)
(-9.46317e-16 -0.022204 0.885715)
(-9.11824e-16 -0.0209452 0.936551)
(-1.27156e-15 -0.0209616 0.982003)
(-1.00309e-15 -0.0209435 1.01926)
(-8.47173e-16 -0.0196411 1.04946)
(-8.45767e-16 -0.0173987 1.07502)
(-1.04378e-15 -0.0161295 1.10149)
(-1.11972e-15 -0.01639 1.13377)
(-1.16235e-15 -0.0176885 1.16914)
(-1.06811e-15 -0.0196468 1.20498)
(-1.6006e-15 -0.0220862 1.24328)
(-1.43251e-15 -0.0231712 1.2824)
(-1.50962e-15 -0.0241091 1.32286)
(-1.49766e-15 -0.0277468 1.36882)
(-1.30512e-15 -0.0328942 1.41424)
(-1.51249e-15 -0.0372162 1.45217)
(-1.45012e-15 -0.0413095 1.48839)
(-1.50319e-15 -0.0441339 1.52441)
(-1.58082e-15 -0.0446519 1.55666)
(-1.45377e-15 -0.0442476 1.58752)
(-1.62443e-15 -0.0442085 1.61791)
(-1.42854e-15 -0.0440508 1.64473)
(-1.56039e-15 -0.0427918 1.66569)
(-1.12668e-15 -0.0398233 1.68023)
(-1.21907e-15 -0.035566 1.68843)
(-1.04842e-15 -0.0303762 1.6901)
(-1.33196e-15 -0.0244296 1.68606)
(-5.32884e-16 -0.0178817 1.67698)
(-6.15376e-16 -0.0104615 1.66312)
(-9.55834e-16 -0.00234572 1.6451)
(-4.88409e-16 0.00540683 1.62642)
(-3.85938e-16 0.0120685 1.60935)
(-4.63257e-18 0.0171164 1.59683)
(-3.45614e-16 0.0200318 1.58814)
(2.19511e-19 0.0212986 1.5897)
(-3.7159e-16 0.0226655 1.58801)
(-5.02256e-16 0.00619935 1.62811)
(2.44866e-15 -0.318025 15.4232)
(3.79023e-15 -0.330362 15.7648)
(2.63652e-15 -0.250261 16.1014)
(6.20587e-15 -0.116382 16.4491)
(3.38759e-15 0.0401211 16.823)
(1.02395e-15 0.174132 17.0788)
(4.53507e-15 0.322753 16.9989)
(3.70501e-15 0.542798 16.4979)
(2.74391e-15 0.783669 15.5717)
(2.00008e-15 1.05696 14.395)
(1.82367e-15 1.11197 13.1319)
(2.01026e-15 0.895442 11.7901)
(1.60611e-15 0.703969 10.6358)
(-1.35815e-16 0.61851 9.76742)
(-1.10656e-15 0.570423 9.16676)
(1.97553e-15 0.541004 8.72039)
(1.38179e-15 0.476026 8.1617)
(2.11947e-16 0.370405 7.76898)
(-1.78421e-16 0.305887 7.40731)
(1.11977e-16 0.303679 7.05373)
(-8.81549e-16 0.276128 6.78569)
(-3.11181e-15 0.122861 6.46025)
(-2.18477e-16 0.016964 6.16683)
(5.53539e-16 0.0923176 5.74781)
(7.55276e-16 0.0785781 4.93893)
(2.1568e-15 -0.0167223 4.89405)
(-1.83637e-15 0.141694 4.59945)
(-2.18388e-15 0.0974223 4.05534)
(-1.49403e-15 -0.178579 4.02247)
(-2.0845e-15 0.0176605 3.31462)
(-1.71034e-15 0.410625 2.25957)
(-4.29467e-15 0.293205 2.62959)
(-4.12525e-15 -0.111675 3.14654)
(6.46079e-15 -0.0264702 2.07557)
(-1.01167e-14 0.257484 0.645261)
(1.83848e-15 0.131909 1.34544)
(3.31107e-15 -0.0240588 2.70662)
(8.11689e-16 -0.0509429 2.56766)
(2.08904e-15 0.0511215 1.46441)
(3.01174e-15 0.134527 1.25329)
(5.39946e-15 0.106635 1.23069)
(1.25771e-14 0.0167333 1.18546)
(-8.55938e-15 -0.113833 1.53747)
(2.77642e-15 -0.206484 1.71233)
(2.21383e-15 -0.0931717 2.08372)
(1.39984e-15 -0.0221426 1.64964)
(1.58812e-15 -0.032984 0.773217)
(1.51409e-15 -0.0293378 0.464003)
(5.60785e-16 -0.0328997 0.351946)
(1.67985e-15 -0.0250426 0.354275)
(7.63045e-16 -0.0331225 0.416318)
(2.6793e-15 -0.0461689 0.496954)
(-5.02942e-16 -0.0559024 0.579574)
(-9.14038e-16 -0.0564661 0.6577)
(-9.14758e-16 -0.0525983 0.737289)
(-2.70104e-15 -0.0458766 0.816818)
(-8.42721e-16 -0.0418122 0.896409)
(-9.89332e-16 -0.0400298 0.967711)
(-4.9188e-16 -0.0388828 1.03031)
(-4.05647e-16 -0.0379752 1.08557)
(9.83647e-17 -0.0390742 1.13667)
(-5.66159e-16 -0.0388175 1.18408)
(-8.85435e-16 -0.035437 1.23098)
(-9.05549e-16 -0.031669 1.27801)
(-1.08089e-15 -0.0295486 1.32418)
(-5.35762e-16 -0.028033 1.36605)
(-6.26078e-16 -0.0263335 1.40312)
(-7.58582e-16 -0.0241543 1.43718)
(-1.00365e-15 -0.0220843 1.47082)
(-8.85886e-16 -0.0216575 1.50665)
(-1.02997e-15 -0.0229337 1.54552)
(-1.22351e-15 -0.0246556 1.58496)
(-1.46761e-15 -0.0266193 1.62401)
(-1.57013e-15 -0.029006 1.66343)
(-1.56833e-15 -0.0305858 1.70252)
(-1.58564e-15 -0.032377 1.74236)
(-1.64648e-15 -0.035989 1.78325)
(-1.35302e-15 -0.0399272 1.82103)
(-1.61729e-15 -0.0432312 1.85449)
(-1.38488e-15 -0.0467372 1.88627)
(-1.40388e-15 -0.0489919 1.9152)
(-1.86305e-15 -0.0489211 1.93991)
(-1.53901e-15 -0.0479421 1.96166)
(-1.68277e-15 -0.046779 1.97963)
(-1.69705e-15 -0.0447608 1.99204)
(-1.45086e-15 -0.0413209 1.99875)
(-1.34998e-15 -0.0362248 1.99998)
(-1.26927e-15 -0.0298414 1.99636)
(-1.24705e-15 -0.0227751 1.98865)
(-7.84064e-16 -0.01535 1.97782)
(-9.12698e-16 -0.00765049 1.96481)
(-9.11901e-16 0.000322834 1.95072)
(-9.34595e-16 0.00811407 1.93791)
(-9.08223e-16 0.0147735 1.92877)
(-8.82308e-16 0.0196211 1.92494)
(-7.63176e-16 0.0224486 1.92786)
(-7.82163e-16 0.0226896 1.93739)
(-9.29717e-16 0.0209825 1.95699)
(-1.07404e-15 0.0173529 1.97463)
(-9.93561e-16 0.000508867 2.02981)
(1.19551e-15 -0.336162 14.9226)
(2.16365e-15 -0.363103 14.8242)
(7.35301e-16 -0.299296 14.9347)
(5.87186e-16 -0.176188 15.2542)
(2.15118e-15 -0.0162908 15.779)
(2.48624e-15 0.142639 16.2584)
(4.11765e-15 0.332893 16.4726)
(4.78014e-15 0.60089 16.3382)
(2.99841e-15 0.886961 15.8596)
(1.13175e-15 1.18135 15.189)
(2.03687e-15 1.25886 14.4836)
(2.23817e-15 1.06999 13.7085)
(1.07259e-15 0.870002 12.9577)
(8.28398e-16 0.762784 12.3147)
(6.66322e-16 0.699355 11.7984)
(5.35538e-16 0.664435 11.3543)
(5.04813e-16 0.598414 10.8542)
(3.28512e-15 0.494589 10.3977)
(1.20777e-15 0.425734 9.89582)
(-2.39017e-15 0.40983 9.37365)
(-2.0955e-15 0.378338 8.93374)
(2.33007e-17 0.228242 8.43735)
(-1.7486e-15 0.131989 7.99099)
(1.9323e-15 0.236022 7.32707)
(3.58569e-15 0.200135 6.39498)
(-1.08917e-16 0.0614115 6.14608)
(-3.16102e-16 0.233447 5.47058)
(1.33974e-15 0.198006 4.91712)
(6.539e-16 -0.0920014 4.68281)
(-4.40095e-15 0.16732 3.68908)
(-1.39283e-15 0.484675 2.45397)
(-6.52768e-15 0.232684 3.77167)
(-5.04871e-15 -0.0234579 3.80575)
(-3.03023e-15 0.194228 2.50724)
(5.02754e-15 0.281354 0.842628)
(-4.0132e-15 -0.0438051 2.5318)
(3.51414e-15 -0.0895111 2.54083)
(2.31161e-15 0.0468128 2.28853)
(1.11508e-15 0.148471 1.47479)
(1.20435e-15 0.106744 1.33178)
(-7.01462e-15 -0.00378143 1.71434)
(-9.95296e-15 -0.182022 2.68622)
(1.16231e-14 -0.246598 3.93309)
(9.08165e-15 -0.0435368 1.5774)
(4.78086e-15 0.0768031 0.61859)
(2.39231e-15 0.0943667 0.358356)
(1.43522e-15 0.0459797 0.333143)
(5.87097e-16 -0.00645736 0.398924)
(2.10228e-16 -0.0352331 0.480736)
(-1.00703e-15 -0.0431715 0.578652)
(-1.82094e-15 -0.0526765 0.686942)
(-2.66471e-15 -0.0652191 0.790489)
(-2.77293e-15 -0.0732241 0.884939)
(-2.54428e-15 -0.0736125 0.970365)
(-2.00317e-15 -0.0690115 1.05367)
(-1.64696e-15 -0.0623625 1.13459)
(-1.38696e-15 -0.0568395 1.21381)
(-1.4154e-15 -0.0531503 1.28636)
(-1.02997e-15 -0.0500649 1.35227)
(-8.27026e-16 -0.0478814 1.41196)
(-8.07904e-16 -0.0473567 1.46693)
(-1.35314e-15 -0.0462881 1.5172)
(-1.13931e-15 -0.0431543 1.56555)
(-1.08193e-15 -0.0395518 1.61278)
(-7.79986e-16 -0.0367792 1.65865)
(-7.72551e-16 -0.0343342 1.70137)
(-8.38941e-16 -0.0318555 1.74155)
(-7.89603e-16 -0.0294822 1.78061)
(-9.16169e-16 -0.0279402 1.82019)
(-9.32031e-16 -0.028153 1.86116)
(-1.05047e-15 -0.0297299 1.90303)
(-1.17698e-15 -0.0315272 1.94424)
(-1.13106e-15 -0.0335456 1.98462)
(-1.12425e-15 -0.0358766 2.02428)
(-1.16854e-15 -0.0376909 2.06285)
(-1.25952e-15 -0.0396185 2.10092)
(-1.17131e-15 -0.0426502 2.13773)
(-1.25134e-15 -0.0457717 2.17097)
(-1.20489e-15 -0.0483231 2.20047)
(-1.07599e-15 -0.0506318 2.22667)
(-1.0715e-15 -0.0515933 2.24837)
(-1.15819e-15 -0.050399 2.26548)
(-1.01831e-15 -0.0480283 2.27886)
(-6.4294e-16 -0.0451188 2.28817)
(-1.06268e-15 -0.0413422 2.29272)
(-1.36308e-15 -0.0362797 2.29284)
(-1.08982e-15 -0.0297986 2.28938)
(-1.12571e-15 -0.0222678 2.28327)
(-1.08155e-15 -0.0142592 2.27548)
(-1.13864e-15 -0.00619183 2.26704)
(-8.97184e-16 0.00166709 2.2594)
(-1.07681e-15 0.00905856 2.25443)
(-1.43013e-15 0.0153887 2.25408)
(-1.28074e-15 0.0199271 2.25986)
(-1.01485e-15 0.0222213 2.27245)
(-1.10798e-15 0.0222359 2.292)
(-1.26268e-15 0.0196902 2.31778)
(-1.27871e-15 0.0155029 2.35074)
(-1.19726e-15 0.00840583 2.38063)
(-1.13757e-15 -0.00675237 2.44033)
(7.56325e-16 -0.322709 14.2201)
(-9.19951e-17 -0.371553 13.7354)
(2.45884e-15 -0.343594 13.5416)
(2.5043e-15 -0.251335 13.7115)
(1.28481e-15 -0.10979 14.2413)
(-7.13343e-16 0.0629334 14.8876)
(2.06457e-15 0.286633 15.4336)
(3.08855e-15 0.597648 15.727)
(2.02288e-15 0.924858 15.719)
(9.80101e-16 1.23796 15.5159)
(2.73517e-15 1.33305 15.2437)
(2.06712e-15 1.17246 14.8672)
(1.4204e-15 0.981419 14.4099)
(1.29436e-15 0.868965 13.9333)
(6.62593e-16 0.800308 13.4912)
(2.56804e-15 0.764469 13.0729)
(2.20544e-15 0.704188 12.5921)
(-9.74212e-17 0.612931 12.0935)
(3.77905e-16 0.548149 11.5223)
(-1.47951e-15 0.521014 10.9449)
(2.21417e-15 0.490641 10.4488)
(8.42934e-16 0.349509 9.83892)
(-6.77828e-16 0.267489 9.24482)
(1.73439e-15 0.392976 8.41292)
(2.07005e-15 0.336878 7.47967)
(8.85405e-16 0.177562 7.04846)
(2.70055e-15 0.35458 6.11821)
(-2.24715e-15 0.297567 5.54611)
(2.35787e-16 0.0512822 5.40291)
(-2.77319e-15 0.353982 4.03371)
(-1.79876e-15 0.522071 2.99449)
(-1.72711e-16 0.158667 4.43015)
(-2.82301e-16 0.0692901 4.19224)
(-2.91467e-15 0.40628 2.9591)
(-3.08554e-15 0.369752 1.66521)
(-1.82287e-15 0.0697018 2.04769)
(1.94608e-15 -0.0490247 2.41616)
(3.79224e-15 0.0694815 2.44653)
(2.01345e-15 0.203179 2.10791)
(1.47185e-15 0.121677 1.81716)
(8.55486e-15 -0.0851194 1.76137)
(1.11965e-14 -0.198627 1.84225)
(-2.69928e-15 0.0515445 0.831078)
(7.70239e-15 0.16348 0.353797)
(3.63104e-15 0.120179 0.361151)
(1.72341e-15 0.0786069 0.433195)
(9.81845e-16 0.0220605 0.52732)
(-3.70488e-16 -0.0293469 0.635928)
(2.74662e-15 -0.0568192 0.742437)
(-7.83831e-16 -0.0674985 0.851557)
(-3.1893e-15 -0.0758861 0.963123)
(-2.30979e-15 -0.0858197 1.06759)
(-3.21021e-15 -0.0913007 1.16261)
(-2.29258e-15 -0.0907471 1.24869)
(-1.87267e-15 -0.0854143 1.33173)
(-1.67097e-15 -0.0784512 1.41167)
(-1.33617e-15 -0.071795 1.48934)
(-2.19252e-15 -0.0666064 1.5614)
(-1.41499e-15 -0.0620094 1.62819)
(-1.23157e-15 -0.0585588 1.68971)
(-1.29556e-15 -0.0565507 1.74684)
(-1.22326e-15 -0.0545138 1.79942)
(-1.10621e-15 -0.0512168 1.84969)
(-1.36066e-15 -0.0475255 1.8983)
(-1.2628e-15 -0.0442668 1.94552)
(-1.38166e-15 -0.0412541 1.99055)
(-1.24318e-15 -0.0384095 2.03426)
(-1.06538e-15 -0.0360916 2.07755)
(-1.07838e-15 -0.0349102 2.12129)
(-1.08271e-15 -0.0353131 2.1655)
(-1.23153e-15 -0.0368333 2.20938)
(-1.27683e-15 -0.03855 2.25198)
(-1.16915e-15 -0.0404103 2.29329)
(-1.2151e-15 -0.0423913 2.33317)
(-1.25502e-15 -0.0439818 2.37127)
(-1.25415e-15 -0.0455993 2.40772)
(-1.25119e-15 -0.0477893 2.44176)
(-1.26691e-15 -0.0497671 2.47197)
(-1.05681e-15 -0.0511177 2.49822)
(-1.12183e-15 -0.0519646 2.52062)
(-1.04091e-15 -0.0514235 2.53848)
(-1.13461e-15 -0.0489404 2.55212)
(-1.05747e-15 -0.0453219 2.56241)
(-7.29288e-16 -0.041021 2.56932)
(-1.1596e-15 -0.0357933 2.57263)
(-1.18976e-15 -0.0294742 2.57283)
(-1.2704e-15 -0.0221211 2.57096)
(-1.36838e-15 -0.0141409 2.56844)
(-1.14192e-15 -0.00614567 2.56676)
(-1.37884e-15 0.00138385 2.5673)
(-1.31168e-15 0.00810252 2.57133)
(-1.46093e-15 0.013729 2.58009)
(-1.54086e-15 0.0178328 2.59451)
(-1.51416e-15 0.0199574 2.61495)
(-1.45681e-15 0.0198697 2.64111)
(-1.19824e-15 0.0177118 2.67218)
(-1.20544e-15 0.0133072 2.70704)
(-1.1292e-15 0.00773781 2.74548)
(-1.17798e-15 -0.00102103 2.77978)
(-1.04759e-15 -0.0134306 2.83543)
(1.02134e-15 -0.29131 13.4193)
(-4.69488e-16 -0.35428 12.654)
(-1.35655e-15 -0.368585 12.2339)
(-1.37546e-15 -0.321296 12.2503)
(8.31192e-16 -0.21433 12.6856)
(1.29272e-15 -0.0513364 13.3733)
(1.72365e-15 0.189016 14.1244)
(1.20532e-15 0.534135 14.7752)
(2.35963e-15 0.900063 15.1889)
(2.31076e-15 1.23524 15.4003)
(2.36573e-15 1.35246 15.4818)
(2.25401e-15 1.22436 15.4019)
(1.98839e-15 1.05264 15.1655)
(1.88485e-15 0.945025 14.8377)
(2.08426e-15 0.879118 14.4859)
(1.26967e-15 0.848751 14.1116)
(1.55532e-15 0.798857 13.645)
(1.39439e-15 0.722816 13.1435)
(1.67121e-15 0.663629 12.5759)
(1.81868e-15 0.630579 12.0025)
(2.06804e-15 0.607911 11.4478)
(9.69724e-16 0.481633 10.7438)
(-1.07827e-15 0.411578 10.0441)
(1.33025e-15 0.552014 9.13535)
(4.70954e-15 0.478412 8.24953)
(4.15561e-15 0.319978 7.67424)
(1.00904e-15 0.496969 6.56643)
(-4.39082e-16 0.390142 6.03602)
(1.08896e-15 0.209094 5.95935)
(-2.48691e-16 0.52908 4.41609)
(-1.04153e-15 0.507029 3.86436)
(-1.2963e-16 0.105819 4.27379)
(7.03585e-16 0.178413 3.90688)
(-1.87913e-15 0.614857 3.22886)
(-1.27427e-14 0.453715 2.18271)
(7.92154e-15 -0.0175742 3.01017)
(1.1227e-14 -0.0746658 3.30268)
(3.90919e-16 0.168116 2.67924)
(1.95261e-15 0.310016 2.15829)
(1.35024e-15 0.180499 1.65443)
(8.68313e-15 -0.047747 1.56963)
(-4.15312e-15 -0.0469227 1.20683)
(-3.25878e-16 0.128752 0.532997)
(4.63369e-15 0.163699 0.511109)
(1.64155e-15 0.105652 0.607124)
(5.94993e-16 0.0537509 0.708827)
(-2.25691e-16 -0.00282351 0.805344)
(-5.63935e-16 -0.0516647 0.906856)
(1.4243e-15 -0.0783824 1.00721)
(-8.59052e-16 -0.0907853 1.10902)
(-1.72385e-15 -0.0983029 1.2128)
(-1.97746e-15 -0.106021 1.31129)
(-2.13274e-15 -0.109402 1.4026)
(-1.84252e-15 -0.10783 1.48658)
(-1.81462e-15 -0.101817 1.56782)
(-1.96481e-15 -0.0943605 1.64608)
(-9.96163e-16 -0.0867497 1.7221)
(-1.20053e-15 -0.0803352 1.79341)
(-1.83442e-15 -0.0745143 1.8605)
(-2.00648e-15 -0.0699192 1.92311)
(-1.73061e-15 -0.0666338 1.98188)
(-1.56378e-15 -0.0636777 2.03657)
(-1.54973e-15 -0.0600591 2.08894)
(-1.61833e-15 -0.0561899 2.13949)
(-1.6275e-15 -0.0525925 2.1888)
(-1.6835e-15 -0.0492589 2.23656)
(-1.60896e-15 -0.0462844 2.28358)
(-1.57054e-15 -0.0440608 2.33039)
(-1.64621e-15 -0.0430419 2.37734)
(-1.67888e-15 -0.0434041 2.42403)
(-1.79355e-15 -0.0446755 2.46972)
(-1.86268e-15 -0.0460899 2.51372)
(-1.79734e-15 -0.0475533 2.556)
(-1.77152e-15 -0.0489935 2.59637)
(-1.63921e-15 -0.0500809 2.63454)
(-1.71499e-15 -0.0510498 2.67046)
(-1.62579e-15 -0.0522015 2.70354)
(-1.67962e-15 -0.0529882 2.73289)
(-1.68652e-15 -0.0531136 2.75842)
(-1.64945e-15 -0.052536 2.78022)
(-1.70121e-15 -0.0506149 2.79806)
(-1.76788e-15 -0.0470093 2.81246)
(-1.5257e-15 -0.0423016 2.82417)
(-1.67201e-15 -0.0368523 2.8333)
(-1.48729e-15 -0.0306022 2.84013)
(-1.6069e-15 -0.0235752 2.8456)
(-1.62436e-15 -0.0160114 2.85094)
(-1.62787e-15 -0.00835108 2.85752)
(-1.65373e-15 -0.00113695 2.86649)
(-1.40791e-15 0.00521333 2.87876)
(-1.49089e-15 0.010412 2.89498)
(-1.69542e-15 0.0142438 2.91558)
(-1.71909e-15 0.016432 2.94068)
(-1.2822e-15 0.0167383 2.96994)
(-1.15105e-15 0.0150842 3.00261)
(-1.13804e-15 0.0116879 3.03764)
(-1.09177e-15 0.0064436 3.0741)
(-1.14946e-15 0.000451869 3.11119)
(-1.0626e-15 -0.00857863 3.14389)
(-1.03885e-15 -0.0182081 3.19049)
(2.40916e-16 -0.244676 12.4879)
(-1.81132e-15 -0.32519 11.6025)
(-1.00673e-15 -0.380141 11.1782)
(8.16413e-16 -0.377634 11.1664)
(-2.05428e-15 -0.306089 11.5316)
(-4.85697e-16 -0.174466 12.1219)
(1.88912e-15 0.0627566 12.8573)
(1.3993e-15 0.424573 13.6796)
(2.04185e-15 0.821739 14.39)
(3.19166e-15 1.18143 14.9306)
(2.44424e-15 1.32675 15.3016)
(2.40427e-15 1.23588 15.4607)
(2.46671e-15 1.0903 15.4118)
(2.59461e-15 0.994155 15.2236)
(2.68911e-15 0.937335 14.9615)
(2.36425e-15 0.918371 14.6374)
(1.73334e-15 0.881358 14.2138)
(3.62239e-15 0.820277 13.7607)
(4.83024e-15 0.769003 13.2266)
(1.18762e-15 0.736254 12.6579)
(1.86832e-15 0.728158 12.0581)
(9.81078e-16 0.619702 11.3061)
(6.25942e-16 0.561224 10.545)
(2.43543e-15 0.707571 9.59416)
(4.14563e-15 0.622973 8.78529)
(6.57183e-15 0.481243 8.07181)
(4.10011e-15 0.639423 6.92819)
(-6.72503e-16 0.473929 6.58971)
(2.7083e-17 0.367057 6.39676)
(1.47843e-15 0.690003 4.72002)
(-7.21069e-15 0.569394 4.14581)
(1.19791e-15 0.120212 4.43094)
(-4.50173e-16 0.251294 3.89714)
(-4.41164e-15 0.706623 3.38867)
(-7.32709e-15 0.473249 3.42042)
(3.60247e-15 -0.17406 3.77052)
(8.37807e-15 -0.0226933 3.22579)
(2.4279e-16 0.295164 2.30024)
(1.78445e-15 0.388082 1.88846)
(1.08483e-15 0.219583 1.59955)
(2.92942e-15 0.0139245 1.67054)
(1.83865e-15 0.0760017 0.966427)
(-2.92299e-15 0.164337 0.759491)
(1.38235e-15 0.154117 0.801828)
(1.73053e-16 0.0910399 0.890364)
(-5.41141e-16 0.0336493 0.978503)
(-1.2862e-15 -0.0227049 1.05926)
(-2.02608e-15 -0.0699794 1.14629)
(-2.37323e-15 -0.0968835 1.23582)
(-2.45845e-15 -0.110909 1.32799)
(-2.51219e-15 -0.118393 1.423)
(-2.57923e-15 -0.124724 1.51485)
(-2.55942e-15 -0.126704 1.60192)
(-2.54553e-15 -0.12434 1.68335)
(-2.56451e-15 -0.117852 1.76266)
(-2.76451e-15 -0.109942 1.83933)
(-2.2066e-15 -0.101595 1.91403)
(-1.90945e-15 -0.0942036 1.98478)
(-1.61933e-15 -0.0874179 2.0521)
(-1.78385e-15 -0.0818604 2.11564)
(-1.91438e-15 -0.0775419 2.17587)
(-1.71583e-15 -0.073785 2.23253)
(-1.92673e-15 -0.0698047 2.28705)
(-2.03945e-15 -0.0657411 2.3398)
(-1.85721e-15 -0.0619208 2.39148)
(-1.98613e-15 -0.0584205 2.44202)
(-2.07992e-15 -0.0554151 2.49211)
(-1.94902e-15 -0.0532538 2.54197)
(-2.05986e-15 -0.05226 2.59164)
(-2.14738e-15 -0.0524341 2.64058)
(-2.22366e-15 -0.0533231 2.68813)
(-2.28463e-15 -0.0543005 2.73375)
(-2.30542e-15 -0.0552454 2.7774)
(-2.16333e-15 -0.0560535 2.81888)
(-2.15743e-15 -0.0565044 2.85798)
(-2.16175e-15 -0.0567087 2.89462)
(-2.13366e-15 -0.0568335 2.92838)