/*--------------------------------*- C++ -*----------------------------------*\
| =========                 |                                                 |
| \\      /  F ield         | OpenFOAM: The Open Source CFD Toolbox           |
|  \\    /   O peration     | Version:  4.1                                   |
|   \\  /    A nd           | Web:      www.OpenFOAM.org                      |
|    \\/     M anipulation  |                                                 |
\*---------------------------------------------------------------------------*/
FoamFile
{
    version     2.0;
    format      ascii;
    class       volScalarField;
    location    "16";
    object      p;
}
// * * * * * * * * * * * * * * * * * * * * * * * * * * * * * * * * * * * * * //

dimensions      [0 2 -2 0 0 0 0];

internalField   nonuniform List<scalar> 
26785
(
18.592
19.6919
19.7546
20.0874
20.6518
21.5485
21.3306
21.8056
22.2291
23.7218
24.6983
25.7409
25.8524
24.679
22.8324
19.4995
16.6607
13.2036
10.4579
7.76563
5.93026
4.34966
3.37958
2.80172
2.88814
3.10212
3.52347
4.20928
5.29874
6.42173
7.2732
7.90473
8.49771
8.99047
9.29139
9.40314
9.45016
9.48097
9.45863
9.378
9.21885
8.96479
8.63899
8.23022
7.77265
7.29314
6.90929
6.69583
6.41499
6.27505
6.17593
6.20923
6.27561
6.36544
6.46276
6.56065
6.6655
6.72951
6.76815
6.73208
6.65039
6.49882
6.29729
6.04364
5.74742
5.42767
5.09668
4.77808
4.47887
4.2044
3.95357
3.71878
3.50518
3.30396
3.12807
2.96761
2.84045
2.7317
2.65891
2.59642
2.55931
2.51724
2.49073
2.45447
2.43376
2.40519
2.3919
2.3676
2.35039
2.31252
2.26791
2.19
2.09015
1.94331
1.75958
1.52115
1.23591
0.909878
0.500832
0.23305
18.5734
19.6844
19.7546
20.0938
20.6625
21.5552
21.3371
21.8119
22.2426
23.7362
24.7176
25.7546
25.855
24.6592
22.7907
19.4373
16.5873
13.1246
10.3781
7.69126
5.86173
4.29315
3.33589
2.77543
2.87319
3.09162
3.51854
4.22012
5.32644
6.4587
7.3109
7.94223
8.53845
9.03448
9.33422
9.44021
9.48089
9.50689
9.4802
9.3956
9.23248
8.97455
8.64527
8.23251
7.77082
7.28716
6.90009
6.68487
6.40052
6.25987
6.16225
6.19871
6.26758
6.35933
6.45898
6.55946
6.66788
6.73468
6.77592
6.74071
6.65987
6.50838
6.30614
6.05127
5.75272
5.43103
5.09772
4.77794
4.47779
4.20313
3.95179
3.71674
3.50269
3.30143
3.12549
2.96534
2.83868
2.7309
2.65925
2.59786
2.56145
2.51972
2.49302
2.45656
2.43542
2.40713
2.39402
2.37064
2.3542
2.31787
2.27442
2.19834
2.10003
1.95504
1.77273
1.53528
1.25113
0.923019
0.541396
0.209449
18.5362
19.6705
19.7478
20.0985
20.6788
21.5644
21.3413
21.8198
22.2646
23.7687
24.7624
25.7993
25.8838
24.6495
22.7412
19.351
16.4792
13.0011
10.2508
7.56795
5.74337
4.18631
3.24904
2.71745
2.83327
3.05322
3.48555
4.21485
5.35415
6.50502
7.36008
7.99332
8.59673
9.10018
9.39966
9.49777
9.52913
9.54789
9.51548
9.42547
9.25658
8.99279
8.65775
8.23792
7.76878
7.2774
6.88471
6.66647
6.37536
6.23304
6.13738
6.17984
6.25282
6.34896
6.45323
6.55903
6.6739
6.74624
6.79211
6.7588
6.67956
6.52837
6.32471
6.06743
5.7646
5.43929
5.10197
4.78014
4.47828
4.20331
3.95082
3.7151
3.4997
3.29785
3.12108
2.9608
2.83434
2.72775
2.65741
2.59747
2.56154
2.51993
2.49235
2.45522
2.43311
2.40497
2.39193
2.3697
2.35428
2.31998
2.27808
2.2044
2.10807
1.96547
1.78483
1.54878
1.26491
0.936662
0.55889
0.213668
18.4832
19.6529
19.7373
20.1071
20.7041
21.5774
21.348
21.8368
22.3051
23.8282
24.8375
25.8701
25.9234
24.6295
22.6617
19.218
16.3169
12.8172
10.0626
7.38442
5.5675
4.02741
3.12264
2.63447
2.77781
2.99936
3.4408
4.20822
5.39361
6.5702
7.43047
8.0664
8.68085
9.19452
9.49235
9.57692
9.59412
9.60265
9.56263
9.4652
9.289
9.01732
8.67481
8.24548
7.76622
7.26345
6.86188
6.6408
6.33999
6.19751
6.10313
6.15378
6.23115
6.33461
6.4447
6.55895
6.6821
6.76296
6.81535
6.78622
6.70969
6.55938
6.35324
6.09183
5.7821
5.45118
5.10787
4.78313
4.47853
4.20275
3.948
3.71094
3.49304
3.29008
3.11168
2.95135
2.82496
2.72039
2.65161
2.59395
2.55832
2.51722
2.48831
2.45087
2.42749
2.40011
2.38726
2.36684
2.3527
2.32105
2.28094
2.21014
2.11608
1.97621
1.79734
1.56293
1.27793
0.950647
0.554509
0.238957
18.4204
19.6339
19.7201
20.1161
20.7361
21.5895
21.352
21.8585
22.3591
23.9078
24.9327
25.9583
25.968
24.6003
22.5666
19.0701
16.1431
12.6242
9.86906
7.19642
5.38681
3.86339
2.99692
2.55729
2.73151
2.95611
3.41147
4.22091
5.45382
6.65421
7.51747
8.15498
8.77856
9.29871
9.59025
9.658
9.65891
9.65521
9.60681
9.50147
9.31774
9.03807
8.6878
8.24875
7.75968
7.24607
6.83596
6.61192
6.30234
6.16109
6.06919
6.12833
6.21033
6.32196
6.43906
6.56208
6.69398
6.78335
6.84241
6.81744
6.74395
6.59408
6.38485
6.11811
5.80071
5.46302
5.11351
4.78532
4.47813
4.20104
3.94404
3.70504
3.48469
3.28016
3.10031
2.93977
2.81401
2.71181
2.64542
2.59029
2.55536
2.51444
2.48428
2.44594
2.42143
2.39441
2.38211
2.36336
2.35097
2.32196
2.28407
2.21634
2.12514
1.98856
1.81235
1.58021
1.29434
0.967506
0.551615
0.269598
18.3487
19.6149
19.7006
20.1297
20.7731
21.5991
21.3578
21.8889
22.4254
23.9975
25.0297
26.0343
25.9844
24.5369
22.4407
18.8981
15.952
12.4195
9.66854
7.00343
5.20454
3.70285
2.88033
2.49258
2.70037
2.93379
3.40858
4.25839
5.53262
6.75084
7.61325
8.24883
8.87894
9.40165
9.68187
9.72799
9.71034
9.69416
9.63791
9.52544
9.33552
9.04961
8.69368
8.24691
7.74942
7.22684
6.80943
6.58177
6.2651
6.12587
6.03866
6.10603
6.19322
6.31267
6.43708
6.56854
6.70957
6.80743
6.87347
6.85302
6.78308
6.63345
6.42052
6.14718
5.82087
5.47517
5.11882
4.78685
4.47726
4.19864
3.93937
3.69816
3.47542
3.26929
3.08813
2.92759
2.80303
2.70399
2.64071
2.58861
2.55431
2.51331
2.48137
2.44158
2.41529
2.38863
2.37704
2.36034
2.35011
2.32425
2.28927
2.22546
2.13767
2.00506
1.83193
1.6022
1.31471
0.986862
0.549837
0.301197
18.2746
19.5919
19.6729
20.1411
20.8094
21.5999
21.3574
21.9192
22.4908
24.0819
25.114
26.0935
25.981
24.4577
22.3135
18.7398
15.7821
12.2402
9.4947
6.83641
5.04575
3.56523
2.78278
2.44271
2.67831
2.9196
3.41194
4.29642
5.60371
6.83275
7.69116
8.32477
8.96073
9.48448
9.75243
9.77866
9.74473
9.71808
9.65605
9.53843
9.34409
9.05439
8.69508
8.24266
7.73826
7.2095
6.78752
6.55601
6.23366
6.09641
6.01555
6.09074
6.18237
6.3083
6.43985
6.57861
6.7283
6.83372
6.90577
6.88919
6.82274
6.67328
6.45649
6.1763
5.84102
5.48729
5.12449
4.78914
4.47782
4.198
3.93672
3.69334
3.46833
3.26047
3.07789
2.91721
2.79433
2.69905
2.63967
2.59068
2.55682
2.51482
2.48046
2.43833
2.40996
2.38342
2.37279
2.35856
2.35128
2.32865
2.29742
2.2382
2.15437
2.02606
1.85599
1.6284
1.33897
1.00928
0.549567
0.334415
18.2104
19.5694
19.6463
20.1578
20.8452
21.5944
21.3583
21.9512
22.5486
24.1463
25.1698
26.1163
25.9409
24.3513
22.1692
18.5693
15.5988
12.0474
9.30486
6.65697
4.87554
3.42132
2.67699
2.38506
2.64642
2.896
3.4051
4.32226
5.65931
6.89832
7.75559
8.3907
9.03654
9.56277
9.81646
9.81897
9.76653
9.73034
9.66434
9.54348
9.34688
9.0561
8.69609
8.24065
7.72994
7.19514
6.76866
6.53191
6.20462
6.06934
5.99624
6.07858
6.17437
6.30596
6.44404
6.58985
6.74862
6.86215
6.9408
6.92925
6.86741
6.71835
6.49727
6.20916
5.86387
5.50138
5.13201
4.79342
4.4807
4.19957
3.93595
3.68993
3.46236
3.25241
3.06816
2.90755
2.78709
2.69679
2.642
2.59644
2.56241
2.51875
2.48153
2.43702
2.40706
2.38136
2.37225
2.36092
2.35699
2.33725
2.30983
2.25428
2.17413
2.04948
1.88178
1.65559
1.36335
1.03027
0.5469
0.365718
18.1632
19.5421
19.6154
20.1708
20.8733
21.5776
21.3541
21.9808
22.5966
24.193
25.2054
26.1227
25.8914
24.2431
22.03
18.4091
15.424
11.8632
9.12141
6.48539
4.71055
3.28156
2.56855
2.32044
2.60245
2.85881
3.38574
4.33654
5.70109
6.94697
7.80509
8.4474
9.10692
9.63541
9.87311
9.85109
9.77913
9.73369
9.66558
9.54355
9.34643
9.05663
8.69748
8.2404
7.72381
7.18353
6.75253
6.50933
6.17723
6.04415
5.9794
6.06826
6.16738
6.30425
6.44874
6.601
6.76879
6.89017
6.97502
6.96869
6.91174
6.76287
6.53694
6.24048
5.88506
5.51411
5.13892
4.79775
4.48402
4.20142
3.93499
3.68588
3.45553
3.24316
3.05701
2.89674
2.77982
2.69551
2.64583
2.60343
2.56878
2.5229
2.48288
2.43638
2.40549
2.38089
2.37344
2.36428
2.36222
2.34495
2.32128
2.26844
2.19227
2.07049
1.90572
1.68088
1.38698
1.05046
0.54476
0.396065
18.1236
19.5015
19.5843
20.1836
20.8941
21.5572
21.3565
22.012
22.6344
24.2177
25.2165
26.1005
25.8146
24.1145
21.8713
18.2249
15.2186
11.647
8.90522
6.28433
4.52013
3.12346
2.43789
2.2348
2.54025
2.80828
3.3573
4.34435
5.73577
6.9891
7.8531
8.50759
9.18474
9.7139
9.92926
9.87484
9.77887
9.72488
9.65799
9.53852
9.34409
9.05819
8.70234
8.24535
7.72227
7.17442
6.73596
6.48441
6.14776
6.01769
5.96153
6.05624
6.15903
6.30196
6.45226
6.61147
6.78911
6.9192
7.01124
7.01178
6.96099
6.81212
6.5805
6.2743
5.90778
5.52808
5.14732
4.80379
4.48906
4.20432
3.93437
3.68182
3.44875
3.23401
3.04613
2.88714
2.77506
2.69783
2.65349
2.61413
2.57895
2.53078
2.48831
2.44034
2.40906
2.38504
2.37898
2.37143
2.36924
2.35423
2.3331
2.28362
2.21131
2.09259
1.93017
1.70652
1.41066
1.06951
0.542132
0.422065
18.0951
19.4468
19.5494
20.1923
20.9064
21.5292
21.3572
22.0396
22.6642
24.2319
25.219
26.0723
25.7341
23.9849
21.7141
18.0445
15.0148
11.4314
8.6891
6.08199
4.32938
2.96849
2.30186
2.14113
2.4685
2.74739
3.31959
4.34539
5.76328
7.02237
7.89596
8.56831
9.26526
9.79134
9.97866
9.88935
9.76858
9.7072
9.64491
9.53131
9.34176
9.06162
8.71008
8.25379
7.72436
7.168
6.72033
6.45865
6.11737
5.99079
5.94306
6.04294
6.14909
6.29871
6.45497
6.6212
6.80925
6.94758
7.04655
7.05454
7.00985
6.8604
6.62213
6.3055
5.92777
5.53994
5.15452
4.80916
4.49326
4.20577
3.93185
3.67597
3.44037
3.22297
3.03329
2.87635
2.77055
2.70109
2.66209
2.62514
2.58906
2.53807
2.4927
2.44319
2.41159
2.38748
2.38233
2.37588
2.37415
2.36181
2.34211
2.29697
2.2268
2.11171
1.95036
1.72791
1.43028
1.08443
0.538616
0.442177
18.0851
19.3906
19.5201
20.2049
20.9163
21.5005
21.3647
22.063
22.6813
24.2278
25.2036
26.0208
25.6284
23.8352
21.5381
17.8392
14.7797
11.1817
8.43874
5.84864
4.11348
2.7994
2.14666
2.03297
2.38622
2.67946
3.27346
4.33853
5.78357
7.05243
7.94256
8.63739
9.35564
9.87411
10.0239
9.89139
9.7428
9.67696
9.62477
9.52165
9.34025
9.06839
8.72264
8.26739
7.73062
7.16261
6.70191
6.42815
6.08286
5.96112
5.92179
6.0262
6.1367
6.29459
6.45623
6.63048
6.83012
6.97649
7.08344
7.10063
7.06309
6.91238
6.66632
6.33753
5.94774
5.55158
5.16176
4.81434
4.49715
4.20643
3.92882
3.67014
3.43258
3.21255
3.02189
2.86888
2.77109
2.70985
2.67566
2.63974
2.60207
2.54775
2.49963
2.44887
2.41809
2.39446
2.39075
2.38404
2.3844
2.37365
2.35622
2.31345
2.24484
2.13046
1.96952
1.74569
1.44639
1.09471
0.534381
0.455098
18.079
19.3282
19.4861
20.2086
20.9134
21.4608
21.3679
22.0828
22.6927
24.2201
25.1854
25.9704
25.5258
23.6891
21.3685
17.6427
14.5517
10.9359
8.19034
5.61728
3.89224
2.62952
1.99516
1.92654
2.29456
2.60339
3.22033
4.32542
5.7959
7.0735
7.98489
8.70933
9.44896
9.95381
10.0602
9.88337
9.70773
9.64045
9.60242
9.51253
9.3411
9.07899
8.73935
8.28447
7.74006
7.15927
6.68364
6.39648
6.04718
5.93088
5.89959
6.00753
6.12243
6.28939
6.45657
6.63921
6.85093
7.00364
7.1185
7.14561
7.1148
6.96201
6.70705
6.3654
5.96383
5.56016
5.1665
4.81686
4.49785
4.20351
3.92255
3.66166
3.42196
3.19889
3.00826
2.86143
2.77277
2.7192
2.68847
2.65207
2.61162
2.5536
2.50308
2.45183
2.42322
2.40143
2.39994
2.39218
2.39471
2.38264
2.36807
2.32412
2.25745
2.14105
1.98078
1.75477
1.45365
1.09643
0.528072
0.458249
18.0627
19.266
19.4606
20.2139
20.9043
21.4317
21.3728
22.0883
22.6842
24.1921
25.1475
25.898
25.402
23.5263
21.1837
17.4248
14.2964
10.6605
7.91134
5.3639
3.64981
2.44195
1.83948
1.80953
2.18439
2.52052
3.16756
4.30965
5.80623
7.09485
8.03176
8.78785
9.5466
10.0309
10.0866
9.86046
9.65699
9.59366
9.57599
9.50341
9.34451
9.09429
8.76123
8.30519
7.75058
7.1537
6.65999
6.35875
6.00741
5.89838
5.87518
5.98608
6.10727
6.28453
6.45636
6.64849
6.87268
7.03001
7.15393
7.1915
7.16777
7.01185
6.74691
6.39158
5.97875
5.56801
5.17048
4.81776
4.49671
4.19841
3.9151
3.65268
3.41037
3.18453
2.99636
2.85854
2.7793
2.7318
2.70295
2.66485
2.6213
2.56001
2.50861
2.45841
2.43384
2.41542
2.41588
2.40795
2.4106
2.39715
2.38145
2.33628
2.26705
2.14963
1.98619
1.75922
1.45511
1.09476
0.527789
0.45509
18.0366
19.2048
19.4334
20.2092
20.8808
21.408
21.3697
22.0821
22.6695
24.1624
25.109
25.833
25.29
23.3726
21.0089
17.2202
14.053
10.3954
7.63709
5.10752
3.41841
2.26669
1.6892
1.67561
2.06412
2.43008
3.11192
4.29162
5.81498
7.11203
8.07783
8.86792
9.64088
10.0955
10.0976
9.82563
9.5984
9.54496
9.55151
9.49796
9.35229
9.11451
8.78763
8.3284
7.76149
7.14656
6.63383
6.31867
5.96667
5.86553
5.84959
5.96306
6.09122
6.27824
6.45486
6.65743
6.89362
7.05356
7.1863
7.23368
7.2148
7.05438
6.77863
6.41084
5.98917
5.57309
5.17205
4.81592
4.49212
4.1896
3.90392
3.64015
3.39374
3.16526
2.98219
2.85496
2.78386
2.74007
2.71135
2.67068
2.6239
2.56022
2.50929
2.46212
2.44231
2.42848
2.42891
2.42282
2.42155
2.40874
2.38829
2.34281
2.26896
2.15067
1.98389
1.75298
1.448
1.08627
0.533957
0.448105
17.9967
19.1476
19.4173
20.209
20.8668
21.3996
21.3611
22.0541
22.633
24.1098
25.0507
25.7493
25.1621
23.2051
20.8178
16.9925
13.7821
10.1049
7.33691
4.82552
3.1823
2.08932
1.51689
1.52089
1.94838
2.34366
3.05661
4.2731
5.82664
7.13498
8.13794
8.95477
9.73334
10.1493
10.0934
9.77337
9.52463
9.48916
9.52559
9.49246
9.36001
9.13474
8.81223
8.34569
7.76215
7.1265
6.59495
6.2678
5.92017
5.82956
5.82119
5.93842
6.07626
6.27227
6.45343
6.66801
6.91559
7.07633
7.21713
7.27261
7.25562
7.0895
6.80299
6.42441
5.99652
5.57632
5.17188
4.81218
4.48555
4.17986
3.89198
3.6267
3.37652
3.14743
2.97279
2.85575
2.78977
2.74717
2.71767
2.67423
2.62523
2.561
2.51243
2.4705
2.45556
2.44672
2.44581
2.44145
2.43616
2.42198
2.39809
2.34802
2.27205
2.1489
1.98116
1.74659
1.44378
1.08724
0.557783
0.443337
17.954
19.0931
19.4001
20.2042
20.8469
21.3879
21.3401
22.0176
22.5923
24.0541
24.9951
25.6787
25.0502
23.0504
20.6359
16.7769
13.5235
9.82691
7.04864
4.54548
2.9537
1.91804
1.33262
1.36386
1.83282
2.25175
2.99093
4.24794
5.83448
7.15383
8.20912
9.04882
9.8214
10.1865
10.0701
9.70899
9.44856
9.43812
9.50588
9.49094
9.36994
9.15459
8.83222
8.35234
7.74928
7.09407
6.54706
6.21174
5.87145
5.7924
5.79093
5.91264
6.06016
6.26391
6.45044
6.67956
6.93625
7.09583
7.24116
7.30129
7.28139
7.10969
6.8145
6.42793
5.99697
5.57359
5.16579
4.80252
4.47184
4.16379
3.87396
3.60451
3.35153
3.12519
2.96142
2.85235
2.78832
2.74539
2.71519
2.66946
2.61942
2.55642
2.51165
2.47627
2.46559
2.46055
2.45941
2.45385
2.44821
2.42951
2.40466
2.34926
2.27077
2.14395
1.97196
1.73765
1.44147
1.09526
0.592364
0.436983
17.904
19.0387
19.3838
20.2109
20.8429
21.3878
21.3138
21.9695
22.526
23.9693
24.9226
25.5935
24.9189
22.8826
20.4346
16.5319
13.2348
9.52085
6.73862
4.25986
2.71544
1.72006
1.14214
1.21529
1.72061
2.16406
2.92368
4.21524
5.84363
7.18564
8.30158
9.14829
9.90577
10.2108
10.0303
9.62549
9.36482
9.3853
9.48405
9.48301
9.36953
9.16146
8.83257
8.33409
7.71195
7.04152
6.48403
6.1453
5.81803
5.75356
5.76007
5.88795
6.04574
6.25662
6.44877
6.69405
6.9584
7.11514
7.25947
7.32117
7.29567
7.11974
6.81725
6.42379
5.9902
5.56261
5.15088
4.78409
4.44871
4.13967
3.85081
3.5763
3.32348
3.10508
2.95378
2.84989
2.78527
2.74194
2.71235
2.66555
2.61656
2.55653
2.51622
2.48731
2.48017
2.47599
2.47617
2.46718
2.46297
2.44137
2.41431
2.35718
2.27457
2.14688
1.97349
1.74274
1.45676
1.12079
0.638791
0.431424
17.8551
18.9788
19.3349
20.2024
20.8274
21.377
21.2763
21.9309
22.4525
23.8815
24.8592
25.5262
24.8002
22.728
20.2414
16.2964
12.959
9.22552
6.44193
3.98819
2.47614
1.51442
0.956929
1.0648
1.59596
2.07305
2.8408
4.16718
5.83863
7.23076
8.39937
9.2475
9.98602
10.2169
9.98048
9.53175
9.28631
9.34158
9.46462
9.46985
9.35798
9.15531
8.8154
8.29893
7.66227
6.98151
6.41716
6.07838
5.76518
5.7151
5.72925
5.86343
6.02964
6.24632
6.4462
6.70873
6.97802
7.13124
7.2678
7.33007
7.29838
7.11828
6.80725
6.40587
5.96743
5.53348
5.11815
4.74961
4.40957
4.10082
3.81504
3.53577
3.28611
3.0801
2.94135
2.84005
2.77378
2.73071
2.70327
2.65674
2.61036
2.5542
2.51788
2.49333
2.48949
2.48287
2.48535
2.47495
2.47161
2.4518
2.42269
2.36487
2.28052
2.15119
1.9794
1.75471
1.47842
1.14884
0.68251
0.42283
17.8113
18.921
19.2625
20.2063
20.8273
21.3655
21.2387
21.8809
22.3431
23.77
24.7854
25.4444
24.6615
22.5533
20.022
16.0256
12.6522
8.90318
6.12719
3.70641
2.22937
1.30883
0.773622
0.912814
1.47357
1.99418
2.75386
4.11166
5.83098
7.29736
8.48932
9.33477
10.0568
10.2155
9.9259
9.42788
9.20353
9.29315
9.43404
9.43957
9.32623
9.12851
8.77443
8.24346
7.59597
6.90832
6.3404
6.0052
5.71047
5.67622
5.69897
5.84133
6.0167
6.23518
6.44413
6.72313
6.99394
7.14663
7.27304
7.33694
7.29758
7.10888
6.78344
6.37031
5.92335
5.48288
5.0672
4.70105
4.3598
4.05246
3.77228
3.49132
3.24878
3.05907
2.93204
2.8313
2.76332
2.72203
2.69892
2.65434
2.61184
2.55967
2.52652
2.50282
2.50128
2.49171
2.49464
2.48667
2.48404
2.46739
2.43913
2.38096
2.29717
2.16788
1.99866
1.77981
1.5111
1.18374
0.725485
0.414442
17.7704
18.8678
19.169
20.1943
20.8115
21.3415
21.2063
21.8183
22.2228
23.6676
24.727
25.3775
24.5401
22.3874
19.8064
15.7609
12.3586
8.59354
5.82717
3.43064
1.99021
1.10795
0.588696
0.749975
1.34218
1.90384
2.6572
4.04684
5.81696
7.3587
8.5718
9.41691
10.1082
10.1996
9.85951
9.32744
9.12674
9.24705
9.3986
9.40406
9.29321
9.09389
8.72462
8.18046
7.5245
6.83233
6.26286
5.93347
5.65731
5.63691
5.66745
5.81723
6.00264
6.2194
6.43373
6.72421
6.99203
7.14849
7.271
7.33638
7.28574
7.07855
6.73288
6.30646
5.85281
5.40947
4.99787
4.63725
4.29851
3.99181
3.71611
3.43704
3.20434
3.03322
2.91638
2.81456
2.74587
2.70814
2.69125
2.65018
2.61173
2.56185
2.5313
2.50611
2.50354
2.49319
2.49436
2.49117
2.49259
2.47856
2.4542
2.39748
2.31367
2.18412
2.01774
1.80441
1.54134
1.21286
0.75931
0.40294
17.7357
18.8324
19.0706
20.1958
20.7944
21.3216
21.1682
21.7229
22.077
23.5531
24.6611
25.2914
24.3997
22.1996
19.5588
15.4577
12.0365
8.261
5.51226
3.14571
1.75356
0.905672
0.406901
0.590473
1.2274
1.81824
2.57365
3.99387
5.81084
7.42071
8.64155
9.49334
10.1272
10.1729
9.79361
9.22917
9.04563
9.18605
9.344
9.35195
9.2474
9.03596
8.65401
8.09966
7.43865
6.74484
6.17726
5.85637
5.60277
5.59634
5.63627
5.79447
5.98965
6.20536
6.41414
6.69661
6.94834
7.12406
7.25597
7.32912
7.26112
7.02417
6.65763
6.22051
5.76517
5.32315
4.9187
4.56499
4.23307
3.92788
3.65376
3.38152
3.16236
3.01104
2.90232
2.79879
2.7314
2.69981
2.69155
2.65539
2.62054
2.57109
2.54108
2.51345
2.50432
2.49475
2.49675
2.49773
2.50698
2.49693
2.47545
2.42031
2.33628
2.20687
2.04416
1.83653
1.57702
1.24431
0.790857
0.391268
17.7017
18.8052
18.9652
20.1699
20.745
21.2847
21.1087
21.6195
21.939
23.4561
24.6116
25.2185
24.2745
22.0208
19.3126
15.1637
11.7308
7.94782
5.21569
2.8702
1.52473
0.695934
0.21881
0.425885
1.10007
1.71978
2.48548
3.95096
5.79827
7.46159
8.68248
9.56929
10.1293
10.1169
9.73553
9.14392
8.9716
9.12921
9.28633
9.29183
9.19291
8.971
8.57822
8.01499
7.35084
6.65729
6.09317
5.78169
5.54895
5.55368
5.60152
5.769
5.96768
6.18211
6.37559
6.6388
6.88435
7.08761
7.22601
7.30467
7.21088
6.94008
6.55947
6.11711
5.66487
5.2271
4.82969
4.48183
4.1578
3.85508
3.5786
3.31591
3.11378
2.98133
2.87839
2.77301
2.70916
2.68587
2.68806
2.65749
2.62527
2.57541
2.54205
2.51159
2.49534
2.48645
2.49478
2.50097
2.51606
2.51174
2.49294
2.43722
2.35163
2.22343
2.06614
1.86441
1.6069
1.26818
0.814875
0.376356
17.6736
18.7799
18.8784
20.1445
20.6868
21.2398
21.0372
21.4951
21.7824
23.3464
24.5508
25.1228
24.1251
21.8125
19.0316
14.8388
11.4029
7.62389
4.91162
2.59707
1.30334
0.482415
0.0408917
0.288438
0.981585
1.63615
2.42491
3.93508
5.77981
7.48471
8.67967
9.6165
10.117
10.0413
9.66305
9.05036
8.89735
9.05683
9.20965
9.21868
9.11805
8.88802
8.48482
7.91492
7.25091
6.56046
6.00303
5.7033
5.49395
5.50891
5.56311
5.74392
5.94659
6.14454
6.31372
6.56842
6.82403
7.05593
7.20281
7.26274
7.1366
6.83688
6.44991
6.00754
5.56186
5.13108
4.74026
4.39566
4.07951
3.78052
3.50149
3.25144
3.06974
2.95378
2.85411
2.74789
2.69058
2.67798
2.69172
2.66766
2.63677
2.58437
2.54305
2.50947
2.49196
2.4839
2.49783
2.51168
2.53123
2.53021
2.51266
2.4555
2.36862
2.24373
2.09355
1.89709
1.63945
1.29324
0.83866
0.36147
17.655
18.7491
18.8148
20.0875
20.6129
21.1683
20.9538
21.3716
21.6359
23.2529
24.503
25.0364
23.9876
21.6098
18.754
14.5308
11.0964
7.3277
4.62862
2.33711
1.0826
0.252421
-0.138962
0.155377
0.841621
1.55062
2.38586
3.92325
5.73945
7.46653
8.65194
9.62296
10.0528
9.97781
9.57235
8.95678
8.83457
8.98178
9.11981
9.13885
9.03454
8.79851
8.38715
7.81356
7.15159
6.46539
5.91498
5.62765
5.43888
5.45999
5.51555
5.71008
5.92518
6.09092
6.22796
6.46471
6.74601
6.99324
7.16322
7.18844
7.03093
6.71324
6.3276
5.8898
5.45351
5.03303
4.64632
4.30013
3.98957
3.69381
3.4137
3.17898
3.01957
2.91694
2.81835
2.71209
2.66427
2.66381
2.68816
2.67222
2.64032
2.58368
2.53487
2.49686
2.48267
2.47849
2.49726
2.51789
2.54189
2.54195
2.52225
2.46209
2.37545
2.25657
2.11488
1.92332
1.66484
1.31131
0.857416
0.344511
17.639
18.7233
18.7709
20.0175
20.5431
21.0869
20.8645
21.2299
21.4704
23.1447
24.4381
24.9186
23.8172
21.3737
18.438
14.1951
10.7761
7.0317
4.3447
2.085
0.86649
0.0310799
-0.286899
0.0452663
0.718409
1.47973
2.37511
3.93193
5.67147
7.42516
8.61844
9.57874
9.93517
9.8831
9.46137
8.87366
8.7683
8.88169
8.99787
9.03263
8.92665
8.68637
8.26971
7.69718
7.04128
6.36207
5.82155
5.5479
5.3822
5.40585
5.46677
5.66893
5.89416
6.02342
6.1324
6.34627
6.6761
6.90998
7.09529
7.08458
6.90047
6.57595
6.19622
5.76771
5.34507
4.94277
4.56149
4.20817
3.89914
3.60612
3.32874
3.11085
2.97407
2.88267
2.78396
2.67959
2.6443
2.65679
2.69004
2.68149
2.64488
2.58352
2.53209
2.49045
2.47927
2.48116
2.50642
2.5307
2.55583
2.55467
2.53027
2.4663
2.38204
2.27196
2.13957
1.95203
1.69162
1.33028
0.87654
0.328596
17.6207
18.6858
18.7376
19.9102
20.4575
20.9856
20.77
21.0941
21.3171
23.053
24.381
24.8046
23.6547
21.1431
18.128
13.8743
10.4786
6.76426
4.08373
1.8451
0.649319
-0.196382
-0.424714
-0.070928
0.582947
1.39414
2.37664
3.93196
5.56568
7.33582
8.56001
9.4883
9.76592
9.73719
9.34889
8.82091
8.69525
8.77073
8.87027
8.91814
8.81267
8.57094
8.15145
7.58173
6.93339
6.26162
5.73035
5.46751
5.322
5.34505
5.41651
5.61707
5.83473
5.92269
6.01981
6.24284
6.60538
6.82868
6.99271
6.94817
6.73838
6.41687
6.04393
5.63045
5.22568
4.85032
4.47778
4.11713
3.8028
3.51007
3.23754
3.03589
2.92001
2.83803
2.73903
2.63846
2.61761
2.64399
2.68375
2.67946
2.63699
2.57107
2.51939
2.4784
2.47277
2.48129
2.51241
2.53924
2.5617
2.55444
2.52381
2.45734
2.37901
2.28027
2.15813
1.97451
1.71217
1.34302
0.89064
0.311619
17.593
18.6427
18.7072
19.7881
20.3626
20.8686
20.6697
20.9412
21.1479
22.9447
24.3037
24.6574
23.4481
20.881
17.804
13.5401
10.1678
6.49471
3.82943
1.61725
0.446846
-0.405011
-0.525174
-0.15251
0.475361
1.31073
2.3779
3.90479
5.46322
7.18856
8.46562
9.35645
9.556
9.56148
9.23932
8.77027
8.59918
8.63401
8.72338
8.78104
8.67572
8.43385
8.01528
7.45271
6.81596
6.15385
5.63473
5.38038
5.2566
5.28233
5.37049
5.56634
5.75739
5.79484
5.88445
6.14921
6.50878
6.74112
6.86566
6.79364
6.56285
6.24823
5.87291
5.47624
5.091
4.74669
4.39183
4.03861
3.71922
3.42463
3.15907
2.97204
2.87307
2.79782
2.69895
2.6048
2.5984
2.63997
2.68372
2.67897
2.63229
2.56322
2.51191
2.47505
2.47614
2.49132
2.52503
2.54963
2.56612
2.54869
2.51063
2.44493
2.37727
2.29239
2.18075
1.99972
1.73325
1.3542
0.901811
0.294913
17.5503
18.6039
18.6758
19.6359
20.2363
20.7358
20.5648
20.7947
20.9912
22.8482
24.2283
24.5037
23.2379
20.6246
17.4923
13.2431
9.88263
6.24682
3.59943
1.39795
0.247112
-0.616181
-0.650288
-0.244784
0.368234
1.21231
2.33072
3.82427
5.36022
6.98815
8.27656
9.16604
9.30466
9.37328
9.13758
8.71355
8.496
8.495
8.58008
8.63593
8.53016
8.29303
7.88062
7.32724
6.70142
6.04897
5.54005
5.29087
5.18558
5.21272
5.31905
5.51256
5.6711
5.65387
5.73044
6.05556
6.38358
6.62344
6.70901
6.62432
6.39152
6.07936
5.69429
5.308
4.92958
4.60625
4.27867
3.95147
3.63198
3.33604
3.08167
2.90795
2.82137
2.74922
2.65091
2.56428
2.57087
2.62771
2.672
2.66477
2.61586
2.54712
2.49934
2.46929
2.47692
2.49657
2.53027
2.54834
2.55411
2.52595
2.48161
2.42194
2.36952
2.30103
2.20004
2.02025
1.74734
1.35668
0.904509
0.275859
17.481
18.5729
18.6359
19.4722
20.092
20.5784
20.4472
20.6245
20.8174
22.7295
24.1374
24.3029
22.9754
20.3294
17.1542
12.9371
9.59575
6.00326
3.38046
1.19649
0.0612268
-0.791098
-0.754661
-0.330394
0.304642
1.13078
2.27224
3.72308
5.26728
6.75725
7.99044
8.89261
9.02352
9.17736
9.03132
8.63515
8.37274
8.33262
8.41198
8.46403
8.35922
8.12971
7.72885
7.19035
6.57635
5.93738
5.44202
5.19904
5.10944
5.14221
5.25975
5.44356
5.57221
5.50776
5.59791
5.96939
6.28175
6.49647
6.54027
6.44587
6.22758
5.91357
5.52704
5.151
4.76103
4.44777
4.15189
3.8538
3.54782
3.25717
3.01999
2.86046
2.78198
2.70963
2.61286
2.53339
2.55109
2.62112
2.66437
2.65329
2.60409
2.53926
2.49766
2.47433
2.48591
2.50616
2.53517
2.54315
2.53274
2.4948
2.44931
2.4024
2.36917
2.31771
2.22451
2.04115
1.75623
1.35096
0.89858
0.254525
17.3841
18.5427
18.5904
19.2926
19.93
20.399
20.3245
20.4616
20.6575
22.6201
24.0467
24.0918
22.7125
20.036
16.8313
12.6588
9.34097
5.7843
3.1785
1.0042
-0.132032
-0.935064
-0.862114
-0.431894
0.234708
1.03048
2.18058
3.58184
5.13526
6.5257
7.68072
8.55566
8.72223
8.98396
8.92135
8.54317
8.24598
8.16848
8.24366
8.28875
8.18868
7.96783
7.5827
7.05916
6.45305
5.82939
5.34579
5.10748
5.0252
5.07305
5.18511
5.34444
5.44118
5.34303
5.47102
5.85674
6.19169
6.36392
6.37152
6.23727
6.0414
5.73129
5.35468
4.99387
4.59291
4.27702
4.01131
3.72918
3.44564
3.16827
2.95321
2.81069
2.73817
2.66405
2.56902
2.49553
2.52371
2.60243
2.64509
2.6315
2.58437
2.52516
2.49101
2.47358
2.48706
2.50522
2.52483
2.51887
2.49248
2.44697
2.40917
2.38219
2.3711
2.33535
2.24592
2.05344
1.75183
1.33161
0.881021
0.230025
17.2717
18.5044
18.5346
19.107
19.7665
20.2242
20.1758
20.2746
20.497
22.5068
23.9442
23.8416
22.4114
19.7132
16.497
12.377
9.09989
5.57624
2.98834
0.834625
-0.296924
-1.03523
-0.934555
-0.48788
0.170348
0.93362
2.08762
3.43075
4.99563
6.28427
7.39224
8.20454
8.42241
8.79196
8.79842
8.42907
8.10216
7.98503
8.05543
8.0917
7.99886
7.78727
7.42353
6.91706
6.32035
5.71645
5.24516
5.01357
4.93763
5.01211
5.10671
5.23277
5.26965
5.1339
5.33258
5.72208
6.0903
6.24122
6.22909
6.02168
5.83718
5.53618
5.17589
4.84023
4.44171
4.11564
3.86624
3.60095
3.34053
3.08367
2.89355
2.7707
2.7038
2.63122
2.53789
2.46935
2.50784
2.5897
2.63166
2.61858
2.57517
2.52164
2.49338
2.47893
2.49039
2.50236
2.5081
2.48228
2.44453
2.39751
2.37735
2.37512
2.38508
2.35924
2.26539
2.05541
1.732
1.29805
0.85245
0.203758
17.1589
18.4541
18.4735
18.9137
19.5888
20.0443
20.0188
20.1031
20.3723
22.4384
23.8445
23.5909
22.128
19.4105
16.189
12.1181
8.89923
5.39643
2.81259
0.66395
-0.443869
-1.14117
-1.02221
-0.598867
0.0686995
0.824647
1.97377
3.2517
4.79708
6.02371
7.12813
7.86587
8.13455
8.60881
8.6637
8.30635
7.96684
7.82486
7.88273
7.89613
7.81013
7.61071
7.27274
6.7801
6.18983
5.60759
5.14134
4.9142
4.85184
4.94823
5.01934
5.11415
5.07367
4.91233
5.17553
5.55545
5.95458
6.10317
6.07829
5.82509
5.62889
5.32493
4.98448
4.67492
4.28746
3.95451
3.70247
3.45839
3.21879
2.986
2.82069
2.71754
2.65651
2.58997
2.4995
2.43614
2.48235
2.56473
2.60856
2.59758
2.5591
2.51105
2.48738
2.47353
2.47985
2.47987
2.46957
2.42204
2.38109
2.34537
2.35148
2.37551
2.40162
2.37836
2.27189
2.03807
1.69251
1.25063
0.814302
0.178105
17.0376
18.387
18.3965
18.7107
19.394
19.8877
19.8771
19.9481
20.2501
22.3981
23.7282
23.2967
21.8173
19.09
15.8827
11.8597
8.70997
5.23445
2.65705
0.519127
-0.549621
-1.22277
-1.0866
-0.689992
-0.023672
0.746735
1.88342
3.09031
4.59998
5.77595
6.86601
7.55359
7.87304
8.43434
8.51436
8.16804
7.81994
7.65175
7.69435
7.68324
7.59991
7.41705
7.11056
6.63357
6.05114
5.49689
5.03168
4.81658
4.77643
4.8756
4.93198
4.99793
4.86993
4.72141
5.04271
5.37871
5.78484
5.95052
5.92364
5.65596
5.42825
5.11145
4.7892
4.50424
4.1371
3.80855
3.54958
3.32633
3.1059
2.89666
2.7535
2.66691
2.6127
2.55775
2.47146
2.41474
2.46614
2.54664
2.59482
2.58733
2.5543
2.51017
2.48749
2.46894
2.46502
2.44398
2.41434
2.35498
2.31914
2.30928
2.34568
2.38987
2.4211
2.39008
2.26079
1.99859
1.63376
1.19114
0.768639
0.155347
16.9178
18.3078
18.3101
18.5009
19.1797
19.7275
19.7251
19.7903
20.1366
22.39
23.5831
22.9927
21.5263
18.7936
15.6065
11.6426
8.5465
5.09426
2.51792
0.380155
-0.645774
-1.30994
-1.16972
-0.758092
-0.126646
0.668787
1.78399
2.91993
4.37961
5.53248
6.60788
7.24845
7.62777
8.2776
8.36302
8.02412
7.67224
7.4851
7.50829
7.47589
7.39649
7.23249
6.95881
6.49411
5.91643
5.39154
4.92457
4.72627
4.70424
4.78714
4.84458
4.87445
4.66964
4.54857
4.90858
5.21848
5.56474
5.743
5.74274
5.47682
5.22328
4.89134
4.58327
4.3159
3.97542
3.65526
3.39391
3.18799
2.98606
2.80218
2.67787
2.60068
2.55475
2.51289
2.43318
2.38613
2.44048
2.51741
2.57
2.56807
2.54093
2.49991
2.47583
2.44733
2.42831
2.38564
2.33422
2.28017
2.26278
2.28579
2.34855
2.40265
2.42931
2.38207
2.22385
1.93561
1.5596
1.12547
0.719372
0.138364
16.7817
18.2099
18.2021
18.2751
18.9461
19.5639
19.5824
19.6114
19.987
22.3683
23.3802
22.6218
21.1937
18.4744
15.3331
11.4404
8.39477
4.97121
2.40411
0.278377
-0.716181
-1.37394
-1.22479
-0.794692
-0.193981
0.60214
1.70688
2.76022
4.16234
5.29012
6.35803
6.96954
7.40281
8.12962
8.20461
7.86314
7.50207
7.29572
7.29195
7.24167
7.17584
7.03792
6.79687
6.34564
5.78138
5.28786
4.82506
4.65279
4.63573
4.69118
4.75373
4.72101
4.45198
4.41311
4.76747
5.10622
5.3665
5.50279
5.53395
5.29303
5.01959
4.67884
4.38005
4.1261
3.81705
3.50525
3.25072
3.05447
2.87423
2.71827
2.61218
2.54187
2.50622
2.47593
2.40534
2.37099
2.4254
2.49768
2.55392
2.55764
2.53515
2.49549
2.46424
2.42007
2.37473
2.31626
2.25275
2.21507
2.22749
2.282
2.35936
2.40908
2.42165
2.3496
2.1602
1.85258
1.47429
1.05582
0.668138
0.127227
16.6479
18.1021
18.0836
18.0463
18.6989
19.3843
19.4352
19.4374
19.8446
22.3373
23.1483
22.244
20.8761
18.1769
15.0862
11.2719
8.26904
4.86525
2.30333
0.179554
-0.804263
-1.44746
-1.29024
-0.853093
-0.266354
0.511038
1.61318
2.58306
3.91892
5.03859
6.10361
6.71545
7.19406
7.9855
8.04787
7.70191
7.32977
7.11319
7.0835
7.01142
6.95988
6.85734
6.64165
6.20331
5.65899
5.19253
4.73454
4.58842
4.56397
4.58744
4.65277
4.53288
4.23229
4.29746
4.63097
4.98886
5.21248
5.27342
5.29094
5.08827
4.80259
4.46427
4.16905
3.92367
3.64364
3.34566