/*--------------------------------*- C++ -*----------------------------------*\
| =========                 |                                                 |
| \\      /  F ield         | OpenFOAM: The Open Source CFD Toolbox           |
|  \\    /   O peration     | Version:  4.1                                   |
|   \\  /    A nd           | Web:      www.OpenFOAM.org                      |
|    \\/     M anipulation  |                                                 |
\*---------------------------------------------------------------------------*/
FoamFile
{
    version     2.0;
    format      ascii;
    class       surfaceScalarField;
    location    "16";
    object      phi;
}
// * * * * * * * * * * * * * * * * * * * * * * * * * * * * * * * * * * * * * //

dimensions      [0 3 -1 0 0 0 0];

internalField   nonuniform List<scalar> 
52920
(
1712.17
-82.3734
1817.97
-79.8222
1909.35
-87.6776
1999.3
-87.6888
2077.02
-90.3445
2176.27
-91.6552
2260
-98.6468
2364.46
-106.487
2454.03
-109.788
2549.52
-106.762
2630.91
-102.886
2724.03
-106.354
2823.93
-117.902
2962.01
-140.995
3116.01
-161.832
3292.52
-173.706
3469.03
-175.155
3633.64
-161.99
3786.77
-144.755
3914.9
-123.9
4036.16
-106.662
4133.05
-91.0198
4228.08
-78.8079
4304.69
-67.595
4381.06
-58.9998
4442.06
-50.7033
4501.98
-43.5115
4546.09
-36.1731
4589
-31.4681
4624.31
-28.4644
4659.91
-28.0816
4695.84
-30.1014
4736.77
-35.486
4785.27
-45.2721
4844.7
-57.1674
4913.24
-68.1949
4987.18
-75.5435
5065.71
-78.6951
5141.95
-78.4345
5217.72
-76.8233
5291.13
-74.8636
5361.06
-72.6871
5429.71
-70.5829
5495.07
-67.61
5559.44
-63.9625
5614.26
-58.8309
5656.03
-53.041
5709.49
-49.5086
5747.22
-44.0848
5792.7
-40.4446
5824.28
-35.5717
5861.12
-32.484
5887.9
-28.8509
5918.37
-27.0099
5944.59
-25.5204
5973.67
-25.9642
6002.65
-27.5311
6034.77
-30.9729
6072.64
-36.2594
6114.99
-41.9426
6163.57
-47.9865
6216.53
-52.8472
6273.11
-56.452
6332.6
-58.8403
6392.26
-59.9881
6454.43
-61.0196
6515.59
-61.4723
6579.43
-62.3338
6642
-62.9018
6707.38
-63.866
6771.91
-64.5851
6839.07
-65.5274
6905.44
-66.234
6974.04
-67.0117
7041.94
-67.542
7111.58
-68.0371
7180.28
-68.2582
7250.32
-68.4537
7319.47
-68.444
7389.69
-68.4759
7459.06
-68.3864
7529.33
-68.3627
7598.97
-68.3058
7669.37
-68.3371
7739.5
-68.4777
7810.42
-68.7866
7881.81
-69.4025
7954.3
-70.2677
8028.01
-71.4477
8102.97
-72.7043
8179.46
-74.0347
8256.76
-75.1384
8335.28
-76.072
8413.68
-76.691
8493.03
-77.2654
8571.67
-77.7933
8653.59
-80.0236
8735.13
-81.1012
8833.52
-96.4562
-94.889
1839.24
-166.009
1960.67
-167.151
2064.68
-180.842
2167.58
-184.996
2256.81
-194.334
2370.06
-200.902
2467.95
-216.813
2589.38
-236.699
2696.52
-249.268
2808.4
-249.527
2907.56
-250.757
3020.08
-263.804
3139.59
-285.668
3299.27
-325.3
3469.29
-350.596
3661.73
-362.433
3849.08
-352.064
4024.35
-320.827
4186.01
-281.364
4322.74
-237.365
4451.86
-200.253
4556.56
-167.031
4659.61
-141.792
4744.72
-119.521
4829.65
-102.979
4899.22
-87.4184
4968.16
-75.0506
5021.65
-63.5716
5074.14
-57.563
5118.64
-54.5452
5163.23
-56.1369
5208.16
-61.6501
5258.25
-73.8971
5316.27
-95.393
5385.39
-120.442
5463.65
-143.583
5547.03
-158.135
5634.6
-163.809
5719.63
-162.937
5804.05
-159.19
5886.1
-154.991
5964.91
-151.015
6042.71
-147.03
6117.61
-141.634
6191.93
-135.171
6257.51
-126.509
6311.07
-116.611
6376.11
-109.548
6426.46
-99.7886
6484.51
-92.4348
6529.59
-83.6416
6579.96
-77.5799
6620.9
-71.0967
6665.62
-67.6694
6706.48
-65.3471
6750.39
-66.4899
6794.4
-70.105
6841.65
-76.9331
6894.48
-86.9054
6951.57
-97.5531
7014.46
-108.939
7081.19
-117.965
7150.86
-124.5
7222.68
-128.735
7293.85
-130.681
7366.53
-132.035
7437.19
-132.393
7509.24
-133.022
7578.8
-133.185
7649.65
-133.656
7718.22
-133.766
7787.75
-133.932
7854.93
-133.767
7922.65
-133.462
7988.07
-132.846
8053.53
-131.983
8116.49
-130.778
8179.12
-129.414
8239.25
-127.813
8298.82
-126.206
8355.9
-124.493
8412.24
-122.803
8466.31
-121.12
8519.45
-119.493
8570.6
-118.049
8620.69
-116.807
8669.26
-116.032
8716.83
-115.667
8763.43
-115.819
8809.12
-116.216
8854.22
-116.804
8898.17
-117.203
8941.5
-117.381
8982.97
-117.193
9023.48
-116.818
9061.65
-116.681
9099.8
-118.252
9137.01
-119.997
9175.88
-134.71
-139.871
2011.04
-267.058
2145.1
-277.886
2264.13
-299.02
2380.79
-300.475
2483.89
-308.387
2606.79
-314.721
2714.48
-336.239
2841.01
-361.818
2952.68
-374.744
3066.66
-366.627
3167.56
-361.287
3277.58
-374.357
3388.64
-403.42
3529.76
-462.111
3675.3
-501.834
3840.11
-526.408
4002.91
-518.014
4159.1
-480.163
4307.61
-427.819
4436.66
-369.129
4561.58
-317.937
4665.6
-272.878
4769.95
-237.941
4858.81
-207.507
4948.81
-183.524
5025.16
-161.115
5101.86
-142.201
5164.58
-124.275
5226.9
-113.063
5281.63
-106.108
5335.93
-105.644
5389.04
-111.295
5444.52
-126.105
5504.67
-153.883
5572.94
-187.942
5649.18
-220.467
5731.23
-242.748
5819.24
-253.004
5906.97
-253.999
5995.75
-250.326
6083.4
-245.386
6168.65
-240.206
6253.41
-234.83
6335.69
-227.32
6417.74
-217.773
6491.83
-205.145
6554.79
-191.051
6628.96
-180.406
6689.16
-166.678
6756.86
-155.733
6812.11
-143.256
6872.31
-133.884
6923
-124.128
6976.69
-118.141
7025.64
-113.705
7076.23
-114.056
7125.26
-117.663
7175.47
-126.104
7229.05
-139.037
7284.47
-153.213
7343.46
-167.9
7403.97
-179.125
7465.2
-186.386
7526.51
-189.931
7585.12
-190.12
7643.34
-189.283
7697.68
-187.188
7751.71
-185.443
7801.61
-183.311
7851.32
-181.589
7897.32
-179.609
7943.02
-177.726
7985.19
-175.599
8026.81
-173.299
8065.11
-170.697
8102.55
-167.737
8136.56
-164.334
8169.41
-160.612
8198.85
-156.55
8226.89
-152.365
8251.49
-148.045
8274.49
-143.7
8294.24
-139.374
8312.13
-135.094
8326.98
-131.036
8339.75
-127.184
8349.87
-123.903
8357.87
-121.153
8363.77
-119.135
8367.74
-117.571
8370.23
-116.403
8370.77
-115.143
8370.01
-113.588
8366.64
-111.574
8361.52
-108.885
8353.23
-106.899
8343.3
-105.53
8331.79
-107.278
8314.29
-114.377
-137.342
2169.68
-370.057
2305.97
-386.198
2425.9
-409.706
2539.84
-410.568
2637.58
-419.658
2749.19
-424.656
2842.51
-448.945
2949.41
-479.029
3039.72
-496.184
3128.75
-486.242
3199.59
-477.712
3269.28
-485.449
3326.98
-504.601
3403.46
-556.69
3480.73
-591.252
3581.82
-616.629
3691.71
-611.172
3807.59
-574.969
3927.51
-519.299
4036.59
-453.334
4148.11
-392.93
4242.74
-339.35
4341.43
-297.164
4426.93
-261.387
4516.18
-233.11
4593.26
-207.713
4672.71
-186.628
4739.17
-168.206
4806.6
-157.425
4867
-151.884
4927.13
-152.607
4984.49
-158.387
5040.27
-173.271
5095.18
-203.553
5153.01
-242.666
5216.31
-283.191
5286.22
-313.547
5365.22
-330.325
5447.51
-335.645
5533.81
-333.641
5620.86
-328.91
5706.47
-323.408
5792.05
-316.77
5875.16
-307.343
5958.19
-295.51
6033.1
-280.71
6096.63
-264.136
6172.39
-249.688
6233.68
-232.693
6303.36
-217.93
6360.13
-202.404
6422.43
-189.607
6474.4
-176.863
6529.21
-167.863
6577.96
-160.918
6627.24
-159.321
6673.12
-161.905
6718.35
-170.153
6765.4
-183.771
6812.62
-199.289
6862.38
-215.723
6912.61
-227.972
6962.77
-235.127
7012.46
-237.762
7058.77
-236.336
7104.58
-233.52
7146.12
-229.401
7187.57
-225.628
7224.8
-221.665
7262.33
-218.162
7296.35
-214.567
7330.71
-211.016
7361.9
-207.321
7393.24
-203.335
7421.73
-199.091
7450.03
-194.332
7475.32
-189.087
7500.08
-183.367
7521.74
-177.23
7542.46
-170.826
7559.9
-164.228
7576.04
-157.458
7588.95
-150.636
7600.1
-143.711
7608.07
-136.929
7613.86
-130.29
7616.77
-124.271
7617.41
-118.955
7615.84
-114.666
7612.33
-111.207
7607.46
-108.468
7600.76
-105.866
7592.95
-103.034
7582.47
-99.5842
7570.13
-95.1112
7554.06
-91.4851
7535.61
-87.3064
7514.15
-88.2903
7490.39
-90.4009
-130.149
2274.46
-468.848
2392.11
-484.131
2489.83
-508.119
2578.22
-498.159
2646.46
-497.346
2721.79
-490.803
2772.68
-510.814
2832.29
-536.103
2873.53
-549.122
2911.31
-523.863
2924.75
-496.182
2927.38
-482.427
2906.53
-486.441
2902.47
-542.789
2905.88
-600.102
2949.74
-660.146
3019.67
-687.298
3109.74
-671.897
3213.82
-624.067
3311.26
-557.512
3414.55
-490.789
3500.33
-431.09
3591.59
-381.916
3668.45
-340.869
3750.16
-306.397
3818.56
-276.299
3890.39
-249.378
3948.18
-226.192
4008.07
-210.833
4061.11
-203.079
4115.26
-202.525
4166.8
-207.312
4215.18
-219.068
4259.18
-246.213
4301.82
-284.831
4347.22
-329.473
4399.02
-368.631
4462.26
-395.154
4531.67
-409.339
4608.08
-413.274
4687.3
-411.956
4766.24
-407.832
4846.03
-401.099
4923.5
-390.237
5001.36
-375.296
5070.43
-356.801
5127.24
-336.537
5198.98
-317.431
5254.81
-297.582
5321.3
-278.925
5373.85
-261.004
5433.82
-244.62
5482.61
-228.945
5535.5
-216.455
5581.79
-206.471
5629.06
-202.5
5672.43
-203.221
5715.05
-211.323
5759.88
-226.457
5805.03
-245.008
5853.74
-264.588
5903.58
-279.029
5954
-286.813
6004.73
-288.5
6052.35
-285.283
6100.34
-280.205
6144.29
-273.976
6189.12
-268.216
6230.08
-262.787
6272.4
-257.976
6311.75
-253.516
6352.49
-249.155
6390.71
-244.963
6430.12
-240.41
6467.35
-235.696
6505.36
-230.24
6540.97
-224.162
6576.94
-217.271
6610.34
-209.764
6643.56
-201.676
6673.91
-193.253
6703.54
-184.45
6730.24
-175.465
6755.56
-166.193
6777.82
-156.881
6797.95
-147.485
6815.01
-138.582
6829.51
-130.4
6841.47
-123.466
6851.19
-117.754
6859.41
-113.171
6865.73
-109.013
6870.98
-104.576
6873.29
-99.1161
6873.4
-91.7137
6868.83
-84.8795
6860.22
-75.1603
6848.12
-74.2246
6834.84
-73.3164
-128.013
2285.71
-533.318
2365.61
-538.599
2424.39
-559.132
2472.24
-544.145
2495.21
-535.849
2518.62
-514.707
2510.35
-526.531
2508.55
-549.505
2488.98
-567.726
2468.63
-540.609
2423.57
-503.947
2368.62
-473.222
2293.41
-457.99
2253.3
-513.596
2242.28
-593.703
2294.81
-690.036
2385.25
-751.595
2498.03
-756.741
2621.5
-713.417
2730.62
-639.293
2840.19
-560.118
2924.32
-487.086
3010.55
-426.085
3076.51
-374.818
3145.42
-332.447
3196.58
-296.57
3250.25
-265.847
3286.17
-241.344
3324.04
-226.389
3353.78
-221.198
3386.09
-224.048
3417.76
-231.14
3448.83
-243.549
3477.62
-271.435
3505.65
-311.383
3535.86
-360.649
3571.47
-406.158
3618.62
-439.746
3672.14
-460.459
3733.9
-468.695
3799.62
-470.06
3865.92
-467.799
3934.22
-461.468
4000.56
-449.936
4067.94
-433.766
4125.22
-414.223
4168.57
-392.486
4230.48
-369.975
4274.04
-347.299
4331.06
-325.439
4372.26
-305.381
4423.3
-286.488
4461.9
-268.693
4506.61
-254.181
4544.46
-242.569
4584.87
-237.716
4621.72
-238.527
4658.95
-247.755
4700.27
-265.141
4743.31
-287.396
4792.26
-311.371
4843.77
-329.225
4897.05
-338.713
4951.62
-340.904
5003.23
-337.276
5056.07
-331.26
5104.77
-324.02
5155.17
-317.269
5201.66
-311.102
5250.33
-305.695
5296.19
-300.848
5344.27
-296.104
5390.13
-291.636
5437.96
-286.741
5484.04
-281.686
5531.68
-275.777
5577.37
-269.16
5624.22
-261.603
5668.97
-253.302
5714.34
-244.229
5757.29
-234.659
5800.26
-224.485
5840.76
-213.92
5880.51
-202.793
5917.59
-191.341
5952.99
-179.518
5985.53
-167.905
6015.58
-156.869
6042.96
-147.166
6067.95
-139.082
6091.38
-132.634
6112.95
-127.142
6133.71
-121.563
6151.53
-114.499
6166.95
-104.692
6176.8
-94.697
6181.18
-79.3608
6182.93
-79.0218
6181.59
-72.5288
-134.256
2207.04
-575.222
2251.43
-563.377
2269.39
-577.404
2273.71
-547.683
2248.39
-520.625
2221.18
-475.192
2159.81
-476.628
2110.87
-494.657
2050.02
-517.873
1997.66
-484.039
1927.88
-435.477
1862.58
-395.217
1795.33
-391.659
1793.41
-498.413
1838.93
-649.08
1955.74
-811.043
2102.35
-911.042
2257.11
-924.846
2408.25
-870.547
2531.81
-775.395
2647.12
-673.718
2728.62
-579.689
2808.08
-501.938
2861.84
-435.434
2916.15
-379.791
2948.33
-331.81
2981.39
-289.701
2992.62
-254.285
3004.57
-230.652
3005.92
-220.325
3010.13
-222.236
3015.14
-232.041
3023.18
-247.57
3033.85
-279.852
3047.25
-324.235
3064.07
-378.875
3085.34
-432.102
3117.12
-473.954
3154.04
-503.562
3199.16
-518.786
3248.55
-525.336
3299.02
-526.619
3352.56
-522.005
3404.39
-510.118
3457.85
-490.874
3499.75
-466.466
3525.68
-440.109
3573.76
-412.704
3600.55
-386.346
3643.47
-360.994
3668.23
-338.585
3705.07
-316.704
3727.63
-296.035
3758.23
-278.762
3781.38
-264.738
3808.75
-259.149
3832.94
-259.623
3858.9
-271.226
3891.15
-293.627
3926.87
-323.685
3971.35
-355.764
4020.03
-379.514
4071.63
-391.986
4125.42
-394.429
4176.19
-389.697
4228.87
-381.842
4277.09
-372.843
4327.61
-364.492
4373.92
-357.328
4423.04
-351.228
4469.24
-346.265
4518.27
-341.567
4565.14
-337.561
4614.55
-333.117
4662.39
-328.669
4712.42
-323.149
4760.76
-316.806
4810.98
-309.164
4859.43
-300.617
4909.29
-291.014
4957.15
-280.81
5005.78
-269.781
5052.43
-258.226
5099.08
-245.917
5143.64
-233.048
5187.21
-219.465
5228.38
-205.695
5267.46
-192.192
5304.17
-179.993
5338.71
-169.737
5372.06
-161.685
5403.92
-155.16
5435.51
-148.624
5464.36
-139.951
5490.93
-126.957
5511.41
-112.527
5526.59
-90.3875
5541.82
-91.8178
5549.2
-75.4127
-142.401
2097.26
-589.716
2110.97
-549.568
2091.91
-550.506
2059.07
-514.271
1997.94
-479.156
1943.36
-422.786
1862.32
-427.967
1806.04
-460.293
1743.23
-503.915
1694.84
-481.487
1634.97
-438.347
1592.75
-403.414
1563.93
-411.735
1617.27
-554.052
1719.01
-747.251
1882.45
-943.903
2060.85
-1058.83
2234.56
-1068.88
2395.25
-997.32
2521.84
-876.237
2635.65
-749.232
2712.14
-631.346
2784.5
-534.641
2828.76
-450.384
2872.1
-381.133
2890.75
-321.489
2909.14
-271.452
2902.93
-230.185
2896.1
-203.473
2876.18
-192.474
2858.27
-196.671
2841.15
-210.079
2829.03
-231.289
2823.5
-271.993
2823.91
-324.137
2828.9
-385.509
2837.29
-442.459
2854.94
-487.561
2876.71
-520.352
2906.46
-538.368
2940.63
-547.666
2976.29
-552.104
3015.88
-549.87
3054.05
-538.94
3094.31
-519.989
3121.72
-495.199
3131.45
-466.983
3166.44
-436.282
3177.65
-406.195
3207.33
-377.854
3216.77
-352.916
3240.14
-328.757
3247.22
-305.567
3263.79
-286.874
3271.8
-271.66
3285.33
-266.751
3295.47
-269.319
3308.4
-284.329
3329.49
-312.181
3355.74
-350.376
3393.71
-391.307
3437.38
-421.919
3484.97
-438.195
3535.39
-442.305
3582.46
-437.787
3631.9
-429.314
3676.29
-419.442
3723.4
-410.205
3765.8
-402.386
3811.42
-395.881
3853.87
-390.712
3899.53
-385.935
3942.97
-381.972
3989.36
-377.66
4034.27
-373.323
4081.79
-367.997
4127.7
-361.828
4176.01
-354.408
4222.76
-346.012
4271.51
-336.464
4318.52
-326.107
4366.94
-314.757
4413.81
-302.724
4461.46
-289.824
4507.67
-276.118
4553.64
-261.368
4597.77
-245.93
4640.33
-230.392
4680.89
-216.032
4719.57
-203.902
4757.57
-194.702
4794.56
-187.671
4831.74
-180.676
4866.31
-170.692
4899.09
-155.585
4926.41
-138.336
4950.93
-113.554
4977.08
-121.001
4984.84
-84.9321
-153.002
1976.18
-593.722
1971.89
-522.634
1933.14
-512.337
1885.58
-465.227
1816.39
-421.158
1766.36
-357.077
1697.39
-370.56
1657.83
-411.572
1607.32
-461.801
1567.33
-431.814
1514.44
-380.062
1485.72
-353.068
1480.39
-402.521
1565.61
-623.505
1694.98
-889.462
1875.63
-1134.43
2061.92
-1264.27
2237.92
-1264.01
2397.95
-1168.64
2522.41
-1017.84
2632.94
-862.344
2705.41
-718.628
2773.3
-602.051
2812.41
-499.359
2850.07
-413.99
2861.76
-338.649
2872.71
-273.831
2857.38
-217.52
2840.36
-177.945
2808.06
-157.843
2776.61
-158.391
2745.13
-174.081
2719.33
-200.858
2702.57
-251.572
2693.09
-312.717
2687.99
-380.371
2684.59
-443.653
2689.17
-495.168
2697.16
-536.295
2713.03
-561.995
2733.63
-578.207
2756.31
-588.487
2783.83
-589.978
2810.25
-579.427
2839.25
-557.116
2854.59
-526.246
2851.03
-489.909
2875.62
-453.829
2874.52
-419.361
2894.15
-388.335
2891.94
-361.2
2905.41
-334.41
2900.62
-307.459
2906.59
-285.6
2902.43
-266.413
2904.69
-261.101
2902.93
-262.94
2904.43
-281.254
2915.4
-316.688
2932.98
-367.643
2965.14
-422.098
3004.35
-462.228
3048.21
-483.188
3095.3
-488.043
3138.52
-482.263
3184.33
-471.66
3224.37
-459.612
3267.35
-448.454
3305.02
-439.432
3346.14
-432.136
3383.71
-426.939
3424.76
-422.374
3463.41
-419.235
3505.24
-415.734
3545.48
-412.417
3588.58
-407.808
3630.02
-402.317
3674.24
-395.237
3716.92
-387.189
3762.07
-377.75
3805.63
-367.497
3851.11
-356.118
3895.35
-344.086
3940.98
-331.138
3985.66
-317.287
4030.82
-302.082
4074.69
-285.633
4117.55
-268.615
4158.84
-252.565
4198.54
-238.856
4237.74
-228.664
4275.93
-221.215
4314.63
-213.882
4351.12
-203.024
4387.59
-186.873
4421
-168.539
4455.27
-143.247
4488.85
-152.367
4487.26
-78.7882
-155.998
1859.75
-576.872
1854.64
-484.756
1818.54
-466.362
1776.97
-423.085
1716.44
-382.483
1678.13
-323.361
1619.9
-350.099
1586.09
-404.586
1535.59
-464.577
1491.65
-437.654
1436.97
-390.7
1416.25
-382.008
1431.6
-463.152
1540.85
-727.523
1686.21
-1024.7
1871.58
-1285.7
2056.19
-1416.94
2228.58
-1406.76
2385.12
-1292.03
2506.94
-1114.6
2615.06
-933.169
2685.25
-765.212
2750.82
-628.912
2787.33
-507.088
2822.2
-406.389
2830.07
-317.867
2837.04
-244.014
2816.41
-180.64
2793.39
-136.356
2753.24
-113.73
2712.98
-114.817
2671.79
-132.592
2636.31
-164.8
2611.63
-225.336
2594.85
-294.952
2581.47
-367.261
2567.59
-429.891
2560.19
-481.248
2555.71
-523.449
2559.02
-551.497
2567.31
-571.182
2578.27
-586.931
2594.92
-593.366
2610.71
-585.94
2629.43
-566.003
2633.84
-535.994
2618.26
-497.908
2633.93
-458.038
2622.53
-420.059
2634.39
-386.394
2623.35
-357.246
2629.89
-328.052
2616.25
-298.124
2614.73
-274.281
2601.02
-252.881
2594.64
-248.178
2582.86
-252.618
2574.39
-274.232
2576.2
-316.948
2586.21
-380.356
2613.96
-447.964
2650.1
-498.155
2691.49
-524.289
2736.33
-530.988
2776.75
-525.198
2820.03
-513.415
2856.91
-499.971
2896.95
-487.299
2931.01
-476.981
2968.53
-468.646
3001.91
-462.607
3038.66
-457.544
3072.61
-454.056
3109.67
-450.503
3144.87
-447.091
3183.03
-442.804
3219.41
-437.741
3258.85
-431.328
3296.77
-423.833
3337.59
-415.017
3377
-405.149
3418.8
-394.109
3459.63
-382.282
3502.35
-369.595
3544.52
-355.915
3587.82
-340.764
3630.41
-323.84
3672.54
-305.824
3713.38
-288.297
3752.73
-273.054
3791.34
-261.458
3828.46
-252.921
3866.34
-245.217
3903.7
-234.933
3944.71
-221.625
3986.61
-207.018
4031.94
-185.508
4067.83
-190.143
4046.81
-59.7393
-156.494
1749.34
-573.914
1757.75
-469.98
1732.38
-441.078
1697.5
-386.984
1641.44
-337.174
1605.56
-268.639
1545.34
-297.409
1505.49
-350.62
1448.9
-409.705
1403.02
-374.772
1356.03
-329.272
1357.52
-354.224
1402.15
-501.793
1532.78
-844.962
1683.32
-1193.82
1862.65
-1481.32
2038.29
-1617.49
2203.14
-1595.89
2354.56
-1459.29
2473.21
-1254.43
2579.35
-1045.27
2648.19
-851.784
2712.84
-695.755
2748.43
-555.221
2782.47
-437.07
2788.62
-330.956
2793.96
-240.568
2770.62
-160.03
2744.38
-99.7293
2699.14
-64.2695
2652.85
-58.4068
2604.76
-76.7512
2562.63
-115.317
2533.2
-190.239
2511.83
-271.386
2492.51
-348.501
2470.14
-413.491
2452.39
-468.424
2436.59
-518.346
2427.88
-553.823
2423.92
-581.031
2423.02
-604.341
2428.32
-615.253
2432.53
-607.432
2439.74
-583.116
2432.04
-545.821
2403.5
-499.407
2409.78
-453.913
2388.17
-413.568
2393.06
-379.628
2374.54
-351.024
2376.01
-320.73
2355.49
-287.132
2348.78
-259.598
2327.3
-231.13
2314.01
-224.076
2293.65
-226.038
2276.02
-248.351
2269.16
-299.739
2272.3
-381.15
2296.52
-468.011
2330.48
-531.335
2370.36
-563.468
2414.29
-571.479
2453.91
-564.892
2497.17
-551.188
2533.63
-535.687
2573.14
-520.267
2605.3
-507.779
2640.03
-497.058
2669.19
-489.761
2701.01
-483.721
2729.25
-480.453
2760.43
-477.242
2789.56
-474.77
2821.96
-471.247
2852.71
-467.234
2887.07
-461.548
2920.17
-455.01
2956.83
-446.991
2992.42
-438.046
3030.97
-427.679
3068.78
-416.557
3108.96
-404.541
3148.99
-391.647
3190.87
-377.216
3232.73
-360.595
3274.62
-342.084
3315.15
-323.057
3353.7
-305.898
3390.75
-292.216
3425.83
-282.476
3462.65
-275.497
3502.32
-269.68
3551.28
-264.613
3605.28
-257.524
3660.24
-235.398
3687.02
-215.096
3638.88
-7.18201
-151.831
1659.14
-558.721
1671.1
-443.594
1646.47
-403.115
1610.8
-349.395
1555.65
-303.732
1519.74
-239.765
1455.33
-273.304
1409.36
-334.074
1352.88
-407.985
1317.22
-390.346
1294.39
-371.057
1328.66
-435.596
1399.26
-614.432
1535.65
-970.928
1675.35
-1320.05
1838.24
-1609.52
2000.05
-1748.19
2155.65
-1723.18
2301.75
-1573.17
2417.81
-1345.74
2523.02
-1113.23
2591.92
-897.207
2657.32
-721.399
2693.81
-561.393
2728.96
-427.282
2735.36
-307.498
2741.13
-207.684
2717.11
-119.987
2689.66
-54.1778
2641.27
-15.009
2590.91
-8.85084
2537.91
-28.0934
2490.63
-70.8444
2457.96
-155.569
2434.09
-244.57
2411.41
-322.865
2382.71
-382.263
2355.94
-432.858
2329.51
-480.505
2308.68
-516.836
2291.57
-547.184
2277.25
-577.769
2268.74
-595.577
2257.72
-591.914
2248.89
-570.557
2224.33
-535.078
2178.62
-487.619
2172.78
-438.989
2139.56
-397.791
2137.47
-363.759
2112.51
-335.884
2110.94
-304.355
2085.75
-268.265
2076.68
-237.655
2049.22
-205.042
2030.99
-197.456
2003.19
-201.064
1976.76
-225.265
1961.17
-285.345
1957.69
-385.775
1979.06
-491.383
2011.84
-568.486
2052.21
-607.699
2098.68
-619.064
2142.06
-613.779
2189.89
-599.005
2229.36
-580.322
2269.69
-559.951
2299.36
-541.75
2329.19
-525.931
2351.64
-514.717
2376.34
-506.582
2397.73
-502.591
2423.06
-499.89
2447.36
-498.42
2476.21
-496.672
2504.21
-494.509
2536.7
-490.611
2568.29
-485.506
2604
-478.902
2638.66
-470.885
2676.35
-461.13
2713.05
-450.362
2752.11
-438.909
2791.14
-426.885
2832.4
-413.563
2874.06
-397.672
2915.98
-378.842
2956.31
-357.959
2993.45
-337.491
3027.7
-319.969
3059.89
-308.44
3097.04
-304.818
3143.05
-308.881
3204.18
-317.832
3268.87
-317.091
3325.06
-286.268
3330.72
-219.826
3260.1
65.05
-166.626
1561.94
-561.41
1573.71
-431.699
1548.83
-379.559
1515.25
-315.218
1464.29
-262.586
1429.13
-182.16
1360.13
-207.153
1313.29
-267.592
1267.82
-357.206
1254.93
-354.118
1262.88
-357.16
1325.15
-463.18
1405.36
-686.929
1529.77
-1083.66
1646.85
-1460.56
1789.69
-1773.6
1938.54
-1926.22
2086.91
-1899.39
2229.32
-1734.15
2343.55
-1483.67
2448.29
-1225.5
2517.56
-985.768
2584.29
-791.015
2622.33
-613.338
2659.49
-461.102
2667.19
-323.279
2674.13
-205.447
2649.88
-98.8582
2622.19
-14.7146
2572.49
40.6009
2520.05
56.9266
2463.7
39.1807
2412.68
-9.83723
2378.71
-113.336
2355.04
-216.612
2331.74
-298.323
2298.19
-353.756
2262.69
-403.436
2224.91
-457.004
2190.4
-498.39
2157.66
-533.152
2126.48
-571.695
2098.99
-590.705
2065.39
-580.509
2032.15
-549.76
1983.03
-507.102
1914.14
-453.875
1893.24
-401.812
1847.02
-367.557
1838.86
-339.921
1809.23
-321.069
1807.69
-292.668
1780.84
-255.579
1773.15
-220.337
1742.17
-175.492
1721.53
-161.171
1688.31
-159.3
1654.15
-178.503
1630.14
-246.62
1620.39
-370.9
1639.83
-503.205
1674.4
-599.826
1720.93
-651.222
1777.22
-669.205
1830.85
-665.847
1886.68
-646.716
1928.82
-620.308
1966.97
-589.285
1990.51
-562.764
2013.56
-541.05
2030.57
-528.885
2053.18
-522.644
2075.93
-523.095
2105.9
-524.9
2136.99
-527.805
2174.14
-529.316
2210.57
-529.372
2251.15
-526.353
2289.63
-521.592
2331.1
-514.832
2369.8
-506.22
2409.96
-495.334
2447.39
-483.39
2485.94
-471.134
2523.54
-459.172
2562.92
-446.382
2602.44
-431.007
2641.72
-411.324
2678.58
-387.866
2710.47
-362.531
2738.73
-340.743
2766.82
-330.045
2805.69
-336.234
2860.18
-357.928
2931.46
-382.441
2997.67
-379.529
3034.78
-317.698
3002.17
-184.625
2935.88
136.101
-236.265
1460.83
-538.412
1471.12
-397.028
1447.5
-337.52
1418.91
-282.394
1372.69
-237.446
1335.7
-153.781
1263.28
-176.501
1223.21
-258.871
1200.01
-388.387
1216.74
-421.762
1254.47
-457.287
1333.32
-586.864
1406.34
-799.918
1505.18
-1167.41
1595.41
-1535.16
1721.13
-1864.77
1861.85
-2037.02
2006.49
-2016.74
2146.8
-1842.36
2259.61
-1571.19
2363.74
-1290.85
2433
-1029.8
2500.91
-815.112
2540.28
-618.242
2579.51
-450.601
2588.01
-299.154
2594.91
-170.9
2570.03
-57.3381
2542.48
30.8333
2492.37
88.7525
2439.07
104.471
2380.83
87.3265
2327.06
37.4301
2293.94
-75.9854
2273.48
-187.944
2251.56
-266.018
2212.93
-307.937
2167.48
-347.122
2117.17
-394.052
2067.36
-433.666
2016.06
-470.629
1963.34
-514.486
1908.59
-536.081
1840.17
-522.154
1769.7
-490.265
1686.26
-453.55
1588.93
-408.256
1552.72
-361.382
1495.52
-336.442
1484.98
-316.203
1454.55
-304.232
1457.74
-277.575
1433.37
-239.289
1432.1
-198.727
1400.07
-145.639
1380.06
-127.463
1343.88
-125.089
1302.65
-141.862
1269.45
-218.793
1253.7
-371.995
1275.96
-534.615
1321.72
-657.448
1385.37
-725.092
1459.32
-749.077
1525.26
-741.502
1586.12
-710.302
1626.85
-668.833
1662.01
-625.029
1685.37
-591.649
1715
-569.86
1746.1
-562.661
1789.34
-563.666
1836.6
-570.78
1892.48
-577.651
1948.69
-583.243
2008.8
-585.79
2064.85
-584.796
2121.49
-579.351
2172.16
-571.088
2222.14
-560.621
2265.7
-547.746
2307.65
-532.656
2344.11
-516.858
2379.58
-501.751
2412.39
-488.243
2445.62
-474.706
2477.75
-458.587
2508.2
-436.564
2534.7
-408.761
2555.28
-377.31
2574.02
-352.493
2597.85
-347.23
2639.24
-369.264
2698.47
-410.072
2765.29
-440.559
2809.01
-416.794
2803.17
-303.508
2734.5
-109.79
2725.72
152.177
-400.87
1353.74
-534.211
1363.62
-384.001
1345.26
-323.326
1324.55
-262.699
1281.66
-204.303
1241.79
-88.5464
1170.99
-103.697
1148.97
-212.473
1155.51
-383.185
1200.61
-438.976
1258.05
-487.878
1339.45
-631.003
1391.48
-847.155
1458.84
-1226.78
1525.17
-1630.14
1641.69
-2006.43
1781.22
-2209.24
1926.05
-2192.84
2065.56
-2003.48
2176.47
-1709.02
2278.9
-1402.8
2346.7
-1119.54
2414.63
-887.723
2454.37
-674.379
2495.24
-488.416
2502.99
-316.418
2509
-167.798
2484.33
-36.0162
2457.74
70.3675
2407.54
147.095
2353.53
175.675
2292.89
163.376
2236.11
107.952
2205.39
-35.4531
2189.31
-167.728
2168.49
-243.565
2123.94
-270.638
2068.51
-300.63
2005.66
-349.46
1939.59
-386.298
1866.69
-420.635
1785.48
-464.083
1690.57
-468.731
1571.37
-429.764
1454.02
-386.978
1336.82
-361.322
1218.53
-334.48
1178.75
-296.115
1119.01
-294.723
1113.07
-288.702
1085
-295.138
1095.35
-275.269
1073.92
-237.897
1080.79
-188.181
1046.81
-116.175
1028.05
-78.271
988.932
-70.4198
937.641
-71.6264
891.909
-152.607
875.283
-348.18
915.162
-563.985
989.021
-725.838
1079.77
-810.225
1172.1
-831.973
1246.33
-811.547
1311.36
-763.889
1358.94
-712.067
1410.87
-665.755
1462.44
-639.203
1529.71
-628.106
1602.74
-632.139
1687.23
-641.549
1771.68
-652.913
1858.99
-660.209
1940.69
-663.232
2020.57
-661.236
2091.25
-653.814
2158.1
-641.241
2215.24
-625.573
2268.39
-607.898
2312.2
-587.745
2351.97
-565.917
2384.28
-544.146
2413.94
-524.403
2439.37
-507.644
2463.54
-491.544
2484.76
-472.829
2502.63
-446.77
2514.97
-413.245
2522.33
-376.963
2532.7
-354.668
2555.1
-362.751
2598.83
-405.365
2652.97
-458.703
2697.13
-477.491
2692.62
-408.294
2636.94
-241.551
2581.03
-50.7344
2690.33
46.2241
-660.005
1242.91
-505.856
1261.49
-351.748
1251.57
-289.845
1237.14
-241.913
1194.27
-181.736
1151.45
-53.8011
1089.95
-82.2939
1093.23
-246.154
1130.42
-469.993
1197.53
-553.739
1265.12
-614.417
1337.69
-745.911
1359.14
-907.549
1393.76
-1241.82
1444.44
-1665.19
1561.96
-2091.6
1706.67
-2326.91
1853.94
-2314.96
1992.48
-2111.01
2100.22
-1791.97
2199.38
-1462.07
2264.07
-1157.71
2330.64
-906.411
2369.46
-674.88
2410.06
-474.793
2415.17
-287.742
2420.3
-130.308
2395.7
5.83549
2369.36
115.614
2318.45
194.402
2263.33
221.712
2199.85
212.623
2139.97
159.012
2112.49
0.986292
2100.96
-140.187
2081.17
-204.541
2031.36
-210.176
1967.54
-226.082
1893.5
-262.829
1810.15
-292.791
1710.91
-328.001
1589.55
-356.285
1436.17
-339.766
1256.23
-286.962
1105.17
-269.298
984.146
-294.762
875.952
-305.741
855.618
-277.974
805.053
-283.468
806.874
-277.239
777.662
-285.069
789.54
-261.158
763.259
-219.954
772.98
-161.625
728.69
-74.0442
704.62
-31.1906
655.749
-22.866
582.915
0.210348
523.019
-99.756
527.394
-375.054
614.861
-665.728
733.805
-862.261
854.031
-946.303
964.087
-952.856
1054.37
-916.449
1144.11
-859.559
1228.85
-807.176
1328.05
-766.881
1429.67
-746.703
1541.62
-739.315
1650.18
-742.67
1759.61
-748.414
1860.37
-753.257
1957.09
-753.446
2043.89
-748.854
2125.69
-739.278
2196.45
-723.653
2261.98
-702.969
2317.14
-679.35
2367.64
-654.186
2408.34
-626.52
2444.46
-597.76
2472.65
-569.823
2497.41
-544.905
2516.8
-523.869
2533.43
-503.766
2544.92
-480.128
2551.52
-448.42
2552.61
-408.883
2552.67
-371.407
2561.94
-357.177
2587.49
-382.174
2628.86
-438.96
2663.2
-486.678
2665.76
-470.635
2614.07
-348.763
2552.56
-168.25
2580.23
-69.0884
2811.13
-176.834
-974.158
1160.92
-512.74
1178.54
-347.615
1169.66
-287.504
1156
-230.265
1109.9
-144.058
1067.37
18.748
1023
-29.5855
1055.65
-250.783
1118.83
-516.246
1199.32
-603.23
1267.06
-651.31
1322.04
-759.48
1307.64
-889.325
1315.19
-1243.4
1362.6
-1745.89
1491.25
-2248.41
1645.27
-2515.96
1795.31
-2498.19
1931.82
-2270.43
2034.75
-1923.41
2128.94
-1566.14
2188.88
-1240.92
2252.69
-975.181
2289.55
-730.16
2328.16
-511.164
2329.75
-300.927
2333.44
-125.569
2307.94
27.364
2281.76
155.742
2230.17
257.071
2173.33
300.678
2104.74
302.889
2041.05
242.582
2016.46
38.3135
2008.56
-127.724
1990.45
-185.328
1938.49
-167.419
1869.52
-174.72
1784.16
-212.121
1679.99
-223.566
1545.1
-236.522
1361.83
-228.472
1139.69
-162.816
932.675
-118.905
814.821
-168.88
747.906
-259.163
679.902
-293.314
687.995
-248.545
639.972
-255.424
637.581
-245.742
590.548
-263.129
588.321
-241.114
542.268
-205.092
545.685
-129.282
475.043
-10.0268
432.94
75.406
358.256
87.8564
248.71
145.386
199.345
-18.7175
277.748
-442.161
444.392
-817.75
615.191
-1023.85
770.655
-1092.32
915.712
-1084.89
1047.82
-1041.23
1184.93
-983.099
1315.61
-931.347
1450.46
-890.092
1574.19
-865.299
1694.09
-850.699
1800.95
-845.833
1902.07
-843.861
1991.92
-841.062
2076.74
-834.192
2152.5
-823.134
2224.34
-807.147
2286.77
-784.556
2345.48
-757.004
2395.45
-726.728
2441.96
-694.92
2479.71
-660.371
2513.67
-625.119
2540.2
-591.126
2563.21
-560.704
2580.06
-534.394
2592.86
-508.942
2598.9
-478.824
2599.66
-441.151
2597.04
-398.098
2598.37
-364.89
2613.71
-364.444
2643.56
-405.401
2676.27
-464.267
2682.57
-487.58
2647.87
-428.546
2581.71
-279.186
2569.5
-151.377
2698.76
-197.61
2997.25
-474.525
-1305.24
1082.84
-476.607
1097.6
-308.358
1088.91
-253.149
1075.35
-210.25
1027.43
-115.055
990.927
50.0451
971.534
-44.8102
1033.27
-338.932
1116.1
-642.47
1202.16
-734.041
1262.99
-769.164
1293.54
-829.628
1241.18
-874.334
1230.89
-1208.31
1288.71
-1788.93
1435.64
-2365.48
1599.43
-2654.91
1750.24
-2624.62
1882.62
-2371.26
1979.19
-1993.89
2067.16
-1611.32
2121.27
-1265.56
2181.63
-981.363
2215.81
-720.901
2250.69
-486.586
2247.14
-263.18
2248.13
-82.7913
2220.5
72.54
2193.52
202.542
2141.19
304.853
2082.15
349.385
2006.49
361.679
1937.69
301.692
1914.58
79.0582
1909.67
-93.1263
1896.73
-139.153
1846.48
-98.4814
1770.97
-87.2197
1671.65
-106.431
1548.28
-107.169
1359.26
-95.3964
1083.89
-37.0385
826.744
11.665
690.254
-60.4203
673.62
-209.014
674.335
-334.14
636.044