/*--------------------------------*- C++ -*----------------------------------*\
| =========                 |                                                 |
| \\      /  F ield         | OpenFOAM: The Open Source CFD Toolbox           |
|  \\    /   O peration     | Version:  4.1                                   |
|   \\  /    A nd           | Web:      www.OpenFOAM.org                      |
|    \\/     M anipulation  |                                                 |
\*---------------------------------------------------------------------------*/
FoamFile
{
    version     2.0;
    format      ascii;
    class       surfaceScalarField;
    location    "4";
    object      phi;
}
// * * * * * * * * * * * * * * * * * * * * * * * * * * * * * * * * * * * * * //

dimensions      [0 3 -1 0 0 0 0];

internalField   nonuniform List<scalar> 
52920
(
1712.12
-83.3308
1791.65
-83.1343
1873.19
-83.1496
1949.2
-80.1734
2025.99
-75.7673
2094.81
-72.1324
2164.74
-68.3994
2227.89
-66.0108
2292.71
-63.9511
2355.75
-63.5065
2420.82
-64.1671
2487.31
-65.7638
2556.2
-67.4353
2624.52
-68.4216
2694.5
-68.9501
2764.14
-69.2684
2834.67
-69.3122
2904.52
-69.2063
2974.98
-69.0413
3044.9
-68.9839
3115.32
-69.1002
3186.5
-69.6004
3258.92
-70.7357
3332.61
-72.089
3407.66
-73.235
3483.14
-73.7617
3558.98
-74.0563
3636.08
-75.1348
3714.96
-77.0949
3796.23
-79.2825
3878.73
-80.7175
3961.9
-81.442
4045.2
-81.7112
4128.46
-81.9496
4212.13
-82.6845
4298.15
-84.4871
4386.04
-86.7895
4476.14
-88.9792
4567.78
-90.7974
4661.02
-92.3053
4754.76
-93.0383
4848.44
-93.1417
4941.58
-92.8974
5034.64
-92.9531
5128.34
-93.8119
5223.9
-95.4878
5321.48
-97.0954
5417.87
-97.2987
5515.09
-97.2682
5610.67
-96.2516
5705.88
-95.4626
5800.27
-95.0247
5895.71
-95.6337
5991.79
-96.5353
6088.48
-97.0949
6184.97
-96.8873
6280.53
-96.0402
6375.22
-94.8682
6468.24
-93.4666
6560.51
-92.2901
6651.25
-91.1093
6741.45
-90.1409
6830.36
-89.1702
6919.03
-88.5331
7006.91
-88.0592
7094.97
-87.877
7182.55
-87.6517
7270.28
-87.4867
7357.51
-87.2507
7444.92
-87.1715
7532.11
-87.1377
7619.56
-87.2217
7706.94
-87.2763
7794.56
-87.4
7882.25
-87.5608
7970.29
-87.8149
8058.53
-88.0924
8147.13
-88.3979
8235.97
-88.6699
8325.09
-88.9075
8414.38
-89.1016
8503.85
-89.2738
8593.47
-89.431
8683.24
-89.5802
8773.17
-89.7271
8863.19
-89.8561
8953.35
-89.972
9043.57
-90.0783
9133.97
-90.218
9224.48
-90.3953
9315.26
-90.627
9406.23
-90.8817
9497.56
-91.1874
9589.11
-91.496
9681.07
-91.847
9773.18
-92.071
9865.79
-92.5233
9957.59
-91.7767
10054.9
-97.2672
-88.0211
1850.42
-175.502
1943.09
-179.52
2038.31
-180.281
2126.77
-173.44
2216.77
-165.214
2297.18
-156.339
2379.98
-149.996
2455.07
-144.763
2533.31
-141.873
2609.89
-140.952
2689.85
-143.523
2771.85
-147.079
2857.26
-151.389
2942.64
-153.964
3030.45
-155.794
3118.22
-156.636
3207.3
-157.145
3295.96
-157.154
3385.69
-157.21
3475.29
-157.394
3565.96
-158.178
3657.94
-159.708
3751.69
-162.562
3847.09
-165.667
3943.99
-168.121
4041.29
-169.107
4138.96
-169.686
4237.86
-171.831
4338.37
-175.541
4440.93
-179.649
4544.32
-182.189
4647.78
-183.018
4750.58
-182.84
4852.58
-182.471
4954.23
-183.232
5057.36
-185.906
5161.4
-189.52
5266.54
-192.697
5372.2
-195.28
5478.46
-197.249
5584.3
-197.846
5689.11
-197.146
5792.37
-195.789
5894.5
-194.979
5996.09
-195.687
6098.29
-197.816
6201.28
-199.558
6301.95
-199.196
6402.34
-197.646
6500.09
-194.766
6596.45
-191.996
6690.97
-190.192
6785.45
-190.29
6879.51
-191.062
6973.2
-191.199
7065.87
-189.954
7156.96
-187.681
7246.57
-184.675
7333.95
-181.37
7420
-178.348
7503.93
-175.484
7586.67
-172.806
7667.4
-170.222
7747.04
-168.023
7825.02
-166.268
7902.27
-164.91
7978.14
-163.612
8053.21
-162.265
8126.8
-160.866
8199.51
-159.596
8270.93
-158.512
8341.52
-157.538
8410.92
-156.587
8479.44
-155.65
8546.84
-154.824
8613.39
-154.102
8678.94
-153.477
8743.67
-152.874
8807.47
-152.257
8870.4
-151.563
8932.35
-150.81
8993.35
-149.997
9053.35
-149.165
9112.35
-148.317
9170.38
-147.479
9227.38
-146.619
9283.41
-145.743
9338.41
-144.868
9392.49
-144.059
9445.61
-143.353
9497.95
-142.758
9549.43
-142.253
9600.26
-141.853
9650.35
-141.521
9699.84
-141.218
9748.6
-140.835
9796.49
-140.341
9843.49
-138.81
9888.14
-141.872
-136.879
2020.1
-279.617
2126.09
-288.926
2234.36
-290.284
2336.52
-279.603
2439.99
-267.499
2534.92
-254.42
2632.07
-245.542
2722.58
-237.806
2816.11
-234.422
2908.48
-233.638
3004.16
-238.216
3101.87
-244.141
3202.63
-250.8
3303.19
-254.599
3405.52
-257.167
3507.22
-258.049
3609.44
-258.318
3710.56
-257.763
3811.8
-257.258
3911.99
-256.85
4012.03
-257.11
4111.93
-258.333
4211.92
-261.153
4311.68
-264.118
4410.92
-265.84
4508.48
-265.245
4604.17
-263.892
4698.59
-264.594
4791.92
-267.372
4884.52
-270.492
4975.21
-271.307
5063.27
-269.548
5148.11
-266.271
5229.7
-262.878
5308.5
-261.182
5386.22
-262.29
5462.43
-264.829
5537.43
-266.775
5610.78
-267.981
5682.48
-268.203
5751.42
-266.254
5817.06
-262.351
5878.8
-257.356
5936.87
-252.915
5991.83
-250.755
6045.12
-250.95
6097.25
-250.834
6145.26
-248.382
6191.7
-244.031
6234.34
-238.271
6274.34
-232.225
6310.67
-227.348
6345.17
-225.041
6377.92
-224.444
6409.85
-223.695
6440.95
-221.599
6470.93
-218.335
6499.9
-213.873
6526.92
-209.039
6552.96
-204.422
6577.14
-200.211
6600.33
-195.908
6621.33
-191.603
6640.87
-187.346
6658.08
-183.738
6674.08
-180.638
6688.27
-177.918
6701.33
-174.963
6712.32
-171.892
6721.78
-168.703
6729.1
-165.746
6734.7
-162.761
6738.01
-159.747
6739.29
-156.559
6738.18
-153.485
6734.94
-150.488
6729.41
-147.675
6721.8
-144.894
6712.03
-142.173
6700.2
-139.346
6686.16
-136.415
6669.89
-133.344
6651.31
-130.197
6630.37
-127.002
6607.09
-123.784
6581.4
-120.574
6553.37
-117.281
6522.79
-113.96
6489.73
-110.574
6454
-107.338
6415.83
-104.181
6375.07
-101.253
6331.98
-98.3844
6286.45
-95.8225
6238.66
-93.1161
6189.04
-91.1106
6136.49
-87.5437
6087.07
-89.3352
6015.42
-70.0301
-86.6065
2190.96
-391.236
2307.74
-408.614
2425.93
-410.306
2537.75
-395.622
2649.85
-379.269
2753.28
-361.194
2857.78
-349.086
2955.31
-338.583
3054.51
-333.424
3151.44
-331.363
3250.03
-336.228
3348.89
-342.439
3448.73
-349.34
3546.41
-352.374
3643.61
-353.409
3738.02
-352.051
3830.65
-349.744
3919.85
-346.244
4006.54
-342.433
4089.38
-338.481
4168.93
-335.002
4244.95
-332.559
4317.54
-331.801
4386.33
-331.064
4451.18
-328.602
4511
-323.008
4565.48
-316.194
4615.09
-311.839
4659.95
-309.963
4700.62
-308.702
4736.14
-304.652
4765.98
-297.214
4789.89
-288.296
4808.25
-279.471
4821.8
-273.445
4832.48
-270.997
4839.9
-270.757
4844.76
-269.957
4846.89
-268.76
4846.22
-265.95
4841.22
-260.053
4831.2
-251.381
4815.33
-241.129
4793.33
-230.921
4765.58
-223.524
4734.27
-219.687
4700.43
-215.891
4660.5
-210.343
4618.61
-201.998
4572.82
-193.802
4525.23
-184.932
4474.05
-177.484
4421.4
-172.882
4367.93
-172.124
4316.67
-173.496
4268.98
-174.958
4225.13
-175.893
4185.33
-174.742
4148.1
-173.152
4114.82
-171.418
4084.23
-170.74
4057.68
-169.377
4033.17
-167.89
4011.04
-164.944
3988.9
-162.103
3967.85
-159.146
3947
-157.248
3927.68
-154.978
3908.51
-152.729
3890.17
-149.673
3871.33
-146.73
3852.4
-143.137
3832.21
-139.241
3810.75
-134.408
3787.06
-129.352
3761.37
-124.07
3733.35
-119.122
3703.55
-114.342
3672.02
-109.984
3639.05
-105.575
3604.38
-100.978
3567.96
-96.1025
3529.7
-91.1055
3489.35
-85.828
3446.79
-80.352
3402.23
-75.2246
3356.18
-70.3602
3307.99
-65.0339
3257.12
-58.8774
3202.83
-52.4233
3145.61
-46.212
3085.22
-40.3901
3021.08
-33.6292
2951.44
-25.9
2876.38
-17.6402
2796.42
-11.0996
2712.53
-3.43789
2628.21
-5.09007
2537.19
21.0559
-4.85996
2336.81
-507.178
2455.48
-530.272
2572.45
-528.832
2681.32
-508.086
2788.63
-485.493
2886.12
-461.514
2982.93
-444.38
3071.45
-429.268
3159.58
-420.499
3243.21
-415.225
3325.79
-417.716
3405.66
-421.708
3483.41
-425.738
3555.93
-424.912
3624.93
-421.37
3688.22
-415.012
3746.97
-407.369
3799.49
-398.186
3846.64
-388.253
3886.94
-377.924
3920.9
-367.649
3948.25
-358.436
3969.24
-351.103
3983.82
-344.001
3992.39
-335.22
3994.12
-322.84
3988.57
-308.611
3976.13
-297.056
3957.07
-288.721
3932.68
-281.679
3902.21
-271.727
3865.15
-257.702
3821.65
-242.478
3772.72
-228.538
3719.69
-218.942
3664.85
-213.753
3607.16
-211.409
3547.59
-208.66
3486.59
-206.532
3424.29
-202.209
3357.86
-192.562
3285.52
-178.196
3205.61
-160.875
3116.89
-141.831
3019.66
-126.418
2918.27
-117.691
2815.14
-110.067
2704.09
-102.809
2592.41
-90.2126
2478.45
-82.5643
2368.19
-75.5097
2260.19
-72.2084
2158.37
-71.9434
2063.59
-79.441
1981.47
-93.2208
1914.67
-109.927
1862.8
-126.117
1824.46
-137.229
1795.35
-145.956
1776.58
-152.874
1765.22
-160.908
1763.66
-167.69
1768.95
-174.188
1781.19
-176.698
1794.94
-176.488
1810.84
-174.378
1827.02
-173.667
1845.95
-173.027
1865.71
-172.521
1887.18
-170.26
1907.81
-167.085
1928.75
-163.162
1949.3
-159.334
1970.02
-154.207
1988.96
-147.683
2005.86
-140.012
2019.88
-132.419
2031.87
-125.364
2042.13
-119.4
2051.78
-114.253
2061.34
-109.612
2071.08
-104.875
2080.76
-99.8035
2090.2
-94.3125
2099.24
-88.3703
2106.94
-82.0042
2112.94
-75.3272
2117.07
-68.3185
2119.52
-60.3304
2119.04
-51.1963
2114.73
-40.9925
2105.29
-30.3238
2092.12
-19.6778
2076.36
-9.68716
2059.49
-0.168526
2040.74
7.91978
2022.76
14.9857
2000.54
17.2851
1984.78
37.0583
11.5464
2421.73
-607.66
2523.38
-634.66
2622.04
-629.547
2712.46
-602.76
2800.61
-573.328
2877.91
-542.247
2952.99
-518.391
3017.9
-497.434
3080.09
-482.361
3134.88
-470.785
3185.37
-467.345
3229.78
-465.53
3269.02
-463.46
3300.28
-456.141
3325.86
-445.634
3343.97
-432.498
3356.5
-418.236
3361.97
-402.595
3361.64
-385.799
3353.99
-368.499
3339.78
-350.946
3318.9
-334.956
3291.96
-321.22
3259.33
-308.453
3222.27
-294.756
3180.12
-277.199
3131.95
-256.698
3077.93
-238.882
3018.68
-225.376
2956.85
-215.261
2891.71
-202.324
2822.02
-183.746
2747.64
-164.34
2669.86
-147.208
2590.63
-137.052
2512.61
-131.461
2433.01
-128.296
2352.56
-124.206
2272.47
-123.047
2193.41
-118.952
2109.9
-105.57
2018.01
-83.5041
1914.84
-56.8955
1798.44
-25.7738
1670.15
-0.0473149
1540.94
12.3047
1417.13
19.404
1285.65
21.7323
1162.09
33.5737
1043.14
31.4328
941.507
24.1974
855.661
8.57592
793.044
-11.5106
750.329
-40.6562
729.205
-75.6646
727.326
-111.438
740.461
-143.206
764.136
-163.093
789.957
-175.278
819.742
-183.82
850.322
-194.193
885.744
-203.521
922.335
-212.498
963.056
-217.07
1003.42
-217.845
1044.92
-215.131
1084.14
-213.175
1124.03
-211.703
1162.66
-211.042
1202.21
-208.488
1239.89
-204.277
1276.71
-198.633
1311.21
-193.102
1344.59
-186.236
1375.59
-177.734
1404.58
-167.594
1430.36
-157.09
1453.31
-146.865
1473.06
-137.847
1490.36
-130.05
1505.55
-123.357
1519.36
-117.164
1532.23
-111.152
1544.5
-105.09
1556.5
-98.8139
1568.1
-92.1845
1579.46
-85.1807
1590.18
-77.7691
1600.76
-69.5478
1610.78
-60.1701
1620.42
-49.4819
1628.87
-38.0137
1636.41
-26.3489
1642.28
-15.1395
1647.11
-4.46248
1650.24
4.89461
1652.82
12.6802
1653.12
16.9587
1655.49
34.7811
10.7737
2395.06
-688.535
2475.44
-717.907
2550.4
-706.333
2614.99
-671.085
2674.83
-631.905
2721.02
-591.452
2762.53
-558.074
2791.38
-528.679
2815.51
-505.2
2829.88
-485.451
2838.07
-474.103
2838.8
-465.539
2834.25
-457.16
2822.21
-444.14
2806.04
-428.06
2784.32
-410.341
2759.86
-392.229
2731.36
-373.319
2700.5
-353.021
2665.36
-332.115
2626.77
-310.372
2584.57
-290.456
2539.35
-273.279
2491.56
-257.944
2443.15
-243.051
2393.34
-224.114
2340.36
-200.124
2283.85
-178.11
2224.64
-162.17
2167.25
-152.996
2111.03
-141.411
2053.54
-121.555
1993.18
-99.4072
1929.85
-79.9689
1865.28
-69.509
1802.81
-64.0159
1738.8
-60.6063
1675.13
-56.5894
1614.49
-59.3607
1558.65
-59.229
1498.31
-41.9171
1425.56
-7.87584
1331.39
38.6362
1208.11
99.0741
1064.77
142.975
936.398
143.655
834.123
129.337
730.718
116.262
649.898
113.929
577.608
97.6712
524.606
74.7828
484.093
43.407
464.974
5.59285
461.068
-40.733
472.257
-90.2446
494.561
-136.901
524.127
-176.206
558.188
-198.626
589.209
-209.313
620.207
-215.309
647.96
-224.262
678.03
-233.485
706.683
-242.627
737.888
-247.595
767.887
-248.717
799.923
-246.213
830.235
-243.758
861.701
-241.889
891.978
-241.297
924.167
-239.389
955.849
-235.511
988.363
-229.806
1019.55
-223.56
1050.48
-215.812
1079.94
-206.256
1108.66
-194.925
1135.46
-182.805
1160.69
-170.706
1183.5
-159.441
1204.12
-149.292
1222.52
-140.444
1239.23
-132.515
1254.59
-125.146
1268.9
-118.083
1282.57
-111.069
1295.41
-103.767
1307.66
-96.0466
1319.03
-87.9855
1330.21
-79.4298
1340.97
-69.9342
1351.86
-59.2151
1362.27
-47.6233
1372.4
-35.5
1381.48
-23.6369
1390.44
-12.6739
1398.76
-3.04243
1407.22
4.78468
1415.14
9.29109
1425.59
24.6216
-2.06027
2294.8
-742.068
2342.47
-768.789
2378.73
-745.246
2400.92
-698.336
2416.3
-646.894
2416.68
-595.988
2413.08
-553.004
2397.83
-517.301
2380.35
-487.035
2355.07
-461.061
2326.32
-443.86
2293.31
-431.747
2259.65
-421.296
2223.23
-407.523
2187.97
-390.674
2151.8
-373.07
2117.98
-355.724
2084.65
-338.176
2053.57
-318.435
2021.74
-297.25
1989.64
-274.008
1956.59
-252.968
1922.81
-234.411
1888.29
-218.271
1855.3
-203.986
1822.71
-185.266
1788.12
-158.846
1751.01
-133.563
1711.92
-115.838
1676.96
-109.946
1645.89
-102.718
1614.96
-83.1124
1580.13
-57.8824
1540.52
-34.2385
1500.88
-25.0409
1466.35
-21.8104
1427.53
-15.1186
1378.37
-0.0228416
1314.79
11.0141
1241.98
22.1293
1161.51
46.295
1074.49
85.2102
975.209
139.156
860.022
213.47
749.793
250.901
674.168
221.958
621.73
190.217
560.133
169.242
513.492
160.255
466.728
137.604
430.069
107.968
397.948
68.3113
382.437
17.7386
379.398
-43.0701
389.886
-105.605
410.569
-162.192
437.369
-208.179
466.788
-231.157
491.345
-238.52
515.158
-240.948
535.155
-247.82
557.338
-256.383
577.627
-265.179
600.462
-270.118
622.164
-271.769
646.858
-270.069
670.558
-267.875
696.102
-265.923
720.473
-265.462
747.167
-264.299
774.131
-261.711
803.3
-257.137
832.125
-251.29
861.455
-243.287
889.773
-233.218
917.94
-221.155
944.806
-208.121
970.785
-194.745
994.897
-181.807
1017.38
-169.82
1037.98
-159.184
1056.95
-149.553
1074.39
-140.661
1090.49
-132.306
1105.52
-124.154
1119.26
-115.761
1132.17
-107.127
1144.07
-98.3686
1155.61
-89.3381
1166.44
-79.5455
1177.31
-68.7419
1187.63
-57.0718
1198.12
-44.99
1208.56
-33.5568
1219.67
-23.1085
1230.99
-14.1091
1243.43
-7.19424
1257.28
-4.41558
1274.66
7.43626
-24.9521
2107.29
-753.981
2099.37
-764.298
2076.34
-724.423
2042.15
-669.01
2007.04
-610.241
1962.68
-555.744
1922.1
-509.938
1876.45
-474.994
1836.21
-444.867
1793.63
-418.909
1753.01
-401.044
1712.9
-390.58
1677.7
-383.437
1644.3
-374.18
1616.69
-360.884
1591.2
-346.918
1571.16
-333.289
1553.67
-319.468
1540.56
-302.314
1527.71
-282.407
1515.22
-258.394
1502.02
-236.144
1487.98
-216.119
1472.54
-198.582
1458.49
-184.841
1444.92
-166.638
1429
-137.477
1409.24
-107.329
1385.63
-86.2635
1369.74
-86.9327
1363.89
-90.024
1356.81
-69.0833
1334.93
-29.0846
1296.46
10.0349
1253.84
22.1073
1217.03
21.9246
1176.42
30.4635
1128.15
53.1765
1068.54
74.242
1005.93
89.1606
943.709
112.346
877.986
154.199
795.421
223.895
697.666
314.647
612.649
336.929
556.894
281.431
521.216
233.05
474.639
207.532
438.855
195.259
399.229
171.154
364.552
139.942
331.162
95.5367
314.351
32.3753
310.826
-43.754
320.924
-119.298
340.927
-185.524
365.955
-236.823
391.169
-257.883
409.286
-259.922
425.919
-258.04
438.673
-263.129
453.924
-271.443
467.118
-280.044
483.265
-285.424
498.684
-288.178
517.932
-288.154
536.888
-287.124
558.518
-285.989
579.091
-285.978
602.361
-285.993
626.442
-285.23
653.447
-282.484
680.671
-277.593
709.128
-270.06
737.032
-259.948
765.161
-247.559
792.245
-233.869
818.71
-219.521
843.607
-205.235
867.261
-191.83
889.333
-179.711
909.938
-168.567
929.075
-158.199
946.864
-148.553
963.424
-139.086
978.512
-129.407
992.744
-119.783
1005.96
-110.287
1018.7
-100.607
1030.58
-90.3155
1042.29
-79.1495
1053.46
-67.3484
1065.25
-55.6704
1077.27
-44.8899
1090.25
-35.197
1104.3
-27.6496
1120.88
-23.1049
1140.3
-23.507
1164.34
-16.2908
-57.3489
1799.21
-686.333
1719.43
-689.114
1641.14
-650.126
1567.32
-602.498
1506.11
-548.664
1444.57
-500.322
1396.45
-459.669
1349.3
-433.325
1314.25
-408.522
1280.12
-385.933
1250.98
-369.396
1224.03
-362.448
1204.13
-360.206
1186.99
-356.593
1176.99
-347.532
1169.12
-337.264
1167
-327.04
1166.79
-316.382
1170.88
-301.02
1174.55
-281.293
1177.82
-255.125
1179.62
-231.21
1179.7
-208.564
1176.61
-187.692
1174.62
-173.883
1175.16
-158.037
1173.81
-126.454
1165.17
-88.1563
1151.26
-62.0478
1150.72
-74.8765
1159.13
-87.0471
1156.19
-55.1676
1133.99
2.64331
1097.54
54.7256
1059.82
66.4831
1022.66
68.7607
979.658
81.9565
940.104
101.71
897.305
125.108
853.443
142.55
809.457
165.065
758.004
212.169
680.792
302.543
591.66
403.766
523.059
404.741
475.35
331.987
447.959
268.284
409.524
238.06
379.098
224.792
341.644
200.911
305.783
171.511
271.018
122.066
255.471
44.0092
254.193
-48.4458
265.52
-136
285.251
-210.302
307.899
-265.147
327.755
-281.267
338.234
-275.72
346.459
-268.413
350.898
-271.71
358.716
-280.045
364.858
-288.925
374.832
-295.056
384.729
-299.856
399.455
-301.978
414.585
-302.942
433.217
-302.918
450.945
-303.532
471.962
-304.879
494.414
-306.772
520.405
-306.247
546.897
-302.735
575.159
-296.051
603.242
-286.337
631.917
-273.841
659.588
-259.611
686.701
-244.263
712.439
-228.845
737.192
-214.224
760.477
-200.756
782.398
-188.169
802.956
-176.457
822.152
-165.516
840.005
-154.67
856.423
-143.816
872.09
-133.363
886.597
-123.088
900.512
-112.695
913.331
-101.76
925.939
-90.2298
938.253
-78.605
951.324
-67.5064
964.843
-57.635
980.179
-49.5943
998.06
-45.0137
1019.9
-44.2652
1046.16
-49.4405
1079.47
-49.287
-100.423
1353.96
-587.203
1258.2
-597.911
1174.63
-569.91
1103.01
-537.999
1050.85
-494.231
1000.54
-456.044
967.852
-423.253
936.465
-406.857
919.255
-388.507
902.099
-369.536
890.055
-354.058
879.169
-349.961
874.916
-352.173
871.89
-353.698
875.557
-348.2
880.009
-340.859
889.476
-333.292
899.473
-324.812
913.261
-310.778
925.614
-291.085
936.727
-262.172
945.859
-235.423
952.135
-209.188
954.548
-184.583
961.391
-174.339
973.425
-163.831
980.047
-126.652
975.036
-75.6685
967.952
-47.9126
976.682
-74.5607
985.806
-87.4623
982.507
-43.542
967.743
25.2689
942.613
86.0295
914.642
98.9728
880.606
109.059
840.187
126.62
809.424
136.533
777.905
159.175
743.96
179.636
707.719
204.198
661.871
260.897
588.992
378.221
508.39
488.72
450.552
464.172
410.139
376.145
389.571
295.772
356.887
262.599
329.034
251.748
290.88
232.64
253.42
206.046
220.337
148.387
209.614
52.4994
211.785
-54.8531
223.752
-151.556
241.789
-231.615
260.225
-287.2
272.851
-295.315
274.427
-280.742
273.516
-267.835
269.085
-270.053
269.337
-279.927
268.925
-290.407
273.555
-298.597
278.901
-306.338
290.183
-311.827
302.501
-315.599
318.735
-317.274
334.07
-318.785
353.24
-322.21
374.48
-327.376
400.11
-329.919
426.703
-328.241
455.488
-322.83
484.35
-313.805
513.972
-301.406
542.458
-286.522
570.415
-270.234
597.103
-253.82
622.9
-238.113
647.245
-223.314
670.285
-209.368
691.915
-196.239
711.964
-183.789
730.738
-171.571
748.148
-159.593
764.724
-148.146
779.977
-136.899
794.438
-125.501
807.675
-113.756
820.979
-102.056
834.161
-90.751
848.38
-80.4745
864.207
-72.6561
883.851
-68.2792
907.728
-68.3284
937.484
-73.3426
973.932
-85.5592
1018.98
-94.0644
-154.485
973.321
-487.188
881.87
-513.614
811.783
-506.23
758.939
-496.369
729.758
-464.908
700.639
-436.066
689.253
-408.937
675.037
-400.321
673.683
-385.018
669.233
-366.549
669.151
-350.221
668.688
-347.835
673.851
-352.72
678.063
-357.144
688.118
-353.626
697.359
-347.615
710.976
-341.279
724.288
-334.121
741.23
-320.263
755.237
-298.304
767.145
-265.088
776.562
-235.665
784.079
-206.465
792.203
-182.407
805.985
-176.421
820.374
-166.062
826.265
-120.621
825.366
-62.0946
825.652
-35.4776
834.568
-67.9194
841.038
-78.8787
843.845
-32.6959
839.85
40.4692
825.339
109.768
804.51
127.303
775.553
147.873
740.094
170.802
711.484
174.215
683.303
195.481
654.281
218.107
622.467
244.941
580.408
309.58
516.46
444.73
445.863
560.624
391.513
518.377
356.425
414.112
341.553
318.493
312.95
282.843
285.808
277.239
245.615
263.534
208.639
237.924
181.657
166.183
177.468
52.4172
181.624
-65.3118
191.971
-167.467
206.232
-251.06
218.563
-305.487
222.464
-302.928
214.73
-278.865
205.317
-260.657
192.969
-262.326
186.867
-274.482
181.543
-288.212
182.629
-299.159
184.924
-310.753
194.118
-319.94
204.605
-327.025
218.825
-329.592
231.852
-331.797
249.263
-337.212
269.079
-346.274
294.092
-352.373
320.64
-353.309
349.964
-349.554
379.562
-341.476
409.908
-328.966
438.971
-313.323
467.716
-296.173
495.297
-278.857
521.998
-261.956
547.255
-245.837
571.172
-230.446
593.434
-215.702
613.937
-201.605
633.246
-188.171
651.078
-175.047
667.891
-162.498
683.076
-150.043
697.349
-137.566
710.667
-125.338
724.435
-113.905
738.747
-103.65
755.993
-96.168
777.03
-92.6432
803.771
-93.8751
837.03
-100.88
878.063
-113.582
926.976
-134.047
984.056
-150.779
-218.171
661.284
-404.58
598.487
-457.028
564.514
-476.767
546.339
-488.027
548.495
-463.969
542.092
-437.748
548.256
-410.225
544.259
-402.536
550.1
-386.865
549.324
-366.689
552.482
-348.966
554.405
-347.747
561.588
-355.234
566.273
-362.221
576.362
-360.135
584.546
-354.949
597.221
-350.103
609.464
-344.588
625.123
-330.862
636.786
-306.854
646.995
-270.327
655.095
-237.541
662.057
-206.393
673.022
-186.553
688.266
-183.753
698.678
-168.96
701.998
-117.001
707.657
-59.6193
713.362
-33.816
717.83
-62.3305
724.82
-75.9759
735.479
-34.0594
738.353
46.0801
731.194
123.349
712.485
150.339
685.367
180.345
656.25
203.284
628.87
204.63
601.1
224.706
574.918
246.3
546.646
275.389
507.134
352.136
451.272
504.69
391.137
625.744
340.588
570.945
310.864
447.884
301.467
335.269
275.577
300.113
247.962
303.887
206.246
297.888
173.288
267.593
155.202
176.979
155.773
49.6452
159.079
-72.7092
165.817
-177.669
174.826
-263.221
180.09
-314.37
175.122
-299.288
159.118
-266.589
143.101
-244.828
125.101
-247.503
115.024
-263.763
107.35
-282.735
107.272
-297.591
108.493
-313.289
116.965
-326.547
126.421
-336.885
138.837
-339.663
149.622
-342.483
165.423
-350.821
183.912
-364.088
207.825
-373.995
233.429
-377.67
262.303
-376.102
291.418
-368.983
321.217
-356.367
350.023
-340.307
379.009
-322.861
407.035
-304.905
434.334
-287.034
460.223
-269.638
484.56
-252.616
507.022
-235.971
527.626
-220.118
546.863
-205.184
564.4
-190.668
580.487
-176.483
594.665
-162.542
608.361
-149.362
621.679
-137.252
636.794
-127.437
655.001
-120.774
678.541
-118.488
708.379
-121.71
746.237
-130.859
792.107
-146.254
846.105
-167
907.264
-194.951
974.644
-217.962
-289.418
451.011
-364.107
435.649
-451.522
444.159
-494.136
456.335
-514.734
478.728
-486.696
482.262
-452.697
493.145
-417.911
488.945
-407.293
493.201
-388.009
488.863
-363.81
488.817
-344.073
487.658
-344.641
492.4
-354.457
494.073
-362.945
501.147
-361.602
505.716
-356.509
515.508
-352.938
525.034
-349.042
538.474
-334.643
549.179
-308.614
558.702
-268.265
563.237
-230.17
567.133
-197.331
578.763
-185.24
593.608
-183.447
601.369
-162.086
604.105
-106.082
614.305
-55.2686
624.303
-29.7163
627.137
-47.5518
633.952
-64.4565
647.597
-31.1381
654.021
52.8346
652.163
135.801
632.468
178.319
603.623
219.23
579.844
236.263
554.746
238.94
527.872
259.784
504.589
279.158
479.971
309.528
442.604
397.048
394.368
557.807
344.56
678.454
297.381
618.277
272.965
475.344
268.605
347.763
244.103
314.934
215.477
329.866
174.204
327.794
148.875
287.19
139.294
177.019
140.42
44.113
140.552
-79.1883
142.701
-185.359
145.575
-271.26
143.457
-318.354
130.894
-290.529
109.242
-251.299
89.6602
-227.532
69.2711
-232.291
58.3915
-253.484
51.0008
-278.868
51.7688
-297.654
53.4273
-317.231
62.0799
-333.886
70.7953
-346.628
81.6864
-348.452
90.5115
-351.442
105.152
-362.838
123.023
-381.027
146.151
-394.259
170.039
-400.013
196.869
-400.025
223.447
-393.443
250.719
-380.473
277.539
-364.525
305.319
-347.308
332.702
-329.191
359.836
-310.615
385.566
-291.961
409.579
-273.099
431.709
-254.657
451.888
-237.017
470.35
-220.337
486.469
-203.828
500.74
-187.695
513.627
-172.855
527.259
-160.315
542.814
-150.7
562.973
-145.428
589.268
-145.463
623.898
-151.472
666.969
-163.643
718.779
-181.502
777.943
-204.678
843.532
-231.808
913.915
-264.91
988.054
-291.748
-364.98
344.577
-367.153
368.944
-482.251
402.699
-532.487
426.507
-548.912
452.605
-509.089
454.793
-463.344
462.902
-420.598
454.96
-405.843
455.637
-383.996
446.487
-355.922
441.851
-334.253
436.491
-337.038
438.039
-350.786
436.144
-361.737
439.553
-361.029
440.171
-356.342
447.044
-355.451
455.105
-355.211
469.329
-342.944
480.734
-316.599
487.21
-269.052
487.325
-222.833
489.472
-191.196
499.211
-186.872
512.088
-187.061
520.825
-163.072
525.372
-103.923
538.563
-60.4459
550.986
-35.6966
552.915
-40.3337
559.265
-60.449
573.542
-35.5579
581.656
53.3635
583.144
140.282
560.699
204.094
528.48
255.522
508.161
259
486.003
263.148
460.898
285.362
440.271
300.964
418.898
332.72
382.126
437.25
340.805
604.185
302.645
721.655
259.539
663.575
240.973
498.277
241.061
355.809
216.757
329.718
187.228
358.356
149.63
356.892
133.864
299.37
129.43
174.138
127.636
43.8091
124.138
-79.5353
121.228
-185.765
117.248
-270.356
108.409
-313.254
91.3357
-274.734
68.1856
-232.283
48.9219
-208.319
29.9246
-216.952
21.5023
-244.112
16.2154
-276.036
18.384
-297.845
20.4969
-320.685
29.072
-340.103
36.6613
-354.543
46.2269
-355.138
53.5788
-358.609
67.4886
-374.152
85.4103
-398.233
108.218
-414.383
130.147
-420.548
153.922
-421.101
176.73
-414.412
200.221
-401.196
223.514
-385.728
248.437
-369.575
273.794
-352.229
299.424
-333.592
323.735
-313.716
346.521
-293.231
367.581
-273.04
386.452
-253.39
402.771
-234.034
416.123
-214.968
428.555
-197.806
441.561
-184.093
458.215
-175.118
480.762
-171.949
512.007
-175.295
552.427
-184.981
602.362
-200.414
660.098
-220.785
724.474
-245.196
793.368
-273.219
865.742
-303.749
940.172
-339.188
1016.31
-367.763
-441.403
303.292
-400.561
344.204
-533.555
382.75
-580.444
405.088
-586.329
427.665
-532.342
426.071
-473.931
431.308
-422.821
420.994
-404.654
419.706
-378.425
407.015
-344.415
398.489
-319.815
389.504
-326.126
388.473
-343.646
383.056
-355.416
382.691
-354.295
380.745
-351.145
387.227
-353.858
394.838
-356.937
409.439
-345.763
421.84
-318.057
425.419
-258.41
422.518
-205.966
424.16
-177.58
431.054
-177.738
440.911
-178.99
450.7
-156.425
457.785
-96.2499
474.771
-61.5607
488.673
-35.0969
489.161
-22.5308
496.015
-46.0543
510.32
-30.4663
518.861
59.8462
522.391
148.619
498.788
236.238
464.147
299.914
444.067
288.373
424.381
291.836
401.676
315.88
383.72
328.267
365.4
361.056
333.338
478.453
299.034
645.416
266.918
757.87
227.81
703.143
214.868
514.682
218.32
360.768
193.423
342.864
163.982
384.079
133.423
374.518
126.936
300.089
123.278
168.558
116.809
45.8556
109.707
-78.6679
100.763
-182.329
89.3044
-264.113
75.3208
-305.567
58.063
-261.526
38.2051
-219.576
23.4495
-196.244
9.76614
-209.812
6.80831
-242.039
4.71526
-278.383
8.02395
-300.285
9.5105
-324.871
17.0729
-345.881
22.7618
-361.312
30.6178
-360.342
36.0835
-364.147
49.0909
-384.146
66.7556
-414.729
88.6328
-433.061
107.854
-438.06
128.6
-438.525
147.935
-431.357
167.438
-417.04
186.462
-401.683
207.578
-386.606
229.53
-370.342
252.011
-351.647
273.627
-331.115
294.182
-309.459
312.779
-287.401
328.074
-264.653
340.218
-242.17
350.918
-222.183
364.07
-207.552
382.72
-199.99
410.572
-200.284
448.576
-207.887
497.012
-221.699
553.806
-240.279
617.373
-262.49
685.156
-287.535
755.908
-314.903
828.018
-344.668
901.187
-376.228
974.708
-412.34
1049
-441.742
-515.751
283.396
-437.104
323.206
-578.538
358.591
-619.531
377.479
-614.989
397.217
-547.931
393.454
-478.703
397.463
-421.172
386.164
-399.598
384.272
-370.845
369.179
-330.746
357.363
-301.818
345.096
-311.649
341.648
-334.729
332.736
-347.86
329.458
-346.793
326.645
-347.786
333.552
-356.053
340.308
-361.865
354.786
-353.598
367.924
-327.628
369.744
-254.577
366.16
-194.719
367.935
-170.487
373.166
-173.702
380.692
-176.485
389.892
-157.504
399.63
-99.4013
418.561
-72.7795
431.698
-42.6191
434.069
-16.1545
442.609
-43.6569
455.292
-32.4841
463.354
60.9591
467.389
150.552
441.685
264.519
405.921
338.626
386.379
309.41
368.749
310.564
348.077
335.977
332.099
344.532
316.159
378.627
292.691
506.02
266.36
677.091
235.42
794.505
200.433
740.939
192.885
527.209
198.301
364.343
172.119
358.312
145.044
410.055
124.142
386.482
124.235
296.457
117.854
167.887
107.279
54.3994
96.6718
-71.6737
80.7136
-169.622
62.218
-248.711
46.1481
-293.48
33.8141
-250.571
21.8083
-212.38
15.7481
-190.372
10.1049
-208.499
11.597
-242.473
9.72871
-279.049
14.4422
-302.784
17.6078
-329.261
25.6232
-351.216
29.4798
-365.277
34.6398
-362.095
36.4269
-365.481
46.8543
-391.465
62.5748
-429.571
82.0157
-449.519
97.7621
-452.237
116.027
-453.681
132.646
-445.883
148.596
-429.828
163.735
-414.402
180.819
-400.505
198.38
-385.021
216.653
-366.573
234.432
-345.718
250.777
-322.575
263.784
-297.201
273.044
-271.071
282.373
-248.776
296.598
-234.327
320.656
-229.628
356.216
-234.158
403.433
-246.106
459.664
-263.201
522.688
-283.738
589.499
-306.49
658.629
-330.922
728.364
-356.894
798.442
-384.507
868.252
-414.276
938.254
-445.936
1008.29
-482.313
1079.13
-512.516
-586.996
262.84
-475.667
300.052
-625.696
332.811
-661.558
349.372
-646.594
367.343
-566.731
362.375
-486.68
365.794
-421.814
353.541
-396.355
351.184
-362.28
333.967
-314.176
319.224
-279.602
303.587
-294.556
297.301
-321.934
285.221
-335.233
280.507
-335.007
277.274
-341.329
283.953
-353.469
289.776
-360.996
304.85
-354.381
318.025
-327.644
318.72
-240.104
315.624
-176.637
317.687
-155.939
322.642
-160.446
329.246
-162.725
337.24
-147.105
350.384
-96.5051
366.627
-72.2679
374.439
-35.094
383.327
-4.72678
396.439
-32.5111
407.56
-21.1227
414.154
71.6274
417.647
160.493
389.503
301.737
354.431
383.551
336.42
336.797
320.401
335.348
301.428
362.212
287.135
367.883
273.283
403.172
256.934
533.884
238.846
703.998
210.189
828.856
178.722
773.74
175.316
534.833
181.249
367.129
154.325
371.156
132.491
427.528
120.448
385.912
123.264
288.475
112.925
169.388
99.7542
63.1472
85.0719
-63.0718
61.4488
-151.712
37.1097
-230.031
22.353
-285.487
18.1414
-250.662
11.8721
-213.636
6.13328
-187.572