/*--------------------------------*- C++ -*----------------------------------*\
| =========                 |                                                 |
| \\      /  F ield         | OpenFOAM: The Open Source CFD Toolbox           |
|  \\    /   O peration     | Version:  4.1                                   |
|   \\  /    A nd           | Web:      www.OpenFOAM.org                      |
|    \\/     M anipulation  |                                                 |
\*---------------------------------------------------------------------------*/
FoamFile
{
    version     2.0;
    format      ascii;
    class       volScalarField;
    location    "200";
    object      epsilon;
}
// * * * * * * * * * * * * * * * * * * * * * * * * * * * * * * * * * * * * * //

dimensions      [0 2 -3 0 0 0 0];

internalField   nonuniform List<scalar> 
12225
(
1130.08
2611.29
3861.02
4651.11
5051.65
5192.46
5173.82
5117.8
5004.89
4882.52
4764.47
4653.43
4555.59
4464.91
4390.84
4317.32
4268.46
4200.44
82.7581
272.872
458.217
608.746
717.65
788.412
828.466
852.857
867.808
877.373
885.908
893.299
902.015
910.538
920.181
930.01
938.876
951.231
20.09
50.8877
83.5868
112.866
137.273
156.506
170.106
179.706
185.839
190.092
192.524
194.529
195.604
197.005
197.892
199.213
200.782
203.167
14.5195
21.3621
28.9813
37.1632
44.5746
51.1696
56.5333
61.0149
64.3902
67.1708
69.1019
70.7295
71.7447
72.6582
73.152
73.62
73.9062
74.4263
14.2884
16.0543
17.8307
20.5331
23.1909
25.768
28.0376
30.1094
31.8176
33.3606
34.5578
35.6645
36.4528
37.2367
37.7131
38.2723
38.518
38.9459
14.5464
14.8885
15.1708
15.9434
16.8561
17.861
18.8189
19.7623
20.5883
21.3845
22.0374
22.6814
23.1651
23.6815
24.0124
24.4336
24.6315
25.0103
14.7164
14.5889
14.5778
14.6594
14.8301
15.1342
15.4607
15.8261
16.1697
16.5298
16.8379
17.1628
17.4154
17.7003
17.89
18.1418
18.2657
18.502
14.7576
14.5798
14.4527
14.3666
14.343
14.3687
14.4293
14.5394
14.6593
14.8016
14.9293
15.0779
15.1955
15.3383
15.4349
15.5686
15.6376
15.77
14.7658
14.5893
14.4322
14.2945
14.1853
14.1069
14.0534
14.0267
14.0272
14.0369
14.0563
14.0935
14.1225
14.1702
14.2001
14.2501
14.2777
14.3314
14.7663
14.5938
14.4319
14.2813
14.1436
14.0221
13.9158
13.8254
13.7501
13.6906
13.638
13.6013
13.5658
13.5449
13.5202
13.5095
13.4899
13.4917
14.7659
14.5944
14.4325
14.2803
14.1367
14.0032
13.8788
13.765
13.6595
13.5655
13.4777
13.4012
13.3286
13.2669
13.2061
13.1571
13.1043
13.0668
14.7658
14.5942
14.4323
14.2799
14.1357
14.0001
13.8717
13.7515
13.6377
13.5319
13.4316
13.339
13.2509
13.1703
13.0928
13.0229
12.9544
12.8939
14.7657
14.594
14.432
14.2794
14.1351
13.999
13.8702
13.7486
13.6333
13.5246
13.4214
13.3241
13.2316
13.1447
13.0618
12.984
12.9097
12.8401
14.7657
14.5939
14.4318
14.2789
14.1346
13.9982
13.8693
13.7473
13.6318
13.5225
13.4187
13.3204
13.2271
13.1386
13.0544
12.9746
12.8986
12.8265
14.7657
14.5938
14.4316
14.2786
14.1342
13.9977
13.8686
13.7465
13.6308
13.5212
13.4173
13.3187
13.2252
13.1363
13.0519
12.9716
12.8952
12.8226
14.7657
14.5937
14.4315
14.2784
14.1338
13.9972
13.868
13.7458
13.63
13.5203
13.4163
13.3175
13.2238
13.1348
13.0502
12.9698
12.8933
12.8205
14.7657
14.5937
14.4314
14.2783
14.1336
13.997
13.8677
13.7453
13.6295
13.5196
13.4155
13.3167
13.2229
13.1338
13.0491
12.9686
12.892
12.8191
14.7657
14.5937
14.4314
14.2782
14.1336
13.9968
13.8675
13.7451
13.6292
13.5193
13.4151
13.3163
13.2224
13.1333
13.0485
12.9679
12.8913
12.8184
14.7657
14.5937
14.4314
14.2783
14.1336
13.9969
13.8675
13.7451
13.6292
13.5193
13.4151
13.3163
13.2224
13.1332
13.0485
12.9679
12.8912
12.8183
14.7657
14.5937
14.4315
14.2783
14.1337
13.997
13.8677
13.7453
13.6294
13.5196
13.4154
13.3166
13.2228
13.1336
13.049
12.9685
12.892
12.8191
14.7657
14.5937
14.4316
14.2785
14.1339
13.9972
13.868
13.7457
13.63
13.5203
13.4165
13.318
13.2248
13.1362
13.0523
12.9726
12.8971
12.8252
14.7657
14.5938
14.4317
14.2786
14.1342
13.9978
13.8692
13.7478
13.6336
13.5258
13.4247
13.3292
13.2398
13.1553
13.0764
13.0015
12.932
12.8654
14.7657
14.5936
14.4318
14.2789
14.1364
14.0034
13.881
13.7678
13.665
13.5705
13.4854
13.4074
13.3375
13.2731
13.2161
13.162
13.1157
13.0695
14.7644
14.5919
14.4335
14.2883
14.1666
14.0626
13.981
13.9156
13.8698
13.8353
13.8154
13.8021
13.7989
13.8004
13.8055
13.8122
13.8267
13.8323
14.7487
14.5941
14.4766
14.4122
14.4254
14.464
14.5577
14.6738
14.8188
14.9641
15.1253
15.2747
15.4344
15.5743
15.7248
15.8474
15.9866
16.0878
14.663
14.7651
14.9036
15.2739
15.8077
16.391
17.0247
17.6299
18.2491
18.8062
19.3673
19.8502
20.34
20.7421
21.1619
21.4855
21.8444
22.0945
14.6005
15.9621
17.5928
19.7722
21.9975
24.107
26.1673
28.012
29.8013
31.326
32.8224
34.0261
35.2452
36.1569
37.1362
37.7993
38.5845
39.0452
16.3556
24.4598
33.7011
42.166
50.1569
57.5557
64.5067
70.6106
76.2593
80.9087
85.2588
88.5406
91.7841
93.9332
96.3405
97.6296
99.4694
100.156
42.1598
92.2662
140.377
183.845
226.194
266.311
302.451
333.56
359.966
381.456
399.379
413.176
425.142
433.5
441.81
446.692
453.331
455.819
570.027
929.813
1287.43
1576.94
1844.37
2077.96
2271.58
2424.46
2538.79
2619.86
2672.47
2703.11
2715.49
2712.65
2704.88
2687.9
2666.07
2640.8
0.459186
0.448895
0.74979
1.04816
1.312
1.53242
1.72731
1.91144
2.08478
2.25529
2.43203
2.62574
2.85255
3.13728
3.48532
3.88497
4.32961
4.82113
5.36377
5.96471
6.62982
7.36657
8.18005
9.07725
10.0631
11.1459
12.3322
13.6133
14.9906
16.4659
18.0396
19.7149
21.4925
23.377
25.3688
27.4742
29.6951
32.0402
34.521
37.1599
39.9818
42.9771
46.1046
49.3864
52.8193
56.4134
60.1685
64.0948
68.1918
72.4703
76.9291
81.5795
86.42
91.4622
96.7038
102.157
107.818
113.699
119.797
126.123
132.672
139.456
146.468
153.72
161.205
168.933
176.897
185.106
193.549
202.239
211.16
220.325
229.716
239.346
249.195
259.273
269.561
280.067
290.769
301.674
312.759
324.029
335.458
347.05
358.774
370.634
382.595
394.657
406.786
418.97
431.178
443.38
455.543
467.634
479.619
491.475
503.208
514.886
526.474
537.891
549.139
560.194
571.029
581.619
591.936
601.954
611.644
620.979
629.931
638.473
646.578
654.22
661.374
668.014
674.12
679.669
684.644
689.026
692.806
695.974
698.539
700.52
701.769
702.201
702.131
701.277
699.981
698.169
695.595
692.462
688.75
684.492
679.716
674.449
668.724
662.571
656.027
649.131
641.916
634.427
626.711
618.806
610.75
602.597
594.38
586.164
577.991
569.933
562.027
554.32
546.856
539.657
532.73
526.171
520.011
514.27
508.949
504.09
499.601
495.528
491.963
488.802
486.271
484.257
482.654
481.461
480.64
480.159
479.928
479.817
479.882
481.941
486.719
492.105
497.505
502.883
507.724
511.615
512.453
493.307
1.80119
0.996167
0.883649
0.917598
1.00549
1.12301
1.26307
1.4231
1.60046
1.79534
2.00968
2.24676
2.51073
2.80577
3.13343
3.49329
3.88526
4.31043
4.77044
5.26728
5.80262
6.37802
6.99459
7.65341
8.35522
9.10072
9.88981
10.7214
11.5965
12.5175
13.4851
14.5006
15.5633
16.6733
17.8326
19.0435
20.3082
21.6294
23.0103
24.4542
25.9622
27.5326
29.1643
30.8611
32.6236
34.4543
36.3544
38.3261
40.3707
42.4904
44.6862
46.9603
49.3137
51.7485
54.2652
56.8658
59.5509
62.3222
65.1798
68.1253
71.1586
74.281
77.492
80.7928
84.1825
87.6619
91.2297
94.8865
98.6304
102.462
106.378
110.379
114.462
118.627
122.87
127.189
131.582
136.045
140.576
145.172
149.826
154.538
159.299
164.107
168.955
173.837
178.746
183.676
188.617
193.563
198.502
203.425
208.323
213.189
218.019
222.821
227.613
232.435
237.299
242.089
246.815
251.465
256.029
260.497
264.859
269.105
273.224
277.206
281.039
284.713
288.218
291.543
294.679
297.615
300.343
302.854
305.14
307.194
309.01
310.584
311.91
312.983
313.779
314.297
314.552
314.533
314.31
313.85
313.102
312.109
310.871
309.404
307.718
305.823
303.733
301.458
299.015
296.418
293.681
290.821
287.856
284.8
281.672
278.49
275.273
272.044
268.824
265.637
262.503
259.441
256.467
253.591
250.828
248.205
245.733
243.426
241.296
239.354
237.589
236.012
234.632
233.447
232.517
231.823
231.323
231.004
230.871
230.934
231.151
231.504
232.026
233.079
234.748
236.621
238.524
240.434
242.192
243.878
245.034
245.375
3.47215
1.64886
1.33031
1.28215
1.32623
1.41992
1.54962
1.71064
1.9007
2.11865
2.36388
2.63618
2.93552
3.26192
3.61513
3.99475
4.40067
4.83332
5.29344
5.78205
6.30014
6.84868
7.42862
8.04094
8.68673
9.36742
10.085
10.8359
11.6177
12.4264
13.2708
14.1537
15.0763
16.0399
17.046
18.0959
19.1911
20.3329
21.5222
22.7602
24.0474
25.3843
26.7722
28.2128
29.708
31.2581
32.8643
34.5277
36.2495
38.0308
39.8727
41.7763
43.7425
45.7723
47.8665
50.0259
52.2511
54.5429
56.9018
59.3282
61.8225
64.385
67.0158
69.715
72.4825
75.3181
78.2215
81.1923
84.2296
87.333
90.5013
93.7335
97.0283
100.384
103.8
107.273
110.803
114.385
118.019
121.701
125.429
129.2
133.009
136.854
140.73
144.633
148.559
152.503
156.46
160.425
164.393
168.359
172.32
176.273
180.218
184.157
188.093
192.029
195.948
199.821
203.644
207.411
211.112
214.74
218.288
221.746
225.106
228.36
231.499
234.515
237.399
240.143
242.739
245.178
247.453
249.557
251.483
253.225
254.777
256.134
257.291
258.243
258.983
259.513
259.805
259.891
259.813
259.523
259.021
258.319
257.423
256.343
255.086
253.661
252.077
250.345
248.475
246.48
244.372
242.162
239.865
237.493
235.06
232.581
230.071
227.546
225.023
222.518
220.048
217.628
215.27
212.986
210.787
208.689
206.702
204.836
203.1
201.502
200.044
198.731
197.569
196.561
195.724
195.054
194.537
194.167
193.946
193.864
193.889
194.032
194.289
194.784
195.51
196.333
197.175
197.987
198.741
199.603
200.446
202.171
5.04281
2.28949
1.81433
1.71231
1.73211
1.81805
1.9498
2.11939
2.32318
2.55903
2.82526
3.12023
3.44233
3.79006
4.16215
4.55771
4.97633
5.41814
5.88365
6.37368
6.88914
7.43104
8.0003
8.59779
9.22411
9.87954
10.5636
11.2793
12.0295
12.8182
13.6442
14.5078
15.4098
16.3515
17.334
18.3586
19.4267
20.5395
21.6969
22.8995
24.1478
25.4422
26.7829
28.1693
29.606
31.0942
32.635
34.2294
35.8785
37.5834
39.345
41.1644
43.0424
44.9801
46.9782
49.0375
51.1585
53.342
55.5885
57.8986
60.2726
62.711
65.214
67.7817
70.4142
73.1115
75.8734
78.6996
81.5897
84.543
87.5589
90.6366
93.7749
96.9727
100.229
103.541
106.908
110.328
113.799
117.319
120.884
124.492
128.141
131.827
135.546
139.295
143.071
146.868
150.685
154.515
158.356
162.204
166.056
169.908
173.759
177.606
181.448
185.276
189.078
192.841
196.56
200.226
203.832
207.37
210.832
214.212
217.499
220.687
223.766
226.729
229.568
232.273
234.838
237.253
239.513
241.608
243.533
245.281
246.846
248.222
249.406
250.392
251.177
251.76
252.12
252.263
252.247
252.022
251.597
250.979
250.174
249.189
248.032
246.711
245.234
243.612
241.854
239.973
237.979
235.884
233.701
231.442
229.12
226.749
224.343
221.916
219.484
217.061
214.663
212.302
209.991
207.742
205.566
203.474
201.476
199.581
197.796
196.129
194.583
193.165
191.878
190.725
189.712
188.837
188.094
187.477
186.984
186.601
186.313
186.115
185.998
186.024
186.137
186.3
186.492
186.625
186.747
187.084
187.563
188.838
6.41082
2.91492
2.30188
2.15433
2.1535
2.23143
2.36229
2.53507
2.74455
2.98766
3.26202
3.56549
3.89598
4.25164
4.63094
5.03286
5.45692
5.90315
6.37203
6.86435
7.38109
7.92333
8.49214
9.08861
9.71377
10.3687
11.0546
11.7732
12.5261
13.315
14.1403
15.0029
15.9037
16.8436
17.8235
18.8442
19.9063
21.0105
22.1584
23.3509
24.5891
25.8742
27.2075
28.5912
30.0257
31.5118
33.0504
34.6427
36.2899
37.9931
39.7534
41.5719
43.4498
45.3882
47.3884
49.451
51.5767
53.7663
56.0206
58.3402
60.726
63.1784
65.6979
68.285
70.94
73.6631
76.4543
79.3136
82.2409
85.2357
88.2976
91.426
94.62
97.8787
101.201
104.585
108.03
111.533
115.093
118.708
122.375
126.091
129.854
133.661
137.507
141.391
145.307
149.253
153.224
157.217
161.228
165.251
169.284
173.322
177.36
181.393
185.414
189.416
193.39
197.328
201.221
205.062
208.843
212.556
216.194
219.747
223.207
226.567
229.816
232.947
235.95
238.817
241.54
244.11
246.52
248.761
250.826
252.707
254.4
255.897
257.194
258.286
259.169
259.843
260.295
260.51
260.545
260.366
259.981
259.393
258.61
257.637
256.481
255.152
253.658
252.008
250.214
248.286
246.236
244.076
241.819
239.477
237.063
234.591
232.075
229.529
226.967
224.405
221.856
219.334
216.852
214.42
212.051
209.754
207.539
205.414
203.387
201.464
199.65
197.95
196.369
194.907
193.566
192.345
191.241
190.248
189.361
188.568
187.859
187.224
186.653
186.175
185.745
185.367
185
184.624
184.286
184.138
184.221
184.859
7.60424
3.50349
2.77096
2.57959
2.55934
2.62711
2.75329
2.92417
3.13307
3.37606
3.65041
3.95378
4.28413
4.63968
5.01899
5.42114
5.84566
6.2926
6.7624
7.25582
7.77381
8.31748
8.88796
9.48645
10.1142
10.7723
11.4622
12.1851
12.9425
13.7353
14.5646
15.4314
16.3366
17.2812
18.2661
19.2924
20.361
21.473
22.6295
23.8319
25.0814
26.3791
27.7266
29.1251
30.5758
32.0799
33.6386
35.2531
36.9249
38.6552
40.4454
42.2967
44.2106
46.188
48.2302
50.3384
52.5142
54.7587
57.0731
59.4585
61.9158
64.446
67.05
69.7284
72.482
75.3113
78.2166
81.1983
84.2563
87.3907
90.6012
93.8873
97.2484
100.684
104.192
107.772
111.423
115.142
118.927
122.777
126.688
130.659
134.685
138.764
142.892
147.066
151.281
155.532
159.817
164.13
168.467
172.822
177.19
181.565
185.942
190.313
194.67
199.006
203.313
207.583
211.806
215.976
220.084
224.12
228.077
231.944
235.714
239.376
242.922
246.342
249.626
252.766
255.752
258.575
261.226
263.697
265.979
268.066
269.95
271.623
273.081
274.319
275.332
276.117
276.672
276.97
277.054
276.913
276.548
275.964
275.165
274.159
272.953
271.556
269.977
268.227
266.315
264.253
262.054
259.73
257.294
254.759
252.139
249.448
246.7
243.909
241.091
238.26
235.43
232.615
229.828
227.082
224.386
221.752
219.189
216.706
214.309
212.005
209.8
207.697
205.701
203.812
202.032
200.36
198.792
197.325
195.954
194.67
193.462
192.323
191.243
190.228
189.261
188.339
187.446
186.581
185.781
185.166
184.763
184.791
9.32833
4.16965
3.2421
2.98426
2.93576
2.98769
3.10467
3.26938
3.4733
3.71165
3.98129
4.27984
4.6054
4.95637
5.33157
5.73018
6.15186
6.59664
7.06492
7.55742
8.07502
8.61876
9.18978
9.78926
10.4184
11.0785
11.7707
12.4963
13.2564
14.0523
14.8851
15.7558
16.6655
17.6154
18.6066
19.6402
20.7175
21.8397
23.0082
24.2243
25.4895
26.8052
28.1728
29.5938
31.0697
32.602
34.1921
35.8418
37.5525
39.3259
41.1637
43.0674
45.0388
47.0795
49.1911
51.3753
53.6337
55.9681
58.3799
60.8707
63.4418
66.0947
68.8306
71.6505
74.5557
77.5469
80.6248
83.7902
87.0433
90.3843
93.8133
97.33
100.934
104.624
108.4
112.261
116.203
120.227
124.33
128.508
132.761
137.084
141.474
145.927
150.44
155.008
159.626
164.29
168.995
173.735
178.505
183.297
188.107
192.926
197.747
202.563
207.365
212.144
216.892
221.6
226.259
230.859
235.392
239.848
244.218
248.49
252.656
256.705
260.627
264.412
268.05
271.53
274.842
277.976
280.924
283.674
286.22
288.551
290.661
292.542
294.186
295.59
296.747
297.655
298.311
298.692
298.822
298.71
298.349
297.744
296.902
295.83
294.536
293.028
291.316
289.411
287.324
285.067
282.653
280.096
277.408
274.603
271.697
268.703
265.636
262.512
259.345
256.152
252.946
249.742
246.554
243.393
240.272
237.201
234.19
231.247
228.38
225.595
222.897
220.291
217.782
215.369
213.056
210.84
208.722
206.698
204.765
202.916
201.143
199.441
197.802
196.226
194.707
193.242
191.829
190.476
189.217
188.144
187.258
186.676
11.4427
4.88523
3.70184
3.35739
3.27183
3.30255
3.40651
3.56193
3.75815
3.9893
4.25179
4.54315
4.86156
5.20564
5.57437
5.96712
6.3836
6.8239
7.28837
7.77766
8.2926
8.83415
9.40339
10.0015
10.6296
11.2889
11.9807
12.7062
13.4666
14.2633
15.0973
15.97
16.8826
17.8364
18.8327
19.8729
20.9584
22.0908
23.2714
24.5021
25.7844
27.12
28.5107
29.9581
31.464
33.0304
34.659
36.3518
38.1108
39.938
41.8355
43.8053
45.8495
47.9704
50.1699
52.4503
54.8137
57.2622
59.7978
62.4225
65.1383
67.947
70.8503
73.8498
76.947
80.1431
83.4395
86.8368
90.336
93.9374
97.6413
101.448
105.356
109.366
113.476
117.686
121.993
126.396
130.891
135.477
140.151
144.908
149.745
154.658
159.641
164.691
169.801
174.965
180.178
185.433
190.723
196.041
201.379
206.728
212.081
217.427
222.757
228.062
233.332
238.558
243.729
248.835
253.865
258.809
263.657
268.396
273.018
277.509
281.859
286.057
290.092
293.952
297.628
301.107
304.38
307.436
310.266
312.86
315.211
317.309
319.147
320.72
322.022
323.048
323.796
324.247
324.415
324.312
323.933
323.284
322.37
321.199
319.78
318.122
316.235
314.13
311.82
309.317
306.634
303.786
300.786
297.65
294.392
291.028
287.574
284.045
280.457
276.826
273.168
269.497
265.827
262.173
258.544
254.953
251.41
247.923
244.5
241.148
237.873
234.68
231.573
228.554
225.626
222.79
220.046
217.393
214.829
212.352
209.956
207.639
205.396
203.227
201.132
199.113
197.173
195.326
193.601
192.071
190.711
189.582
13.4971
5.55914
4.11839
3.68405
3.55843
3.56555
3.65439
3.79876
3.98578
4.20848
4.46272
4.74585
5.05606
5.39209
5.75306
6.13846
6.54809
6.98205
7.44071
7.92464
8.43463
8.97162
9.53663
10.1308
10.7552
11.4111
12.0997
12.8224
13.5805
14.3754
15.2084
16.0809
16.9944
17.9504
18.9504
19.996
21.0888
22.2306
23.4232
24.6686
25.9689
27.326
28.742
30.2189
31.7589
33.3644
35.0375
36.7807
38.5963
40.487
42.4552
44.5036
46.6347
48.8514
51.1562
53.5519
56.0412
58.6268
61.3112
64.0971
66.9869
69.983
73.0876
76.3029
79.6309
83.0732
86.6315
90.3071
94.101
98.0139
102.046
106.198
110.47
114.86
119.368
123.992
128.73
133.581
138.54
143.606
148.775
154.041
159.401
164.85
170.382
175.991
181.67
187.412
193.211
199.058
204.945
210.864
216.804
222.756
228.711
234.657
240.584
246.481
252.337
258.141
263.881
269.546
275.125
280.605
285.975
291.222
296.335
301.301
306.109
310.746
315.199
319.458
323.511
327.345
330.95
334.316
337.431
340.285
342.871
345.178
347.199
348.927
350.356
351.482
352.301
352.797
352.981
352.861
352.435
351.708
350.688
349.383
347.801
345.952
343.848
341.5
338.92
336.123
333.123
329.933
326.57
323.048
319.384
315.593
311.692
307.698
303.627
299.495
295.32
291.116
286.898
282.68
278.475
274.294
270.147
266.045
261.995
258.005
254.081
250.228
246.453
242.759
239.149
235.625
232.191
228.847
225.595
222.435
219.366
216.389
213.503
210.711
208.016
205.425
202.945
200.593
198.394
196.404
194.577
192.949
15.3913
6.16261
4.47897
3.95823
3.7915
3.77576
3.84839
3.98084
4.15799
4.37172
4.61732
4.89188
5.19352
5.52101
5.87356
6.25074
6.65242
7.07872
7.53001
8.00684
8.50998
9.04042
9.59924
10.1877
10.8063
11.4565
12.1397
12.8574
13.6111
14.4023
15.2327
16.1037
17.017
17.9743
18.9775
20.0282
21.1284
22.2798
23.4845
24.7457
26.0658
27.4471
28.8919
30.4028
31.9825
33.6337
35.3591
37.1617
39.0444
41.0103
43.0626
45.2044
47.4391
49.77
52.2004
54.7336
57.3731
60.1221
62.9839
65.9618
69.0587
72.2777
75.6216
79.0932
82.6948
86.4286
90.2967
94.3007
98.4419
102.721
107.14
111.697
116.393
121.227
126.197
131.303
136.542
141.91
147.406
153.024
158.76
164.61
170.567
176.627
182.78
189.022
195.343
201.736
208.191
214.699
221.251
227.835
234.442
241.058
247.674
254.277
260.854
267.393
273.882
280.308
286.657
292.917
299.076
305.119
311.035
316.809
322.428
327.88
333.151
338.229
343.1
347.752
352.172
356.349
360.271
363.926
367.304
370.394
373.187
375.674
377.847
379.698
381.22
382.41
383.262
383.766
383.928
383.753
383.238
382.394
381.226
379.743
377.954
375.871
373.505
370.868
367.974
364.837
361.472
357.894
354.119
350.163
346.042
341.773
337.374
332.862
328.254
323.567
318.819
314.025
309.203
304.364
299.525
294.695
289.887
285.11
280.373
275.685
271.053
266.483
261.982
257.554
253.206
248.941
244.764
240.68
236.693
232.806
229.022
225.347
221.784
218.34
215.023
211.842
208.808
205.94
203.256
200.803
198.519
196.427
17.0703
6.68336
4.77919
4.17861
3.97214
3.9344
3.99128
4.11177
4.27894
4.48364
4.7206
4.98663
5.27973
5.59863
5.94258
6.31117
6.70435
7.12232
7.56549
8.03408
8.52897
9.05134
9.60252
10.1842
10.7963
11.4405
12.1181
12.8308
13.5801
14.3678
15.1955
16.0651
16.9784
17.9375
18.9443
20.0009
21.1096
22.2723
23.4918
24.7729
26.1175
27.5286
29.009
30.562
32.1907
33.8984
35.6883
37.5642
39.5294
41.5879
43.7433
45.9998
48.3611
50.8315
53.415
56.1157
58.9376
61.8848
64.9613
68.1709
71.5174
75.0044
78.6353
82.4133
86.3414
90.4221
94.6579
99.0505
103.602
108.312
113.183
118.214
123.405
128.755
134.261
139.923
145.737
151.699
157.806
164.052
170.432
176.94
183.57
190.312
197.16
204.105
211.137
218.245
225.421
232.652
239.926
247.232
254.556
261.886
269.208
276.508
283.773
290.987
298.136
305.207
312.184
319.054
325.801
332.413
338.873
345.168
351.285
357.208
362.924
368.419
373.68
378.693
383.447
387.928
392.124
396.024
399.618
402.894
405.844
408.458
410.729
412.648
414.21
415.409
416.24
416.698
416.784
416.502
415.844
414.828
413.461
411.75
409.705
407.338
404.662
401.688
398.432
394.909
391.132
387.119
382.887
378.45
373.827
369.035
364.091
359.014
353.823
348.534
343.166
337.737
332.262
326.756
321.234
315.709
310.191
304.692
299.222
293.789
288.402
283.069
277.797
272.592
267.462
262.414
257.455
252.591
247.832
243.183
238.653
234.25
229.984
225.866
221.906
218.118
214.518
211.122
207.947
205.029
202.296
199.77
18.4997
7.11591
5.01916
4.34761
4.10482
4.04633
4.08818
4.19706
4.35446
4.55036
4.77897
5.0368
5.32171
5.63241
5.96813
6.32827
6.71291
7.1226
7.55841
8.0196
8.50728
9.02245
9.56617
10.1393
10.7431
11.3795
12.0502
12.7569
13.5016
14.2862
15.1126
15.983
16.8995
17.8645
18.8806
19.9506
21.0763
22.2601
23.5047
24.8143
26.193
27.6445
29.1728
30.7822
32.4764
34.259
36.1341
38.1059
40.1786
42.3569
44.6453
47.0487
49.5718
52.2196
54.9969
57.9086
60.9596
64.1547
67.4985
70.9956
74.6503
78.467
82.4494
86.6012
90.9257
95.4259
100.104
104.963
110.003
115.225
120.631
126.219
131.989
137.939
144.067
150.369
156.843
163.483
170.283
177.239
184.342
191.586
198.962
206.46
214.071
221.784
229.588
237.471
245.42
253.422
261.464
269.531
277.609
285.682
293.735
301.752
309.717
317.614
325.427
333.14
340.737
348.202
355.52
362.674
369.649
376.43
383.003
389.352
395.463
401.322
406.915
412.228
417.249
421.965
426.365
430.437
434.171
437.557
440.585
443.249
445.539
447.449
448.972
450.105
450.842
451.181
451.121
450.66
449.792
448.542
446.914
444.916
442.557
439.851
436.81
433.448
429.78
425.82
421.586
417.093
412.358
407.398
402.23
396.873
391.344
385.663
379.848
373.919
367.893
361.789
355.624
349.414
343.173
336.915
330.652
324.395
318.156
311.944
305.769
299.638
293.562
287.549
281.607
275.746
269.975
264.306
258.748
253.314
248.015
242.865
237.877
233.067
228.451
224.046
219.869
215.938
212.268
208.886
205.715
202.783
19.6636
7.4599
5.20166
4.4695
4.1948
4.11738
4.14538
4.24339
4.3916
4.57931
4.80029
5.05059
5.32801
5.63149
5.96081
6.3143
6.69212
7.09433
7.52099
7.97322
8.45222
8.95919
9.49547
10.0626
10.6619
11.2949
11.9635
12.6697
13.4158
14.204
15.0371
15.9169
16.8456
17.8263
18.8618
19.9549
21.1061
22.321
23.6042
24.9605
26.3941
27.9094
29.5108
31.203
32.9917
34.8812
36.8762
38.9818
41.2032
43.5458
46.0152
48.6171
51.3573
54.2415
57.2755
60.4651
63.8157
67.3329
71.0221
74.8883
78.9364
83.171
87.5963
92.2161
97.0338
102.052
107.274
112.7
118.332
124.17
130.215
136.464
142.916
149.569
156.418
163.459
170.688
178.098
185.681
193.431
201.339
209.394
217.587
225.906
234.34
242.875
251.499
260.197
268.955
277.757
286.587
295.43
304.269
313.086
321.864
330.585
339.231
347.785
356.229
364.546
372.717
380.725
388.554
396.188
403.609
410.802
417.752
424.444
430.862
436.993
442.822
448.337
453.525
458.373
462.871
467.009
470.775
474.163
477.163
479.768
481.972
483.769
485.154
486.123
486.672
486.798
486.508
485.774
484.62
483.06
481.099
478.745
476.008
472.9
469.436
465.63
461.497
457.052
452.313
447.295
442.015
436.492
430.742
424.783
418.634
412.314
405.844
399.242
392.528
385.721
378.837
371.895
364.908
357.892
350.858
343.82
336.789
329.775
322.789
315.84
308.94
302.099
295.326
288.635
282.037
275.547
269.177
262.945
256.865
250.957
245.237
239.728
234.449
229.421
224.664
220.198
216.034
212.196
208.602
205.291
20.5501
7.71488
5.32964
4.54884
4.24771
4.15392
4.16988
4.25838
4.39854
4.5793
4.79463
5.03945
5.31145
5.60895
5.93081
6.27722
6.64833
7.04465
7.46667
7.91514
8.39116
8.89611
9.43159
9.99954
10.6011
11.2381
11.9129
12.6279
13.3855
14.1884
15.0392
15.9383
16.8904
17.8992
18.9686
20.1025
21.3051
22.5809
23.9348
25.3721
26.8978
28.5171
30.2358
32.0594
33.9945
36.0465
38.2213
40.525
42.9642
45.5452
48.2748
51.1596
54.2065
57.422
60.8128
64.3852
68.1454
72.0995
76.2529
80.6112
85.1792
89.9614
94.9619
100.184
105.631
111.304
117.206
123.337
129.697
136.286
143.1
150.139
157.398
164.873
172.558
180.448
188.535
196.811
205.267
213.892
222.676
231.607
240.673
249.86
259.153
268.539
278.002
287.524
297.09
306.682
316.283
325.875
335.437
344.953
354.402
363.765
373.023
382.157
391.148
399.976
408.623
417.071
425.302
433.3
441.047
448.528
455.726
462.628
469.218
475.483
481.41
486.985
492.197
497.034
501.487
505.546
509.204
512.452
515.284
517.695
519.68
521.235
522.355
523.04
523.286
523.096
522.45
521.348
519.817
517.861
515.486
512.7
509.513
505.937
501.988
497.68
493.029
488.05
482.76
477.175
471.312
465.189
458.824
452.232
445.435
438.451
431.301
424.004
416.58
409.049
401.429
393.737
385.989
378.199
370.381
362.549
354.713
346.886
339.079
331.304
323.572
315.895
308.286
300.759
293.33
286.015
278.831
271.799
264.938
258.272
251.822
245.616
239.678
234.031
228.7
223.706
219.059
214.781
210.784
207.119
21.1599
7.88287
5.40681
4.59072
4.26994
4.16317
4.16986
4.25194
4.38661
4.56219
4.77169
5.01148
5.27931
5.57398
5.89451
6.24081
6.61257
7.01018
7.43449
7.8866
8.36786
8.87985
9.42429
10.0029
10.6164
11.268
11.9607
12.6973
13.4812
14.3155
15.2039
16.15
17.1579
18.2318
19.3765
20.597
21.8988
23.2871
24.7681
26.3477
28.0324
29.8286
31.743
33.7828
35.955
38.2669
40.726
43.34
46.1163
49.0626
52.1866
55.4961
58.9988
62.7019
66.6124
70.7369
75.0816
79.6524
84.4543
89.4922
94.7702
100.292
106.06
112.076
118.342
124.858
131.625
138.64
145.901
153.406
161.15
169.128
177.334
185.762
194.404
203.249
212.29
221.515
230.912
240.469
250.173
260.009
269.964
280.02
290.163
300.374
310.637
320.934
331.246
341.554
351.838
362.081
372.26
382.357
392.35
402.22
411.946
421.509
430.888
440.063
449.016
457.729
466.183
474.361
482.247
489.826
497.082
504.002
510.571
516.778
522.609
528.052
533.098
537.737
541.959
545.758
549.127
552.06
554.553
556.604
558.208
559.365
560.071
560.333
560.146
559.493
558.367
556.797
554.786
552.338
549.461
546.162
542.452
538.341
533.846
528.981
523.761
518.201
512.319
506.131
499.653
492.902
485.894
478.649
471.184
463.518
455.673
447.668
439.524
431.26
422.895
414.447
405.932
397.366
388.762
380.133
371.493
362.854
354.228
345.628
337.068
328.561
320.121
311.765
303.512
295.38
287.392
279.57
271.939
264.527
257.36
250.472
243.89
237.643
231.753
226.232
221.104
216.393
212.008
208.048
21.575
7.98812
5.44566
4.6038
4.2695
4.1548
4.15574
4.23218
4.36343
4.53824
4.74906
4.99154
5.26327
5.56289
5.88967
6.24333
6.62303
7.03018
7.46605
7.93213
8.43021
8.96234
9.53084
10.1384
10.7877
11.482
12.2247
13.0198
13.8714
14.7839
15.7622
16.8115
17.937
19.1443
20.4397
21.8296
23.3208
24.9206
26.6364
28.4761
30.4475
32.5586
34.8174
37.2319
39.8096
42.5606
45.4955
48.6229
51.9507
55.4872
59.2408
63.2199
67.4331
71.8869
76.5873
81.5401
86.75
92.221
97.9559
103.957
110.226
116.764
123.57
130.643
137.982
145.583
153.443
161.557
169.92
178.524
187.363
196.429
205.711
215.201
224.886
234.756
244.798
254.999
265.344
275.819
286.409
297.097
307.867
318.703
329.586
340.499
351.422
362.336
373.223
384.063
394.836
405.522
416.1
426.551
436.853
446.986
456.931
466.666
476.174
485.433
494.426
503.134
511.541
519.63
527.386
534.795
541.842
548.516
554.803
560.694
566.177
571.242
575.88
580.084
583.846
587.16
590.024
592.433
594.384
595.882
596.921
597.506
597.625
597.319
596.521
595.26
593.549
591.391
588.792
585.755
582.288
578.398
574.094
569.386
564.289
558.818
552.986
546.809
540.303
533.484
526.368
518.971
511.309
503.398
495.257
486.904
478.361
469.648
460.784
451.791
442.686
433.488
424.215
414.88
405.499
396.086
386.653
377.213
367.782
358.372
349
339.678
330.424
321.258
312.2
303.272
294.499
285.912
277.536
269.404
261.545
253.979
246.756
239.913
233.484
227.51
221.98
216.915
212.217
208.013
21.7787
8.01528
5.4424
4.5919
4.25252
4.13456
4.13701
4.21844
4.35655
4.53936
4.75869
5.01139
5.29545
5.60981
5.95419
6.32893
6.73476
7.17294
7.64526
8.15397
8.70172
9.29153
9.92686
10.6116
11.35
12.1467
13.0069
13.9359
14.9399
16.0251
17.1986
18.4676
19.8398
21.3232
22.9266
24.6589
26.5295
28.548
30.7241
33.0679
35.5891
38.2976
41.2031
44.3149
47.6426
51.1954
54.9814
59.0096
63.2889
67.8268
72.6305
77.7082
83.0713
88.7189
94.6529
100.876
107.39
114.191
121.276
128.643
136.287
144.204
152.388
160.832
169.53
178.474
187.655
197.064
206.692
216.527
226.56
236.777
247.168
257.719
268.418
279.25
290.201
301.257
312.402
323.62
334.897
346.214
357.557
368.906
380.246
391.559
402.825
414.027
425.146
436.164
447.06
457.817
468.415
478.834
489.056
499.061
508.831
518.347
527.59
536.542
545.187
553.507
561.487
569.113
576.371
583.249
589.736
595.819
601.489
606.738
611.559
615.941
619.878
623.363
626.395
628.966
631.075
632.725
633.907
634.643
634.915
634.743
634.114
633.01
631.47
629.486
627.062
624.202
620.912
617.196
613.061
608.511
603.555
598.201
592.462
586.35
579.88
573.064
565.919
558.459
550.699
542.654
534.339
525.768
516.959
507.93
498.702
489.295
479.729
470.023
460.198
450.272
440.261
430.181
420.047
409.872
399.67
389.456
379.244
369.051
358.893
348.786
338.747
328.799
318.968
309.277
299.741
290.398
281.287
272.446
263.928
255.779
248.019
240.687
233.828
227.433
221.53
216.144
211.167
206.772
21.7818
7.99177
5.41039
4.56107
4.23113
4.12707
4.14437
4.24117
4.3974
4.60198
4.8487
5.13406
5.45643
5.8155
6.2119
6.64705
7.12303
7.64253
8.2089
8.82616
9.49891
10.2323
11.0322
11.9049
12.8579
13.899
15.0367
16.28
17.6388
19.1237
20.7456
22.5163
24.4477
26.5522
28.8425
31.3314
34.0315
36.9552
40.1142
43.5204
47.1848
51.1172
55.3265
59.8212
64.6095
69.6975
75.0897
80.7922
86.8079
93.1354
99.7721
106.713
113.947
121.473
129.292
137.412
145.821
154.5
163.435
172.613
182.023
191.652
201.488
211.521
221.736
232.123
242.669
253.362
264.19
275.14
286.2
297.358
308.601
319.916
331.292
342.714
354.169
365.645
377.127
388.602
400.056
411.474
422.843
434.147
445.372
456.503
467.523
478.418
489.17
499.765
510.184
520.414
530.435
540.232
549.788