/*--------------------------------*- C++ -*----------------------------------*\
| =========                 |                                                 |
| \\      /  F ield         | OpenFOAM: The Open Source CFD Toolbox           |
|  \\    /   O peration     | Version:  4.1                                   |
|   \\  /    A nd           | Web:      www.OpenFOAM.org                      |
|    \\/     M anipulation  |                                                 |
\*---------------------------------------------------------------------------*/
FoamFile
{
    version     2.0;
    format      ascii;
    class       volScalarField;
    location    "200";
    object      k;
}
// * * * * * * * * * * * * * * * * * * * * * * * * * * * * * * * * * * * * * //

dimensions      [0 2 -2 0 0 0 0];

internalField   nonuniform List<scalar> 
12225
(
0.580289
1.01383
1.31598
1.48985
1.57421
1.60333
1.60025
1.58728
1.56463
1.53891
1.51397
1.49035
1.46938
1.44981
1.43373
1.41768
1.40695
1.392
0.44218
0.502554
0.527845
0.540384
0.547603
0.551475
0.553415
0.555462
0.558578
0.562471
0.568155
0.574557
0.58268
0.591059
0.600725
0.610303
0.62016
0.631225
0.387492
0.419265
0.42632
0.423526
0.416694
0.406294
0.394566
0.383309
0.371979
0.362274
0.352774
0.345477
0.338165
0.333361
0.328069
0.325458
0.321832
0.320876
0.375846
0.384399
0.388021
0.387392
0.385552
0.381467
0.376077
0.370127
0.363719
0.357313
0.35087
0.344694
0.338693
0.33303
0.327722
0.322695
0.318138
0.313742
0.37401
0.374901
0.375831
0.375403
0.374368
0.372283
0.369557
0.366319
0.362838
0.359066
0.355311
0.351356
0.34764
0.343729
0.34022
0.336472
0.333288
0.329762
0.37373
0.372268
0.371497
0.370519
0.369352
0.36781
0.366005
0.36389
0.361666
0.359217
0.356797
0.3542
0.351737
0.349114
0.346716
0.344145
0.34188
0.339413
0.373791
0.371642
0.369946
0.368411
0.366965
0.365456
0.363909
0.362239
0.360541
0.358733
0.356944
0.355063
0.353252
0.351362
0.349582
0.347726
0.346017
0.344224
0.373824
0.371561
0.369556
0.367732
0.366064
0.364454
0.362905
0.361339
0.359799
0.358223
0.356683
0.355106
0.35358
0.352025
0.35054
0.349028
0.347605
0.346147
0.373832
0.371558
0.36945
0.367489
0.36568
0.363972
0.362364
0.360803
0.359303
0.35782
0.356387
0.354962
0.353583
0.352211
0.350891
0.349576
0.348322
0.347064
0.373831
0.371562
0.369424
0.367408
0.365519
0.363738
0.362065
0.360471
0.358958
0.357499
0.356104
0.354748
0.353447
0.352176
0.350956
0.349762
0.348619
0.347495
0.373829
0.371561
0.369417
0.367384
0.365465
0.363647
0.361932
0.360304
0.358763
0.357294
0.355896
0.354557
0.35328
0.352052
0.350876
0.349743
0.348657
0.347608
0.373828
0.371558
0.36941
0.367374
0.365444
0.363614
0.361879
0.360233
0.358672
0.357187
0.355776
0.354432
0.353152
0.351931
0.350765
0.349651
0.348585
0.347565
0.373827
0.371556
0.369404
0.367365
0.365431
0.363596
0.361855
0.360201
0.35863
0.357136
0.355715
0.354363
0.353075
0.351849
0.35068
0.349565
0.3485
0.347485
0.373826
0.371554
0.3694
0.367358
0.365422
0.363584
0.361838
0.36018
0.358605
0.357106
0.35568
0.354322
0.35303
0.351798
0.350624
0.349505
0.348437
0.347418
0.373826
0.371552
0.369397
0.367353
0.365414
0.363574
0.361826
0.360165
0.358586
0.357084
0.355655
0.354295
0.352998
0.351763
0.350586
0.349463
0.348392
0.34737
0.373825
0.371551
0.369395
0.367349
0.365409
0.363566
0.361817
0.360154
0.358572
0.357068
0.355637
0.354274
0.352975
0.351738
0.350558
0.349433
0.348359
0.347335
0.373825
0.371551
0.369393
0.367347
0.365405
0.363562
0.36181
0.360146
0.358563
0.357057
0.355624
0.354259
0.352959
0.351719
0.350538
0.349411
0.348336
0.34731
0.373825
0.371551
0.369393
0.367346
0.365404
0.36356
0.361807
0.360142
0.358558
0.357052
0.355617
0.354252
0.35295
0.35171
0.350527
0.3494
0.348324
0.347297
0.373825
0.371551
0.369393
0.367347
0.365404
0.36356
0.361808
0.360142
0.358559
0.357052
0.355617
0.354251
0.35295
0.351709
0.350526
0.349398
0.348322
0.347295
0.373825
0.371551
0.369394
0.367348
0.365406
0.363563
0.361811
0.360146
0.358562
0.357056
0.355622
0.354256
0.352955
0.351715
0.350533
0.349405
0.34833
0.347303
0.373826
0.371552
0.369396
0.367351
0.36541
0.363567
0.361816
0.360152
0.35857
0.357066
0.355633
0.35427
0.352971
0.351733
0.350553
0.349427
0.348353
0.347328
0.373826
0.371553
0.369398
0.367354
0.365415
0.363575
0.361828
0.36017
0.358594
0.357096
0.355671
0.354314
0.353021
0.351789
0.350613
0.34949
0.348418
0.347392
0.373826
0.371555
0.3694
0.367362
0.365432
0.363608
0.361882
0.360248
0.358696
0.35722
0.355814
0.354471
0.353187
0.351957
0.350777
0.349645
0.348556
0.347511
0.373827
0.371552
0.369412
0.36742
0.365552
0.363806
0.362156
0.360592
0.359091
0.35765
0.356255
0.354904
0.35359
0.352316
0.351074
0.349868
0.348693
0.347554
0.373817
0.371557
0.369579
0.367833
0.366203
0.364681
0.363181
0.361704
0.360211
0.358724
0.357223
0.355731
0.354238
0.352765
0.351296
0.34986
0.348438
0.347055
0.373752
0.371904
0.370798
0.369755
0.368638
0.367447
0.365995
0.364405
0.36263
0.360789
0.358841
0.35688
0.354866
0.35287
0.350859
0.348896
0.346931
0.345032
0.373955
0.374792
0.376338
0.376385
0.375899
0.374613
0.372423
0.369952
0.367103
0.364195
0.361081
0.358005
0.35482
0.351728
0.348594
0.345565
0.342544
0.339651
0.377029
0.39087
0.398672
0.398153
0.396367
0.392634
0.387945
0.383146
0.377879
0.372747
0.367379
0.362234
0.357064
0.352123
0.34736
0.342771
0.338552
0.334383
0.401068
0.430057
0.440456
0.444208
0.44707
0.450285
0.453165
0.455996
0.458394
0.460666
0.462695
0.464554
0.466516
0.468157
0.470312
0.471919
0.474569
0.476139
0.464821
0.644118
0.800194
0.916059
1.0169
1.10105
1.16842
1.22027
1.25834
1.28499
1.30214
1.31207
1.31607
1.31534
1.3124
1.30723
1.30008
1.29183
0.0044585
0.00729966
0.0102753
0.0128475
0.0149232
0.0165518
0.0179193
0.0191656
0.0203009
0.021385
0.0224773
0.0236404
0.024959
0.0265621
0.0284689
0.0305909
0.032871
0.0353034
0.0378948
0.040665
0.0436252
0.046792
0.0501692
0.0537674
0.0575871
0.0616409
0.0659368
0.0704265
0.0750984
0.0799466
0.0849599
0.090138
0.0954721
0.100966
0.106611
0.112415
0.118373
0.124498
0.130809
0.137348
0.144157
0.151251
0.15846
0.165855
0.173408
0.181138
0.189036
0.197113
0.205363
0.213797
0.222405
0.231201
0.240174
0.249339
0.258681
0.268216
0.277929
0.287834
0.297917
0.30819
0.318637
0.32927
0.340073
0.351057
0.362203
0.373524
0.384998
0.396639
0.408422
0.420361
0.43243
0.444641
0.456968
0.469423
0.481976
0.49464
0.507384
0.52022
0.533117
0.546084
0.55909
0.572143
0.58521
0.598298
0.611372
0.624437
0.637457
0.650433
0.663331
0.676144
0.68884
0.701393
0.713773
0.725951
0.737899
0.749597
0.761047
0.772311
0.783423
0.794247
0.80482
0.815113
0.825112
0.834799
0.844152
0.853154
0.861784
0.870025
0.877855
0.885256
0.892211
0.8987
0.904708
0.910216
0.91521
0.919675
0.9236
0.926971
0.929783
0.932026
0.933701
0.934799
0.935293
0.935186
0.934468
0.933035
0.931156
0.928869
0.925908
0.922385
0.918335
0.913768
0.908711
0.903183
0.897213
0.890823
0.884042
0.876897
0.86941
0.861633
0.853597
0.845337
0.836882
0.828279
0.81956
0.81078
0.801973
0.793208
0.784537
0.77601
0.767653
0.759486
0.751559
0.743898
0.736516
0.729467
0.722817
0.716574
0.71078
0.705432
0.700439
0.69588
0.69179
0.688227
0.685171
0.68255
0.680337
0.678538
0.677076
0.675913
0.675207
0.677415
0.680859
0.684619
0.688594
0.692759
0.696748
0.699848
0.700163
0.682791
0.0110868
0.0181679
0.0249754
0.0302127
0.0345568
0.0383438
0.041756
0.0449753
0.0481879
0.0515101
0.055006
0.0587051
0.0626158
0.0667325
0.0710446
0.0755463
0.0802353
0.0851224
0.0902264
0.0955712
0.101179
0.10707
0.113259
0.119758
0.126576
0.133717
0.141184
0.148976
0.157091
0.165526
0.174275
0.18334
0.192723
0.202429
0.212459
0.222821
0.23351
0.244496
0.25578
0.267365
0.279248
0.291427
0.303892
0.316655
0.32972
0.343093
0.356779
0.370784
0.385111
0.399768
0.414755
0.430082
0.445748
0.461762
0.478123
0.494838
0.511906
0.529334
0.547119
0.565265
0.58377
0.602637
0.621862
0.641446
0.661384
0.681676
0.702316
0.723303
0.744627
0.766287
0.788271
0.810576
0.833189
0.856105
0.879309
0.902794
0.926543
0.950548
0.974791
0.999261
1.02394
1.04881
1.07385
1.09905
1.12438
1.14982
1.17535
1.20094
1.22656
1.25219
1.2778
1.30334
1.32877
1.35404
1.37911
1.40391
1.42836
1.45239
1.47598
1.49928
1.52225
1.54485
1.56706
1.58884
1.61015
1.63094
1.65117
1.67081
1.68981
1.70813
1.72573
1.74255
1.75857
1.77374
1.78802
1.80137
1.81375
1.82513
1.83548
1.84477
1.85297
1.86006
1.86604
1.8709
1.87458
1.87675
1.87778
1.8781
1.87725
1.8751
1.87183
1.86746
1.86204
1.8556
1.84819
1.83985
1.83064
1.82061
1.80983
1.79836
1.78625
1.77358
1.76041
1.74683
1.73291
1.71873
1.7044
1.69002
1.67569
1.66151
1.64756
1.63391
1.62065
1.60785
1.59557
1.5839
1.5729
1.56265
1.55321
1.54463
1.53694
1.53018
1.52436
1.51952
1.51569
1.51283
1.51094
1.50997
1.50986
1.51049
1.51178
1.51409
1.51724
1.52073
1.52423
1.52742
1.53004
1.53146
1.52856
1.51036
0.0171849
0.0294523
0.0386716
0.0455918
0.0514219
0.0566791
0.061646
0.0665148
0.0714247
0.0764706
0.0817084
0.0871652
0.0928495
0.0987607
0.104896
0.111257
0.117849
0.124689
0.131796
0.139195
0.146908
0.154959
0.163364
0.172139
0.181296
0.190844
0.200788
0.211132
0.221877
0.23302
0.244559
0.256494
0.268823
0.281544
0.294655
0.308153
0.322032
0.33629
0.350924
0.365934
0.38132
0.397081
0.41322
0.429743
0.446652
0.463953
0.48165
0.499749
0.518255
0.537172
0.556503
0.576254
0.596427
0.617027
0.638055
0.659516
0.681409
0.703738
0.726501
0.7497
0.773333
0.797398
0.821893
0.846816
0.872161
0.897924
0.9241
0.950682
0.977661
1.00503
1.03278
1.0609
1.08938
1.1182
1.14736
1.17683
1.20661
1.23667
1.267
1.29758
1.32839
1.35941
1.39061
1.42198
1.45348
1.48509
1.51678
1.54853
1.5803
1.61206
1.64378
1.67541
1.70692
1.73827
1.76942
1.80033
1.83096
1.8613
1.8913
1.92094
1.95019
1.979
2.00732
2.03511
2.06231
2.08888
2.11476
2.13991
2.16426
2.18777
2.21037
2.23203
2.25267
2.27226
2.29073
2.30804
2.32413
2.33897
2.35252
2.36472
2.37555
2.38498
2.39299
2.39955
2.40466
2.40817
2.41003
2.41067
2.41003
2.40781
2.40416
2.39912
2.39273
2.38505
2.37613
2.36603
2.35481
2.34254
2.3293
2.31516
2.30021
2.28452
2.26819
2.2513
2.23397
2.2163
2.1984
2.18039
2.1624
2.14454
2.1269
2.1096
2.09273
2.07638
2.06065
2.04561
2.03136
2.01796
2.0055
1.99403
1.98362
1.9743
1.96609
1.959
1.95306
1.94825
1.94454
1.94188
1.94019
1.93939
1.93929
1.93971
1.94073
1.94205
1.94341
1.94431
1.94449
1.94407
1.94063
1.92832
0.0220459
0.0402952
0.0518802
0.0603485
0.0674284
0.0738104
0.07986
0.0858049
0.0917982
0.0979426
0.104301
0.110906
0.117772
0.124903
0.132298
0.139963
0.147908
0.156149
0.164707
0.173607
0.182871
0.192522
0.202578
0.213055
0.223964
0.235313
0.247105
0.25934
0.272016
0.285135
0.298699
0.312707
0.327156
0.342045
0.35737
0.37313
0.38932
0.405941
0.42299
0.440469
0.458377
0.476718
0.495494
0.51471
0.534369
0.554478
0.575042
0.596066
0.617555
0.639514
0.661947
0.68486
0.708255
0.732137
0.756508
0.781372
0.806731
0.832585
0.858936
0.885783
0.913126
0.940962
0.96929
0.998105
1.0274
1.05718
1.08743
1.11814
1.1493
1.18092
1.21297
1.24544
1.27832
1.31159
1.34525
1.37927
1.41364
1.44833
1.48333
1.51861
1.55416
1.58994
1.62594
1.66212
1.69846
1.73492
1.77148
1.80811
1.84477
1.88142
1.91804
1.95457
1.99099
2.02726
2.06333
2.09917
2.13474
2.16999
2.20489
2.23939
2.27344
2.30698
2.33998
2.37236
2.40408
2.43507
2.46529
2.49466
2.52314
2.55065
2.57714
2.60254
2.62679
2.64983
2.6716
2.69204
2.7111
2.72872
2.74485
2.75945
2.77246
2.78387
2.79362
2.80171
2.80812
2.81283
2.81563
2.81676
2.81645
2.81438
2.81065
2.80529
2.79837
2.78992
2.78002
2.76872
2.7561
2.74224
2.72722
2.71113
2.69405
2.67609
2.65734
2.63791
2.61791
2.59747
2.57671
2.55577
2.53477
2.51384
2.4931
2.47266
2.45263
2.43311
2.41422
2.39605
2.37867
2.36219
2.34668
2.33221
2.31883
2.30661
2.29555
2.28567
2.27699
2.26949
2.26313
2.25783
2.2535
2.25002
2.24722
2.24493
2.24313
2.24155
2.23997
2.23811
2.23588
2.2335
2.22927
2.21963
0.0258734
0.0502496
0.0642596
0.0742835
0.0825642
0.0899609
0.0969208
0.103714
0.110521
0.117461
0.124615
0.132029
0.139729
0.14773
0.156039
0.164666
0.173623
0.182925
0.192592
0.202645
0.213104
0.22399
0.235318
0.247101
0.259349
0.272068
0.285262
0.298935
0.313086
0.327719
0.342832
0.358423
0.374492
0.391037
0.408057
0.42555
0.443515
0.461952
0.480862
0.500245
0.520104
0.540443
0.561264
0.582574
0.604379
0.626685
0.649498
0.672825
0.696671
0.721042
0.745944
0.771382
0.79736
0.823884
0.850957
0.878584
0.906766
0.935506
0.964805
0.994664
1.02508
1.05606
1.08759
1.11968
1.15231
1.18549
1.2192
1.25345
1.28821
1.32348
1.35925
1.39551
1.43224
1.46942
1.50704
1.54508
1.58351
1.62233
1.6615
1.701
1.74081
1.7809
1.82123
1.86178
1.90253
1.94342
1.98444
2.02554
2.06669
2.10785
2.14899
2.19006
2.23101
2.27181
2.31242
2.35278
2.39286
2.43259
2.47193
2.51083
2.54924
2.58709
2.62433
2.66091
2.69674
2.73179
2.76597
2.79923
2.8315
2.86271
2.89279
2.92167
2.94929
2.97558
3.00047
3.0239
3.04579
3.0661
3.08476
3.10172
3.11693
3.13034
3.14192
3.15163
3.15947
3.16542
3.16938
3.17124
3.17148
3.16979
3.16623
3.16082
3.15364
3.14472
3.13413
3.12194
3.10823
3.09308
3.07658
3.05883
3.03991
3.01995
2.99904
2.9773
2.95486
2.93185
2.9084
2.88465
2.86074
2.8368
2.81296
2.78936
2.7661
2.74329
2.72107
2.69952
2.67874
2.65883
2.63986
2.62192
2.60506
2.58934
2.57479
2.56142
2.54923
2.53822
2.52835
2.51953
2.51168
2.50468
2.49837
2.49261
2.48732
2.48229
2.47738
2.47246
2.46752
2.46288
2.45725
2.44818
0.0289845
0.0591839
0.0754951
0.087018
0.0964453
0.104788
0.112564
0.120087
0.127561
0.13513
0.142893
0.150913
0.159233
0.16788
0.176871
0.186222
0.195946
0.206059
0.216579
0.227523
0.238907
0.250748
0.26306
0.275852
0.289134
0.302913
0.317192
0.331975
0.347263
0.363059
0.379361
0.396172
0.413489
0.431314
0.449646
0.468486
0.487834
0.507694
0.528066
0.548954
0.570363
0.592298
0.614764
0.637768
0.661317
0.685418
0.710079
0.735306
0.761107
0.787489
0.814459
0.842023
0.870189
0.898962
0.928348
0.95835
0.988974
1.02022
1.0521
1.0846
1.11774
1.1515
1.18589
1.22091
1.25655
1.29281
1.32968
1.36715
1.40521
1.44386
1.48308
1.52286
1.56317
1.60402
1.64536
1.68719
1.72949
1.77222
1.81537
1.8589
1.90279
1.94701
1.99152
2.03629
2.08129
2.12648
2.17182
2.21726
2.26278
2.30833
2.35386
2.39934
2.4447
2.48991
2.53491
2.57965
2.62408
2.66814
2.71177
2.75493
2.79754
2.83956
2.88091
2.92153
2.96136
3.00033
3.03837
3.0754
3.11136
3.14618
3.17978
3.21209
3.24303
3.27253
3.30052
3.32692
3.35167
3.3747
3.39593
3.41532
3.4328
3.44832
3.46184
3.47332
3.48273
3.49006
3.49529
3.49821
3.49913
3.49802
3.49482
3.48958
3.48233
3.47313
3.46205
3.44916
3.43454
3.41828
3.40046
3.38119
3.36058
3.33872
3.31574
3.29176
3.26692
3.24134
3.21518
3.18857
3.16166
3.1346
3.10752
3.08054
3.05381
3.02745
3.00157
2.97627
2.95168
2.92788
2.90496
2.883
2.86206
2.8422
2.82347
2.80587
2.78943
2.77414
2.75996
2.74684
2.7347
2.72344
2.71293
2.70306
2.69374
2.68484
2.67626
2.66798
2.66008
2.65288
2.64531
2.63558
0.0331718
0.0672336
0.0854837
0.0983266
0.108787
0.11799
0.126506
0.134678
0.142736
0.15084
0.159104
0.167612
0.176419
0.185565
0.195079
0.204981
0.21529
0.22602
0.237188
0.248809
0.260897
0.273464
0.286523
0.300082
0.314149
0.328731
0.343833
0.359457
0.375608
0.392287
0.409496
0.427237
0.445512
0.464323
0.483672
0.503561
0.523994
0.544975
0.566508
0.5886
0.611255
0.634482
0.658288
0.682681
0.707668
0.73326
0.759465
0.786291
0.813749
0.841846
0.870591
0.899994
0.930063
0.960804
0.992225
1.02433
1.05713
1.09063
1.12484
1.15974
1.19536
1.23168
1.26872
1.30646
1.3449
1.38405
1.42389
1.46441
1.50562
1.54749
1.59001
1.63318
1.67696
1.72135
1.76632
1.81185
1.85791
1.90448
1.95153
1.99903
2.04695
2.09524
2.14389
2.19284
2.24206
2.2915
2.34113
2.39089
2.44075
2.49065
2.54055
2.5904
2.64013
2.6897
2.73905
2.78812
2.83685
2.88518
2.93305
2.9804
3.02716
3.07328
3.11867
3.16329
3.20705
3.24988
3.29171
3.33247
3.37208
3.41046
3.44754
3.48324
3.51748
3.55018
3.58126
3.61065
3.63827
3.66405
3.68791
3.70978
3.72961
3.74733
3.76288
3.77623
3.78734
3.79619
3.80275
3.8069
3.8087
3.80832
3.80565
3.80072
3.79356
3.78424
3.77281
3.75935
3.74395
3.72668
3.70765
3.68695
3.66469
3.64099
3.61597
3.58976
3.56249
3.5343
3.50535
3.47578
3.44574
3.41538
3.38485
3.35428
3.32381
3.29357
3.26368
3.23426
3.20542
3.17726
3.14987
3.12335
3.09775
3.07315
3.04959
3.02711
3.00574
2.98548
2.96631
2.94821
2.93113
2.91498
2.8997
2.88518
2.87138
2.85823
2.84568
2.83379
2.82268
2.81266
2.80278
2.79168
0.0380284
0.0742769
0.094093
0.108051
0.119409
0.129376
0.138557
0.147317
0.155899
0.164479
0.173182
0.182103
0.191312
0.20086
0.210782
0.221108
0.231857
0.243049
0.254699
0.26682
0.279426
0.292526
0.306132
0.320252
0.334893
0.350063
0.365765
0.382006
0.39879
0.41612
0.434
0.452434
0.471426
0.490981
0.511103
0.531796
0.553068
0.574923
0.59737
0.620416
0.644069
0.66834
0.693236
0.718769
0.744949
0.771787
0.799294
0.827481
0.856359
0.885939
0.916233
0.947251
0.979004
1.0115
1.04475
1.07877
1.11356
1.14912
1.18547
1.22261
1.26055
1.29928
1.33881
1.37914
1.42026
1.46218
1.50488
1.54837
1.59262
1.63763
1.68339
1.72987
1.77707
1.82495
1.8735
1.92269
1.9725
2.02289
2.07382
2.12528
2.17721
2.22959
2.28236
2.33549
2.38894
2.44264
2.49656
2.55064
2.60484
2.6591
2.71335
2.76756
2.82164
2.87555
2.92922
2.98258
3.03557
3.08813
3.14019
3.19168
3.24254
3.29269
3.34207
3.39061
3.43822
3.48484
3.53039
3.5748
3.61797
3.65985
3.70034
3.73936
3.77684
3.81268
3.84681
3.87915
3.90961
3.93812
3.96459
3.98896
4.01115
4.03109
4.04873
4.06401
4.07688
4.08732
4.0953
4.10076
4.1036
4.10407
4.10204
4.09754
4.09059
4.08125
4.06959
4.05567
4.03958
4.0214
4.00122
3.97916
3.95532
3.92981
3.90276
3.87431
3.84458
3.81374
3.78192
3.74929
3.71599
3.68218
3.648
3.61361
3.57915
3.54474
3.51053
3.47662
3.44315
3.41021
3.3779
3.34633
3.31556
3.28568
3.25676
3.22883
3.20195
3.17614
3.15142
3.12778
3.1052
3.08367
3.06313
3.04354
3.0249
3.00719
2.99042
2.97471
2.96019
2.94714
2.93467
2.92187
0.0424746
0.0801121
0.101207
0.116102
0.12823
0.138865
0.148637
0.157926
0.166985
0.175994
0.185089
0.194374
0.203924
0.2138
0.224046
0.234695
0.245773
0.2573
0.269294
0.281767
0.294733
0.308202
0.322185
0.336689
0.351723
0.367294
0.383409
0.400074
0.417295
0.435078
0.453429
0.472354
0.49186
0.511953
0.532641
0.553932
0.575833
0.598355
0.621505
0.645296
0.669738
0.694843
0.720623
0.747091
0.77426
0.802143
0.830754
0.860108
0.890217
0.921096
0.952758
0.985217
1.01849
1.05258
1.08751
1.12328
1.15991
1.19741
1.23578
1.27504
1.31518
1.35622
1.39816
1.44099
1.48471
1.52933
1.57484
1.62123
1.66849
1.7166
1.76556
1.81535
1.86594
1.91731
1.96944
2.02229
2.07584
2.13005
2.18489
2.24031
2.29628
2.35275
2.40967
2.46699
2.52466
2.58264
2.64085
2.69925
2.75778
2.81637
2.87497
2.9335
2.99191
3.05011
3.10805
3.16565
3.22284
3.27956
3.33572
3.39126
3.44612
3.5002
3.55345
3.60578
3.65713
3.7074
3.75654
3.80445
3.85105
3.89627
3.94003
3.98224
4.02281
4.06166
4.09872
4.13388
4.16708
4.19822
4.22722
4.25401
4.27851
4.30064
4.32033
4.33753
4.35218
4.36424
4.37366
4.38043
4.38444
4.38581
4.38452
4.38054
4.37389
4.36463
4.35281
4.33852
4.32183
4.30282
4.28159
4.25823
4.23286
4.20559
4.17655
4.14587
4.11369
4.08015
4.04542
4.00965
3.973
3.93561
3.89765
3.85927
3.82061
3.78181
3.74301
3.70433
3.66591
3.62785
3.59026
3.55325
3.51691
3.48133
3.44659
3.41276
3.37991
3.3481
3.31736
3.28774
3.25925
3.23192
3.20575
3.18076
3.15698
3.13446
3.11327
3.09355
3.07546
3.05923
3.044
3.02903
0.046381
0.0847386
0.106839
0.122499
0.13527
0.146474
0.156761
0.166517
0.176
0.185394
0.194838
0.20444
0.214282
0.224428
0.234928
0.24582
0.257133
0.268891
0.281113
0.293814
0.307008
0.320705
0.334918
0.349655
0.364926
0.38074
0.397105
0.414029
0.43152
0.449586
0.468237
0.48748
0.507326
0.527783
0.548862
0.570574
0.592929
0.61594
0.639619
0.663979
0.689035
0.714802
0.741295
0.768529
0.796522
0.82529
0.854849
0.885216
0.916409
0.948445
0.981339
1.01511
1.04977
1.08534
1.12184
1.15927
1.19765
1.23699
1.27731
1.31861
1.36091
1.4042
1.44849
1.49378
1.54008
1.58738
1.63567
1.68495
1.73521
1.78643
1.8386
1.89169
1.94569
2.00056
2.05628
2.11282
2.17013
2.22819
2.28694
2.34635
2.40636
2.46693
2.528
2.58952
2.65142
2.71364
2.77613
2.83882
2.90164
2.96452
3.0274
3.0902
3.15284
3.21525
3.27736
3.33908
3.40035
3.46108
3.5212
3.58064
3.63932
3.69715
3.75408
3.81001
3.86488
3.91859
3.97109
4.02227
4.07207
4.12041
4.16719
4.21235
4.25579
4.29742
4.33718
4.37496
4.41069
4.44427
4.47563
4.50468
4.53134
4.55553
4.57718
4.59621
4.61257
4.6262
4.63706
4.6451
4.65028
4.65263
4.65211
4.64873
4.64244
4.63332
4.62143
4.60685
4.58964
4.56989
4.54768
4.52311
4.49629
4.46732
4.43634
4.40347
4.36886
4.33266
4.29502
4.25609
4.21603
4.17501
4.13318
4.0907
4.04771
4.00437
3.96081
3.91717
3.87358
3.83016
3.78703
3.74431
3.7021
3.66051
3.61964
3.57959
3.54044
3.50228
3.4652
3.42927
3.39456
3.36113
3.32906
3.29841
3.26927
3.24175
3.21597
3.1921
3.1703
3.15079
3.13272
3.11559
0.0497146
0.088224
0.111073
0.127334
0.14062
0.152291
0.163009
0.173162
0.18301
0.192737
0.202483
0.212356
0.22244
0.232802
0.243494
0.254559
0.266029
0.27793
0.290284
0.303108
0.316417
0.330224
0.344543
0.359384
0.37476
0.390682
0.407158
0.424201
0.441821
0.460028
0.478834
0.498252
0.518292
0.538969
0.560294
0.582283
0.604948
0.628305
0.65237
0.677159
0.702692
0.728985
0.756059
0.783933
0.812627
0.84216
0.872554
0.903829
0.936005
0.969104
1.00314
1.03815
1.07413
1.11112
1.14912
1.18816
1.22825
1.26941
1.31165
1.35498
1.39941
1.44494
1.4916
1.53936
1.58825
1.63824
1.68935
1.74155
1.79484
1.8492
1.90461
1.96104
2.01848
2.07689
2.13624
2.19648
2.25758
2.3195
2.38218
2.44558
2.50963
2.57429
2.63948
2.70516
2.77124
2.83766
2.90436
2.97125
3.03827
3.10533
3.17236
3.23928
3.306
3.37245
3.43855
3.5042
3.56933
3.63385
3.6977
3.76078
3.82301
3.88432
3.94463
4.00386
4.06193
4.11877
4.17429
4.22842
4.28107
4.33218
4.38165
4.42941
4.47537
4.51946
4.56158
4.60166
4.63961
4.67535
4.70878
4.73984
4.76842
4.79446
4.81786
4.83857
4.85649
4.87159
4.88379
4.89306
4.89935
4.90266
4.90294
4.90022
4.89432
4.8854
4.8735
4.85871
4.84107
4.82066
4.79757
4.77189
4.74371
4.71314
4.68031
4.64535
4.60838
4.56957
4.52906
4.487
4.44357
4.39893
4.35322
4.30662
4.25927
4.21132
4.16293
4.11423
4.06536
4.01646
3.96765
3.91906
3.87081
3.82303
3.77584
3.72935
3.6837
3.63899
3.59536
3.55291
3.51177
3.47206
3.43389
3.39741
3.36277
3.33011
3.29962
3.27149
3.24589
3.22303
3.20209
3.18281
0.0524703
0.0906596
0.114024
0.130732
0.14441
0.156444
0.167503
0.177976
0.188121
0.198121
0.208113
0.218203
0.228477
0.239
0.249828
0.261004
0.272562
0.284531
0.296935
0.309794
0.323125
0.336945
0.351268
0.366109
0.381481
0.397399
0.413874
0.430922
0.448555
0.466788
0.485636
0.505113
0.525236
0.546019
0.56748
0.589636
0.612504
0.636104
0.660453
0.685574
0.711488
0.73822
0.765791
0.794226
0.823549
0.853784
0.884956
0.917088
0.950207
0.984335
1.0195
1.05572
1.09302
1.13142
1.17094
1.21161
1.25344
1.29645
1.34065
1.38605
1.43267
1.48052
1.5296
1.5799
1.63145
1.68421
1.7382
1.7934
1.84979
1.90735
1.96607
2.0259
2.08683
2.14882
2.21182
2.2758
2.3407
2.40648
2.47308
2.54043
2.60848
2.67717
2.74641
2.81615
2.8863
2.95679
3.02755
3.09847
3.1695
3.24054
3.3115
3.3823
3.45285
3.52306
3.59285
3.66211
3.73078
3.79875
3.86596
3.9323
3.9977
4.06208
4.12536
4.18746
4.2483
4.30781
4.36591
4.42252
4.47757
4.53098
4.58267
4.63257
4.6806
4.72668
4.77074
4.81268
4.85244
4.88992
4.92506
4.95775
4.98793
5.0155
5.04038
5.06251
5.08179
5.09816
5.11157
5.12195
5.12927
5.13348
5.13453
5.13249
5.12704
5.11835
5.10651
5.09157
5.0736
5.05264
5.02879
5.00211
4.9727
4.94066
4.9061
4.86916
4.82996
4.78865
4.74538
4.70031
4.6536
4.60541
4.5559
4.50523
4.45357
4.40106
4.34786
4.29411
4.23997
4.18557
4.13105
4.07655
4.02222
3.96819
3.91461
3.86163
3.80939
3.75805
3.70777
3.65871
3.61105
3.56496
3.52062
3.47822
3.43798
3.40011
3.36484
3.33238
3.30294
3.27671
3.25292
3.23157
0.0546658
0.092157
0.115821
0.13283
0.146784
0.159077
0.170384
0.181094
0.19146
0.201664
0.211838
0.222088
0.232493
0.243123
0.254029
0.265258
0.276846
0.288822
0.301212
0.314036
0.327314
0.341066
0.355311
0.370065
0.385348
0.401175
0.417563
0.434531
0.452095
0.470273
0.489084
0.508547
0.528681
0.549504
0.571038
0.593303
0.616319
0.640106
0.664689
0.690095
0.716355
0.743496
0.771545
0.800531
0.830483
0.861429
0.893398
0.92642
0.960521
0.995732
1.03208
1.06959
1.10829
1.1482
1.18935
1.23176
1.27544
1.32042
1.36672
1.41433
1.46329
1.51358
1.56523
1.61822
1.67255
1.72823
1.78523
1.84354
1.90314
1.96401
2.02611
2.08942
2.1539
2.2195
2.28619
2.35389
2.42257
2.49217
2.56261
2.63383
2.70576
2.77833
2.85146
2.92507
2.99908
3.07339
3.14793
3.22261
3.29733
3.372
3.44653
3.52083
3.5948
3.66834
3.74137
3.81379
3.88551
3.95643
4.02648
4.09556
4.16359
4.23048
4.29617
4.36056
4.42359
4.48518
4.54526
4.60376
4.6606
4.71572
4.76904
4.8205
4.87001
4.91752
4.96294
5.00621
5.04725
5.08598
5.12233
5.15621
5.18755
5.21626
5.24227
5.26549
5.28584
5.30326
5.31766
5.32899
5.33719
5.34222
5.34403
5.34263
5.33768
5.32925
5.31752
5.30252
5.28431
5.26293
5.23843
5.2109
5.18042
5.14707
5.11097
5.07222
5.03097
4.98733
4.94148
4.89356
4.84373
4.79215
4.73899
4.68441
4.62857
4.57163
4.51374
4.45506
4.39575
4.33594
4.27581
4.21548
4.15514
4.09492
4.03501
3.97557
3.91679
3.85885
3.80196
3.74632
3.69216
3.6397
3.58918
3.54087
3.49504
3.45195
3.41188
3.37509
3.3417
3.31201
3.28535
3.26202
0.0563143
0.0927917
0.116582
0.133769
0.147891
0.160343
0.171797
0.182653
0.19316
0.203493
0.213782
0.224127
0.234607
0.245286
0.256218
0.267447
0.279011
0.290943
0.303272
0.316007
0.329174
0.342799
0.356906
0.371518
0.386655
0.40234
0.418593
0.435437
0.452892
0.470983
0.489731
0.509159
0.52929
0.550148
0.571755
0.594137
0.617316
0.641315
0.666149
0.691874
0.718526
0.746136
0.774738
0.804365
0.83505
0.866826
0.899725
0.933782
0.969028
1.0055
1.04322
1.08222
1.12253
1.16418
1.20719
1.25158
1.29737
1.34458
1.39322
1.4433
1.49484
1.54783
1.60228
1.65818
1.71553
1.77431
1.8345
1.89609
1.95905
2.02334
2.08893
2.15577
2.22383
2.29305
2.36338
2.43475
2.50711
2.58038
2.6545
2.72938
2.80495
2.88113
2.95783
3.03496
3.11244
3.19016
3.26805
3.34599
3.42389
3.50167
3.57921
3.65642
3.73321
3.80946
3.88509
3.96
4.03409
4.10727
4.17945
4.25055
4.32047
4.38915
4.4565
4.52244
4.58691
4.64983
4.71115
4.77079
4.82868
4.88478
4.939
4.9913
5.04159
5.08984
5.13596
5.1799
5.2216
5.26098
5.29797
5.3325
5.36449
5.39388
5.42058
5.44452
5.4656
5.48376
5.4989
5.51097
5.51989
5.52563
5.52815
5.52733
5.52294
5.51479
5.50324
5.48828
5.46995
5.44828
5.42331
5.39511
5.36375
5.3293
5.29186
5.25154
5.20845
5.16273
5.11453
5.06399
5.01128
4.95656
4.89998
4.84171
4.78193
4.72077
4.65842
4.59502
4.53073
4.46573
4.40016
4.33421
4.26803
4.2018
4.13573
4.07
4.00483
3.94045
3.87708
3.81499
3.75446
3.69575
3.63916
3.58494
3.53341
3.48497
3.43999
3.39877
3.36156
3.32871
3.29945
3.2744
0.0574387
0.0926721
0.116416
0.133647
0.147821
0.16033
0.171848
0.182774
0.193348
0.203741
0.214077
0.224453
0.234945
0.245615
0.256516
0.267693
0.279184
0.291025
0.303253
0.315873
0.328917
0.342411
0.356383
0.370859
0.385865
0.401425
0.417565
0.434312
0.451692
0.469731
0.488457
0.507896
0.528079
0.549032
0.570785
0.593366
0.616807
0.641147
0.66638
0.692591
0.719819
0.748103
0.777482
0.807996
0.839685
0.872582
0.906722
0.942142
0.978879
1.01697
1.05645
1.09735
1.13969
1.18349
1.22879
1.27559
1.32392
1.37378
1.42519
1.47814
1.53265
1.58871
1.64631
1.70544
1.76609
1.82823
1.89184
1.95689
2.02333
2.09113
2.16025
2.23062
2.30221
2.37494
2.44875
2.52358
2.59935
2.67599
2.75341
2.83154
2.91029
2.98956
3.06928
3.14934
3.22966
3.31012
3.39064
3.47111
3.55143
3.63151
3.71123
3.79051
3.86924
3.94732
4.02464
4.10112
4.17666
4.25116
4.32455
4.39672
4.46759
4.5371
4.60517
4.67172
4.7367
4.80003
4.86167
4.92155
4.97961
5.03581
5.09009
5.14238
5.19265
5.24085
5.28691
5.33079
5.37244
5.41179
5.44878
5.48335
5.51543
5.54497
5.57189
5.5961
5.61753
5.63609
5.6517
5.66427
5.67373
5.68004
5.68321
5.68294
5.67914
5.67135
5.66006
5.64526
5.62696
5.60517
5.57993
5.55128
5.51928
5.48399
5.44548
5.40386
5.35923
5.31172
5.26147
5.20863
5.15335
5.09578
5.0361
4.97447
4.91104
4.84599
4.77947
4.71165
4.64269
4.57278
4.50208
4.43078
4.35905
4.28709
4.21513
4.14338
4.07209
4.00151
3.93192
3.86352
3.79666
3.7317
3.66904
3.6091
3.55238
3.49914
3.44975
3.40458
3.36393
3.32796
3.29616
3.26952
0.0582085
0.0921385
0.115664
0.132831
0.146971
0.159458
0.170961
0.181865
0.192416
0.202784
0.213092
0.223433
0.233882
0.244498
0.255333
0.266429
0.277824
0.289552
0.301641
0.314111
0.326997
0.340333
0.354151
0.368485
0.383364
0.398823
0.414893
0.431608
0.449001
0.467105
0.485957
0.505598
0.526066
0.547382
0.569574
0.592679
0.616731
0.641748
0.667771
0.694889
0.723152
0.752604
0.783288
0.81524
0.848498
0.883101
0.919087
0.956497
0.995372
1.03576
1.07769
1.12118
1.16626
1.21294
1.26123
1.31114
1.36267
1.41583
1.47061
1.52702
1.58503
1.64463
1.70581
1.76854
1.83279
1.89853
1.96572
2.03431
2.10426
2.17552
2.24803
2.32172
2.39654
2.47242
2.54928
2.62706
2.70567
2.78503
2.86506
2.94566
3.02677
3.10827
3.19008
3.2721
3.35423
3.43638
3.51845
3.60033
3.68193
3.76315
3.84388
3.92402
4.00349
4.08217
4.15997
4.2368
4.31257
4.38718
4.46055
4.53259
4.60323
4.6724
4.74003
4.80605
4.87041
4.93306
4.99394
5.05301
5.11022
5.16552
5.21888
5.27025
5.31959
5.36686
5.41202
5.45504
5.49588
5.53448
5.57079
5.60475
5.63632
5.66545
5.69209
5.71614
5.73752
5.75615
5.77192
5.78476
5.79458
5.80134
5.8051
5.80538
5.80224
5.79491
5.78401
5.76953
5.75145
5.72976
5.70449
5.67567
5.64332
5.6075
5.56826
5.52568
5.47986
5.43092
5.379
5.32423
5.26676
5.20675
5.14435
5.07974
5.01306
4.9445
4.8742
4.80235
4.72912
4.65468
4.57922
4.50294
4.42604
4.34872
4.27115
4.19362
4.1164
4.03981
3.96416
3.88992
3.81742
3.74696
3.67898
3.61405
3.55231
3.49435
3.44063
3.39157
3.34748
3.30866
3.27457
3.24668
0.0585806
0.0909365
0.114056
0.131034
0.145037
0.157408
0.16881
0.17962
0.190085
0.20037
0.210595
0.220851
0.231208
0.241725
0.252453
0.263435
0.27471
0.286317
0.29829
0.310669
0.323493
0.336798
0.35062
0.364994
0.37996
0.395561
0.41184
0.428852
0.446622
0.465188
0.484595
0.504886
0.526098
0.548198
0.571281
0.595413
0.620654
0.647071
0.674712
0.703629
0.733874
0.765493
0.798528
0.833018
0.868999
0.906506
0.945569
0.986215
1.02847
1.07234
1.11788
1.16512
1.21407
1.26473
1.31707
1.37107
1.42672
1.48401
1.54292
1.60342