/*--------------------------------*- C++ -*----------------------------------*\
| =========                 |                                                 |
| \\      /  F ield         | OpenFOAM: The Open Source CFD Toolbox           |
|  \\    /   O peration     | Version:  4.1                                   |
|   \\  /    A nd           | Web:      www.OpenFOAM.org                      |
|    \\/     M anipulation  |                                                 |
\*---------------------------------------------------------------------------*/
FoamFile
{
    version     2.0;
    format      ascii;
    class       volScalarField;
    location    "200";
    object      nut;
}
// * * * * * * * * * * * * * * * * * * * * * * * * * * * * * * * * * * * * * //

dimensions      [0 2 -1 0 0 0 0];

internalField   nonuniform List<scalar> 
12225
(
2.68176e-05
3.54259e-05
4.03683e-05
4.29509e-05
4.41503e-05
4.45572e-05
4.4546e-05
4.43066e-05
4.40221e-05
4.36539e-05
4.32974e-05
4.29579e-05
4.26545e-05
4.23695e-05
4.21338e-05
4.18975e-05
4.1738e-05
4.15172e-05
0.000212632
8.33006e-05
5.47249e-05
4.31729e-05
3.76064e-05
3.47169e-05
3.32713e-05
3.25593e-05
3.23584e-05
3.24533e-05
3.27934e-05
3.32592e-05
3.38757e-05
3.45307e-05
3.52956e-05
3.60451e-05
3.68673e-05
3.76986e-05
0.000672648
0.00031089
0.000195694
0.000143034
0.000113839
9.49274e-05
8.23686e-05
7.3583e-05
6.70102e-05
6.21374e-05
5.81769e-05
5.52201e-05
5.26165e-05
5.07688e-05
4.89489e-05
4.78537e-05
4.64277e-05
4.56105e-05
0.000875613
0.000622534
0.000467557
0.000363439
0.000300139
0.000255944
0.000225161
0.000202072
0.000184907
0.000171064
0.000160341
0.000151185
0.000143901
0.00013738
0.000132138
0.000127301
0.000123252
0.000119032
0.0008811
0.000787924
0.000712948
0.00061771
0.000543903
0.000484068
0.000438394
0.000401106
0.000372392
0.000347823
0.000328787
0.000311531
0.000298382
0.000285565
0.000276229
0.000266229
0.000259548
0.000251294
0.000864177
0.000837727
0.00081874
0.000774966
0.000728393
0.000681685
0.000640652
0.000603037
0.00057179
0.000543072
0.000519904
0.000497815
0.000480668
0.0004632
0.000450562
0.000436254
0.000427071
0.000414553
0.000854472
0.000852062
0.000844944
0.000833279
0.000817238
0.000794242
0.000770903
0.000746205
0.000723516
0.00070068
0.00068101
0.000661097
0.00064488
0.000627728
0.000614792
0.000599839
0.000589933
0.000576375
0.000852234
0.000852216
0.000850458
0.000847136
0.000840843
0.000831975
0.000821454
0.000808213
0.000794784
0.000780261
0.000766953
0.000752689
0.000740459
0.000727134
0.000716497
0.000704227
0.000695413
0.000683802
0.000851801
0.000851652
0.000851177
0.000850281
0.000848411
0.000845176
0.000840909
0.000835272
0.000828311
0.000820924
0.00081323
0.000804612
0.000796735
0.000787901
0.000780363
0.000771804
0.000764798
0.00075644
0.00085177
0.000851406
0.000851079
0.00085069
0.000850163
0.000849194
0.000847828
0.000845877
0.00084338
0.000840176
0.000836846
0.000832727
0.000828788
0.000824116
0.000819911
0.000814983
0.000810841
0.000805515
0.000851783
0.000851364
0.000851007
0.000850643
0.000850326
0.000849914
0.000849462
0.000848798
0.000848053
0.000846948
0.000845809
0.000844255
0.000842747
0.000840788
0.000839026
0.000836723
0.00083488
0.000832248
0.000851785
0.000851365
0.00085099
0.000850615
0.000850291
0.000849949
0.000849652
0.000849296
0.000848975
0.000848545
0.000848141
0.000847589
0.000847074
0.000846373
0.00084575
0.000844897
0.000844191
0.000843197
0.000851783
0.000851365
0.000850982
0.000850608
0.000850268
0.000849932
0.000849631
0.000849324
0.00084905
0.000848759
0.000848496
0.000848203
0.000847937
0.000847628
0.000847346
0.000847011
0.000846709
0.000846344
0.000851781
0.000851365
0.000850975
0.000850602
0.000850254
0.000849919
0.000849607
0.000849306
0.000849024
0.000848751
0.000848496
0.000848245
0.000848009
0.000847776
0.000847556
0.000847334
0.000847124
0.000846912
0.00085178
0.000851364
0.00085097
0.000850597
0.000850244
0.000849908
0.000849591
0.000849289
0.000849002
0.000848728
0.000848468
0.000848219
0.000847982
0.000847755
0.000847538
0.000847329
0.00084713
0.000846938
0.000851779
0.000851363
0.000850967
0.000850593
0.000850237
0.0008499
0.00084958
0.000849275
0.000848986
0.00084871
0.000848447
0.000848195
0.000847955
0.000847726
0.000847507
0.000847297
0.000847096
0.000846903
0.000851779
0.000851362
0.000850966
0.00085059
0.000850233
0.000849894
0.000849573
0.000849266
0.000848975
0.000848697
0.000848432
0.000848179
0.000847937
0.000847705
0.000847484
0.000847272
0.000847069
0.000846875
0.000851779
0.000851362
0.000850965
0.000850589
0.000850232
0.000849892
0.000849569
0.000849262
0.00084897
0.000848691
0.000848425
0.00084817
0.000847927
0.000847695
0.000847472
0.00084726
0.000847056
0.00084686
0.000851779
0.000851362
0.000850966
0.00085059
0.000850232
0.000849893
0.00084957
0.000849263
0.00084897
0.000848691
0.000848425
0.00084817
0.000847926
0.000847694
0.000847471
0.000847257
0.000847053
0.000846857
0.000851779
0.000851363
0.000850967
0.000850592
0.000850235
0.000849896
0.000849573
0.000849267
0.000848974
0.000848696
0.000848428
0.000848174
0.000847928
0.000847694
0.000847468
0.000847252
0.000847041
0.00084684
0.000851779
0.000851364
0.000850968
0.000850595
0.000850238
0.000849902
0.000849578
0.000849273
0.000848975
0.000848693
0.000848413
0.000848146
0.000847875
0.000847615
0.000847347
0.00084709
0.00084682
0.000846563
0.000851778
0.000851367
0.000850969
0.000850604
0.000850243
0.000849907
0.000849561
0.000849225
0.000848861
0.000848492
0.000848074
0.000847646
0.000847153
0.000846655
0.000846076
0.000845511
0.000844849
0.000844229
0.000851779
0.000851383
0.000850973
0.000850623
0.00085019
0.000849725
0.000849095
0.000848361
0.000847396
0.000846289
0.000844934
0.000843453
0.000841735
0.000839945
0.000837917
0.000835943
0.000833674
0.000831612
0.000851859
0.000851472
0.000850928
0.000850332
0.000848934
0.000847063
0.000844299
0.000840954
0.000836727
0.000832089
0.000826798
0.000821336
0.00081545
0.000809499
0.000803501
0.000797606
0.000791425
0.000785946
0.000852723
0.000851367
0.000849164
0.000844914
0.000836675
0.000827525
0.000815446
0.000802431
0.000788031
0.000773947
0.000759305
0.000745611
0.000731717
0.000719125
0.000706324
0.000695144
0.000683497
0.000673815
0.000857405
0.000843081
0.000830282
0.000805602
0.000773705
0.000741356
0.000708132
0.000677893
0.00064853
0.000622942
0.000598379
0.00057746
0.000557212
0.00054028
0.000523542
0.000509905
0.000495892
0.000484927
0.000862011
0.000792012
0.000724542
0.000644839
0.000578109
0.000523921
0.000477042
0.000439732
0.00040699
0.000381071
0.000357504
0.000339007
0.000321483
0.00030794
0.0002945
0.000284327
0.000273692
0.000265913
0.000782217
0.000562152
0.000424454
0.00033836
0.000281908
0.000241063
0.00020998
0.000187112
0.000168521
0.000154552
0.000142473
0.000133377
0.000125016
0.000118799
0.000112718
0.00010831
0.000103706
0.000100473
0.000343384
0.000180406
0.000124381
9.6597e-05
7.95268e-05
6.85217e-05
6.11084e-05
5.61034e-05
5.25363e-05
5.00691e-05
4.82443e-05
4.70089e-05
4.60725e-05
4.55026e-05
4.50587e-05
4.48714e-05
4.47121e-05
4.47627e-05
3.41129e-05
4.01585e-05
4.47621e-05
4.78932e-05
5.04606e-05
5.25069e-05
5.40895e-05
5.52767e-05
5.61323e-05
5.67235e-05
5.71008e-05
5.73181e-05
5.74057e-05
5.74016e-05
5.73095e-05
5.72185e-05
5.70571e-05
5.68749e-05
3.89611e-06
1.06832e-05
1.26733e-05
1.41727e-05
1.52769e-05
1.609e-05
1.67307e-05
1.72951e-05
1.77914e-05
1.82497e-05
1.86965e-05
1.91559e-05
1.96545e-05
2.02402e-05
2.09286e-05
2.16789e-05
2.24605e-05
2.32663e-05
2.40952e-05
2.49514e-05
2.58354e-05
2.67498e-05
2.76924e-05
2.86633e-05
2.96594e-05
3.06808e-05
3.17292e-05
3.27907e-05
3.38599e-05
3.49347e-05
3.60117e-05
3.70905e-05
3.81688e-05
3.92469e-05
4.03226e-05
4.13969e-05
4.2468e-05
4.35385e-05
4.46104e-05
4.56892e-05
4.67793e-05
4.79072e-05
4.9016e-05
5.01293e-05
5.12375e-05
5.23457e-05
5.34516e-05
5.45573e-05
5.56613e-05
5.67654e-05
5.78682e-05
5.89714e-05
6.00734e-05
6.11759e-05
6.22771e-05
6.33788e-05
6.44792e-05
6.55797e-05
6.66787e-05
6.77774e-05
6.8874e-05
6.99699e-05
7.10631e-05
7.2155e-05
7.32434e-05
7.43299e-05
7.54121e-05
7.64914e-05
7.75657e-05
7.86362e-05
7.97007e-05
8.07604e-05
8.18131e-05
8.28599e-05
8.38986e-05
8.49303e-05
8.59527e-05
8.69672e-05
8.79711e-05
8.89659e-05
8.9949e-05
9.09217e-05
9.18814e-05
9.28295e-05
9.37632e-05
9.46836e-05
9.55883e-05
9.6478e-05
9.73505e-05
9.8206e-05
9.90428e-05
9.98594e-05
0.000100655
0.000101427
0.000102174
0.000102895
0.00010359
0.000104259
0.00010492
0.00010555
0.000106159
0.000106743
0.000107303
0.000107837
0.000108345
0.000108826
0.00010928
0.000109706
0.000110102
0.000110468
0.000110804
0.000111109
0.000111381
0.000111621
0.000111827
0.000111999
0.000112136
0.000112238
0.000112304
0.000112332
0.000112323
0.000112269
0.000112187
0.000112093
0.000111932
0.000111725
0.000111481
0.000111222
0.000110923
0.000110579
0.0001102
0.000109786
0.000109337
0.000108854
0.00010834
0.000107794
0.000107218
0.000106612
0.000105977
0.000105319
0.000104636
0.000103932
0.000103207
0.000102463
0.000101704
0.000100932
0.000100148
9.93557e-05
9.85626e-05
9.77724e-05
9.69839e-05
9.61977e-05
9.54247e-05
9.46548e-05
9.38845e-05
9.31242e-05
9.23899e-05
9.16762e-05
9.10102e-05
9.03826e-05
8.97533e-05
8.91617e-05
8.85754e-05
8.80298e-05
8.75397e-05
8.70863e-05
8.66704e-05
8.62989e-05
8.59687e-05
8.56938e-05
8.55032e-05
8.56957e-05
8.57194e-05
8.57201e-05
8.57772e-05
8.58895e-05
8.6053e-05
8.61601e-05
8.60969e-05
8.50552e-05
6.14183e-06
2.98208e-05
6.35315e-05
8.95298e-05
0.000106889
0.000117828
0.000124238
0.000127926
0.000130579
0.000133009
0.000135499
0.000138051
0.000140543
0.000142845
0.000144972
0.000147039
0.000149126
0.00015129
0.000153586
0.000156067
0.000158781
0.000161767
0.000165053
0.000168655
0.000172578
0.000176823
0.000181394
0.000186303
0.000191521
0.000196995
0.000202701
0.000208626
0.000214787
0.000221189
0.000227813
0.000234643
0.000241648
0.000248738
0.000255889
0.000263085
0.000270323
0.000277623
0.000284989
0.000292419
0.000299916
0.000307485
0.000315126
0.000322842
0.000330634
0.000338507
0.00034646
0.000354498
0.000362622
0.000370835
0.000379141
0.00038754
0.000396036
0.000404631
0.000413326
0.000422122
0.000431022
0.000440024
0.000449131
0.000458342
0.000467657
0.000477077
0.000486599
0.000496225
0.000505952
0.000515779
0.000525704
0.000535726
0.000545842
0.000556049
0.000566345
0.000576726
0.00058719
0.000597732
0.00060835
0.00061904
0.000629798
0.00064062
0.000651503
0.000662443
0.000673436
0.000684478
0.000695564
0.000706692
0.000717858
0.000729058
0.000740289
0.000751538
0.000762786
0.000774004
0.000785139
0.000796096
0.000806719
0.00081678
0.000826239
0.000835663
0.000844968
0.000854161
0.000863232
0.000872169
0.000880962
0.000889598
0.000898064
0.000906348
0.000914435
0.000922311
0.000929962
0.000937372
0.000944527
0.000951411
0.000958009
0.000964305
0.000970283
0.000975928
0.000981224
0.000986157
0.000990713
0.000994896
0.000998762
0.00100232
0.00100545
0.00100783
0.00100965
0.00101148
0.00101298
0.00101388
0.00101437
0.00101443
0.00101407
0.00101331
0.00101215
0.0010106
0.00100869
0.00100641
0.00100379
0.00100085
0.000997594
0.000994042
0.000990214
0.000986129
0.000981813
0.000977283
0.000972566
0.000967695
0.000962715
0.00095766
0.000952562
0.00094747
0.000942424
0.000937392
0.000932418
0.000927533
0.000922773
0.00091817
0.000913853
0.00090982
0.000906081
0.000902689
0.000899424
0.000896395
0.000893803
0.000891672
0.000889951
0.000888566
0.000887601
0.00088699
0.000886513
0.0008852
0.000882566
0.00087961
0.000876619
0.0008733
0.00086994
0.000865524
0.000858182
0.00083671
7.65491e-06
4.73476e-05
0.000101175
0.000145908
0.00017944
0.000203622
0.000220712
0.000232766
0.000241561
0.000248412
0.000254185
0.000259391
0.000264312
0.000269115
0.000273929
0.000278873
0.000284039
0.000289503
0.000295331
0.000301582
0.000308308
0.000315549
0.00032333
0.000331662
0.000340537
0.000349929
0.000359782
0.000370243
0.00038137
0.000393264
0.000405615
0.000418338
0.0004314
0.000444768
0.000458405
0.000472275
0.000486343
0.000500578
0.000514969
0.000529508
0.000544194
0.00055903
0.000574014
0.000589134
0.000604376
0.000619765
0.000635304
0.000650998
0.000666849
0.000682862
0.000699039
0.000715385
0.000731903
0.000748596
0.000765469
0.000782525
0.000799766
0.000817195
0.000834814
0.000852622
0.00087062
0.000888809
0.000907186
0.00092575
0.000944501
0.000963434
0.000982548
0.00100184
0.0010213
0.00104093
0.00106073
0.00108068
0.00110078
0.00112103
0.00114142
0.00116193
0.00118257
0.00120332
0.00122418
0.00124513
0.00126618
0.0012873
0.00130849
0.00132975
0.00135105
0.0013724
0.00139377
0.00141515
0.00143654
0.00145792
0.00147926
0.00150054
0.00152171
0.00154273
0.00156353
0.00158401
0.0016041
0.0016237
0.00164294
0.001662
0.00168083
0.00169943
0.00171776
0.00173582
0.00175356
0.00177098
0.00178805
0.00180473
0.00182101
0.00183685
0.00185223
0.00186712
0.00188148
0.00189529
0.00190852
0.00192114
0.00193311
0.00194441
0.001955
0.00196487
0.001974
0.00198237
0.00198999
0.00199683
0.0020031
0.00200829
0.00201199
0.00201531
0.00201814
0.00201991
0.00202079
0.0020208
0.00201997
0.0020183
0.00201581
0.00201254
0.00200849
0.0020037
0.00199821
0.00199204
0.00198522
0.00197779
0.00196979
0.00196126
0.00195225
0.00194281
0.00193299
0.00192286
0.00191248
0.00190193
0.00189127
0.00188059
0.00186994
0.00185934
0.00184887
0.00183858
0.00182854
0.00181881
0.00180951
0.0018007
0.00179243
0.00178473
0.00177748
0.00177075
0.0017647
0.00175937
0.00175468
0.0017506
0.00174734
0.00174462
0.00174213
0.00173845
0.00173382
0.00172891
0.00172393
0.00171845
0.00171225
0.00170412
0.00169094
0.00165532
8.67411e-06
6.38279e-05
0.000133515
0.000191423
0.000236239
0.000269695
0.000294382
0.000312647
0.000326459
0.000337372
0.000346545
0.000354787
0.000362641
0.000370458
0.000378471
0.000386834
0.000395655
0.000405015
0.000414975
0.000425585
0.000436885
0.000448903
0.000461657
0.000475158
0.000489411
0.000504426
0.00052023
0.000536657
0.000553584
0.000570842
0.00058852
0.000606619
0.000625108
0.000643949
0.000663104
0.000682533
0.000702195
0.000722067
0.000742172
0.000762511
0.000783088
0.000803915
0.000825013
0.000846432
0.000868052
0.000889881
0.000911924
0.000934183
0.000956663
0.000979369
0.0010023
0.00102547
0.00104888
0.00107252
0.00109641
0.00112055
0.00114494
0.00116958
0.00119448
0.00121963
0.00124504
0.0012707
0.00129661
0.00132276
0.00134916
0.0013758
0.00140266
0.00142975
0.00145706
0.00148458
0.0015123
0.00154022
0.00156831
0.00159658
0.00162501
0.00165359
0.00168231
0.00171115
0.00174011
0.00176916
0.0017983
0.00182752
0.00185678
0.00188609
0.00191542
0.00194476
0.00197409
0.00200338
0.00203262
0.00206178
0.00209084
0.00211974
0.00214846
0.00217694
0.00220513
0.00223296
0.00226038
0.00228739
0.00231407
0.00234046
0.00236654
0.00239228
0.00241765
0.00244263
0.00246719
0.00249129
0.0025149
0.002538
0.00256053
0.00258248
0.00260379
0.00262444
0.00264438
0.00266358
0.00268199
0.00269957
0.00271629
0.0027321
0.00274697
0.00276087
0.00277375
0.0027856
0.0027964
0.0028061
0.00281492
0.00282276
0.00282858
0.00283337
0.00283753
0.00284035
0.00284193
0.00284229
0.00284147
0.00283948
0.00283633
0.00283206
0.0028267
0.00282028
0.00281284
0.00280442
0.00279508
0.00278484
0.00277378
0.00276195
0.00274941
0.00273625
0.00272253
0.00270835
0.00269379
0.00267895
0.00266391
0.00264878
0.00263363
0.00261854
0.0026036
0.00258889
0.00257451
0.00256054
0.00254709
0.00253424
0.00252207
0.00251062
0.00249988
0.00248991
0.00248079
0.00247259
0.00246522
0.00245873
0.00245308
0.00244814
0.00244356
0.00243825
0.00243287
0.00242731
0.00242139
0.00241564
0.00240928
0.00239981
0.00238462
0.00234809
9.39801e-06
7.79615e-05
0.000161449
0.000230524
0.000284893
0.000326412
0.000357885
0.000381884
0.000400552
0.000415624
0.000428443
0.000440007
0.000451024
0.00046198
0.000473196
0.000484883
0.000497173
0.000510156
0.000523889
0.00053841
0.000553741
0.000569891
0.00058686
0.000604635
0.000623192
0.000642499
0.000662504
0.000683127
0.000704294
0.000725948
0.000748075
0.000770653
0.000793652
0.000817043
0.000840799
0.000864901
0.000889342
0.000914112
0.000939171
0.000964504
0.000990101
0.00101596
0.00104205
0.00106835
0.00109488
0.00112168
0.00114874
0.00117607
0.00120368
0.00123157
0.00125974
0.00128819
0.00131693
0.00134596
0.00137526
0.00140486
0.00143476
0.00146496
0.00149546
0.00152625
0.00155735
0.00158873
0.0016204
0.00165235
0.00168458
0.00171707
0.00174982
0.00178281
0.00181605
0.00184951
0.00188319
0.00191707
0.00195114
0.00198539
0.00201979
0.00205434
0.00208902
0.00212381
0.0021587
0.00219367
0.00222871
0.00226378
0.00229888
0.00233398
0.00236907
0.00240412
0.00243911
0.00247401
0.0025088
0.00254345
0.00257793
0.00261221
0.00264625
0.00268001
0.00271345
0.00274654
0.00277928
0.00281166
0.00284368
0.00287535
0.00290664
0.00293753
0.00296798
0.00299797
0.00302746
0.00305642
0.00308482
0.00311261
0.00313975
0.00316621
0.00319195
0.00321692
0.00324107
0.00326437
0.00328677
0.00330822
0.00332868
0.00334809
0.00336642
0.00338362
0.00339965
0.00341448
0.00342806
0.00344035
0.00345147
0.00346164
0.00346983
0.0034763
0.00348197
0.00348614
0.00348884
0.00349008
0.00348988
0.00348824
0.0034852
0.00348078
0.00347501
0.00346794
0.00345961
0.00345006
0.00343933
0.0034275
0.00341462
0.00340076
0.00338601
0.00337046
0.00335418
0.0033373
0.00331992
0.00330212
0.00328404
0.00326576
0.00324741
0.00322907
0.00321087
0.0031929
0.00317527
0.0031581
0.00314149
0.00312554
0.00311034
0.00309596
0.00308245
0.00306987
0.0030583
0.00304777
0.00303826
0.00302979
0.0030223
0.00301568
0.00300967
0.00300351
0.00299769
0.00299169
0.00298577
0.00297997
0.00297354
0.00296472
0.00294985
0.00291802
9.94301e-06
8.99804e-05
0.000185118
0.000264186
0.000327097
0.000376172
0.000414183
0.000443842
0.000467423
0.000486786
0.000503408
0.00051842
0.000532655
0.000546705
0.000560972
0.000575723
0.000591128
0.000607292
0.000624273
0.000642103
0.000660794
0.000680341
0.000700726
0.000721924
0.000743897
0.000766602
0.000789986
0.000813995
0.000838576
0.000863689
0.000889302
0.000915386
0.000941911
0.000968851
0.000996181
0.00102388
0.00105194
0.00108032
0.00110903
0.00113803
0.00116733
0.00119691
0.00122677
0.0012569
0.00128731
0.00131802
0.00134902
0.00138032
0.00141193
0.00144385
0.00147609
0.00150863
0.0015415
0.00157469
0.00160822
0.00164207
0.00167624
0.00171072
0.00174551
0.00178061
0.00181602
0.00185172
0.00188771
0.00192398
0.00196052
0.00199733
0.00203439
0.0020717
0.00210923
0.00214698
0.00218493
0.00222307
0.00226138
0.00229985
0.00233847
0.0023772
0.00241604
0.00245497
0.00249397
0.00253302
0.0025721
0.00261119
0.00265028
0.00268934
0.00272835
0.00276728
0.00280612
0.00284483
0.0028834
0.0029218
0.00296
0.00299796
0.00303568
0.0030731
0.00311021
0.003147
0.00318344
0.00321953
0.00325525
0.00329058
0.0033255
0.00335999
0.00339402
0.00342754
0.00346055
0.00349298
0.00352482
0.00355603
0.00358655
0.00361636
0.00364541
0.00367366
0.00370106
0.00372756
0.00375311
0.00377766
0.00380117
0.00382358
0.00384484
0.0038649
0.00388372
0.00390124
0.00391743
0.00393224
0.00394564
0.00395801
0.00396867
0.00397732
0.00398467
0.00399058
0.00399485
0.00399748
0.00399847
0.00399784
0.00399561
0.0039918
0.00398645
0.00397959
0.00397126
0.00396151
0.00395039
0.00393797
0.00392431
0.00390948
0.00389359
0.00387672
0.00385897
0.00384047
0.00382131
0.00380162
0.00378151
0.0037611
0.00374052
0.00371987
0.00369929
0.0036789
0.00365882
0.00363917
0.00362007
0.00360163
0.00358397
0.00356716
0.0035513
0.00353645
0.00352269
0.00351007
0.00349859
0.00348827
0.00347908
0.00347093
0.00346365
0.00345685
0.00345058
0.00344458
0.00343892
0.00343353
0.00342792
0.0034207
0.00340864
0.0033831
1.06164e-05
9.757e-05
0.000202853
0.000291573
0.000362808
0.00041937
0.000463926
0.000499313
0.000527918
0.000551703
0.000572245
0.000590777
0.000608227
0.000625277
0.000642406
0.000659937
0.000678082
0.000696969
0.000716672
0.000737226
0.00075864
0.000780905
0.000803998
0.000827888
0.000852537
0.0008779
0.000903932
0.000930587
0.000957823
0.000985601
0.00101389
0.00104266
0.00107187
0.00110152
0.00113156
0.00116198
0.00119277
0.00122391
0.00125537
0.00128715
0.00131925
0.00135165
0.00138435
0.00141735
0.00145066
0.00148428
0.00151821
0.00155246
0.00158703
0.00162192
0.00165713
0.00169267
0.00172854
0.00176474
0.00180126
0.00183811
0.00187528
0.00191276
0.00195055
0.00198865
0.00202704
0.00206573
0.0021047
0.00214394
0.00218345
0.00222321
0.00226321
0.00230344
0.00234389
0.00238454
0.00242538
0.00246639
0.00250756
0.00254887
0.0025903
0.00263183
0.00267346
0.00271515
0.00275689
0.00279866
0.00284044
0.00288221
0.00292396
0.00296565
0.00300727
0.0030488
0.00309021
0.00313149
0.0031726
0.00321352
0.00325424
0.00329473
0.00333495
0.00337489
0.00341454
0.00345386
0.00349285
0.00353148
0.00356975
0.00360763
0.00364509
0.00368212
0.00371869
0.00375477
0.00379032
0.00382531
0.00385972
0.00389349
0.00392661
0.00395901
0.00399067
0.00402154
0.00405157
0.00408071
0.00410892
0.00413613
0.0041623
0.00418738
0.0042113
0.00423401
0.00425546
0.00427559
0.00429435
0.00431169
0.00432755
0.00434224
0.00435537
0.00436654
0.00437595
0.00438396
0.00439023
0.00439472
0.00439743
0.00439835
0.00439752
0.00439495
0.00439066
0.0043847
0.00437709
0.00436788
0.00435712
0.00434487
0.0043312
0.00431619
0.00429994
0.00428253
0.00426409
0.00424472
0.00422454
0.00420367
0.00418224
0.00416037
0.00413819
0.00411584
0.00409344
0.00407114
0.00404906
0.00402735
0.00400612
0.00398552
0.00396565
0.00394662
0.00392855
0.00391152
0.00389562
0.0038809
0.00386742
0.00385518
0.0038442
0.00383442
0.00382575
0.00381798
0.00381105
0.00380482
0.00379927
0.00379436
0.00378972
0.00378431
0.00377554
0.00375739
1.13745e-05
0.00010164
0.000215248
0.000312964
0.000392215
0.000456142
0.00050721
0.000548354
0.000582047
0.00061033
0.000634855
0.000656932
0.000677568
0.000697516
0.000717323
0.000737369
0.000757911
0.00077911
0.000801063
0.000823818
0.000847392
0.000871781
0.000896965
0.000922916
0.000949598
0.000976973
0.001005
0.00103364
0.00106285
0.0010926
0.00112285
0.00115358
0.00118476
0.00121637
0.00124838
0.00128077
0.00131353
0.00134664
0.00138009
0.00141385
0.00144794
0.00148234
0.00151704
0.00155206
0.00158738
0.00162302
0.00165897
0.00169525
0.00173183
0.00176874
0.00180597
0.00184351
0.00188138
0.00191957
0.00195807
0.00199688
0.002036
0.00207542
0.00211514
0.00215516
0.00219545
0.00223603
0.00227687
0.00231797
0.00235932
0.00240091
0.00244273
0.00248477
0.002527
0.00256943
0.00261202
0.00265478
0.00269768
0.00274071
0.00278385
0.00282708
0.00287039
0.00291376
0.00295717
0.0030006
0.00304403
0.00308745
0.00313083
0.00317416
0.00321741
0.00326056
0.0033036
0.0033465
0.00338924
0.00343181
0.00347417
0.00351631
0.00355821
0.00359985
0.0036412
0.00368226
0.003723
0.00376341
0.00380346
0.00384315
0.00388245
0.00392134
0.00395978
0.00399777
0.00403525
0.00407222
0.00410864
0.00414446
0.00417967
0.00421421
0.00424805
0.00428115
0.00431346
0.00434493
0.00437551
0.00440515
0.00443379
0.00446138
0.00448785
0.00451314
0.0045372
0.00455996
0.00458137
0.00460135
0.00461985
0.00463707
0.00465278
0.00466668
0.0046786
0.00468907
0.00469772
0.0047045
0.00470937
0.00471233
0.00471338
0.00471256
0.00470988
0.00470536
0.00469903
0.00469093
0.0046811
0.00466961
0.00465651
0.0046419
0.00462585
0.00460848
0.00458988
0.00457017
0.00454947
0.00452791
0.0045056
0.00448269
0.0044593
0.00443559
0.00441169
0.00438774
0.0043639
0.0043403
0.00431709
0.0042944
0.00427238
0.00425114
0.00423081
0.0042115
0.00419332
0.00417634
0.00416065
0.00414628
0.00413328
0.00412163
0.00411132
0.00410223
0.00409433
0.00408755
0.00408187
0.00407728
0.00407354
0.00406988
0.00406429
0.0040529
1.20299e-05
0.000103904
0.000223839
0.000329301
0.000415873
0.000486743
0.000544103
0.000590893
0.000629626
0.000662388
0.000690885
0.000716478
0.000740232
0.000762962
0.00078527
0.000807592
0.000830227
0.000853376
0.000877164
0.000901663
0.000926903
0.000952892
0.000979619
0.00100706
0.0010352
0.00106401
0.00109343
0.00112345
0.00115402
0.00118511
0.00121669
0.00124873
0.0012812
0.0013141
0.00134739
0.00138106
0.00141509
0.00144947
0.00148418
0.0015192
0.00155453
0.00159016
0.00162608
0.00166231
0.00169883
0.00173565
0.00177278
0.00181021
0.00184794
0.00188598
0.00192432
0.00196296
0.00200191
0.00204115
0.00208069
0.00212053
0.00216065
0.00220106
0.00224175
0.00228271
0.00232394
0.00236544
0.00240719
0.00244918
0.00249141
0.00253388
0.00257656
0.00261945
0.00266253
0.0027058
0.00274924
0.00279283
0.00283657
0.00288044
0.00292442
0.0029685
0.00301267
0.00305689
0.00310117
0.00314548
0.0031898
0.00323412
0.00327842
0.00332267
0.00336687
0.00341098
0.003455
0.0034989
0.00354266
0.00358627
0.0036297
0.00367294
0.00371596
0.00375876
0.0038013
0.00384357
0.00388556
0.00392726
0.00396863
0.00400967
0.00405036
0.00409067
0.00413059
0.00417009
0.00420915
0.00424773
0.00428582
0.00432339
0.00436039
0.0043968
0.00443258
0.00446768
0.00450207
0.0045357
0.00456852
0.00460047
0.0046315
0.00466154
0.00469054
0.00471843
0.00474514
0.00477061
0.00479476
0.00481754
0.00483886
0.00485886
0.00487733
0.0048941
0.00490899
0.00492221
0.00493361
0.00494307
0.00495049
0.00495588
0.00495926
0.00496062
0.00495999
0.00495736
0.00495277
0.00494624
0.00493781
0.00492753
0.00491546
0.00490169
0.00488628
0.00486935
0.00485099
0.00483132
0.00481046
0.00478852
0.00476564
0.00474195
0.0047176
0.00469273
0.00466749
0.00464202
0.0046165
0.00459106
0.00456586
0.00454105
0.00451679
0.00449322
0.00447047
0.00444869
0.004428
0.00440852
0.00439033
0.00437354
0.00435821
0.00434439
0.0043321
0.00432134
0.00431212
0.00430443
0.00429831
0.00429379
0.00429075
0.00428862
0.00428588
0.00427964
1.25791e-05
0.000104867
0.000229362
0.000341199
0.000434341
0.000511398
0.000574696
0.000626879
0.000670474
0.000707587
0.000739947
0.000768951
0.000795705
0.000821067
0.000845689
0.000870051
0.000894497
0.000919265
0.000944515
0.000970347
0.00099681
0.00102392
0.00105168
0.00108005
0.00110911
0.0011388
0.00116908
0.00119991
0.00123126
0.00126309
0.00129538
0.0013281
0.00136124
0.00139476
0.00142867
0.00146293
0.00149755
0.00153252
0.00156785
0.00160343
0.00163928
0.0016754
0.00171178
0.00174843
0.00178536
0.00182256
0.00186003
0.00189778
0.00193581
0.00197412
0.00201271
0.00205158
0.00209072
0.00213015
0.00216985
0.00220982
0.00225006
0.00229057
0.00233135
0.00237239
0.00241368
0.00245524
0.00249704
0.00253909
0.00258137
0.00262389
0.00266663
0.00270958
0.00275275
0.00279611
0.00283966
0.00288338
0.00292727
0.00297131
0.00301549
0.00305979
0.0031042
0.00314871
0.0031933
0.00323794
0.00328264
0.00332737
0.0033721
0.00341683
0.00346154
0.0035062
0.00355079
0.00359531
0.00363973
0.00368403
0.00372819
0.0037722
0.00381603
0.00385966
0.00390309
0.00394629
0.00398925
0.00403195
0.00407438
0.00411651
0.00415834
0.00419984
0.004241
0.00428179
0.0043222
0.0043622
0.00440178
0.00444089
0.00447953
0.00451765
0.00455522
0.00459221
0.00462857
0.00466426
0.00469924
0.00473345
0.00476683
0.00479932
0.00483086
0.00486138
0.00489081
0.00491907
0.00494609
0.0049718
0.00499612
0.00501909
0.00504055
0.00506036
0.00507846
0.00509481
0.00510929
0.00512179
0.00513211
0.0051403
0.00514636
0.00515029
0.00515208
0.00515175
0.00514929
0.00514473
0.00513808
0.0051294
0.00511874
0.00510617
0.00509176
0.00507561
0.00505781
0.00503848
0.00501772
0.00499566
0.00497243
0.00494816
0.004923
0.00489709
0.00487061
0.00484369
0.0048165
0.00478921
0.00476198
0.00473497
0.00470835
0.00468228
0.00465694
0.00463246
0.00460901
0.00458674
0.00456577
0.00454624
0.00452825
0.00451192
0.00449732
0.00448454
0.00447363
0.00446468
0.00445779
0.00445303
0.0044504
0.0044495
0.00444922
0.00444756
1.30307e-05
0.000104814
0.00023233
0.000349223
0.000448037
0.000530534
0.000599173
0.000656325
0.000704461
0.000745666
0.000781671
0.000813886
0.000843443
0.00087123
0.000897936
0.000924082
0.000950045
0.000976095
0.00100242
0.0010292
0.00105649
0.0010843
0.00111261
0.00114139
0.00117077
0.00120072
0.00123121
0.00126221
0.00129369
0.00132563
0.00135799
0.00139077
0.00142395
0.0014575
0.00149141
0.00152567
0.00156027
0.00159521
0.00163047
0.00166589
0.00170153
0.00173739
0.00177346
0.00180975
0.00184627
0.00188301
0.00192
0.00195723
0.00199471
0.00203243
0.00207041
0.00210865
0.00214714
0.00218589
0.0022249
0.00226416
0.00230369
0.00234348
0.00238354
0.00242386
0.00246444
0.00250529
0.0025464
0.00258778
0.00262942
0.00267131
0.00271346
0.00275587
0.00279851
0.00284139
0.00288451
0.00292784
0.00297139
0.00301514
0.00305908
0.00310319
0.00314747
0.0031919
0.00323646
0.00328113
0.00332591
0.00337077
0.0034157
0.00346067
0.00350567
0.00355067
0.00359567
0.00364062
0.00368553
0.00373037
0.00377511
0.00381974
0.00386425
0.0039086
0.00395279
0.00399679
0.00404059
0.00408418
0.00412753
0.00417064
0.0042135
0.00425607
0.00429835
0.00434033
0.00438199
0.0044233
0.00446425
0.00450482
0.00454499
0.00458473
0.00462401
0.0046628
0.00470106
0.00473876
0.00477584
0.00481227
0.00484798
0.00488292
0.00491701
0.00495019
0.00498238
0.0050135
0.00504348
0.00507224
0.0050997
0.0051258
0.00515046
0.00517353
0.00519505
0.0052148
0.00523264
0.00524854
0.00526206
0.00527335
0.00528242
0.00528926
0.00529384
0.00529614
0.00529617
0.00529393
0.00528943
0.00528269
0.00527378
0.00526273
0.00524964
0.00523457
0.00521762
0.00519889
0.00517848
0.00515653
0.00513314
0.00510847
0.00508265
0.00505584
0.00502819
0.00499987
0.00497105
0.0049419
0.00491259
0.00488331
0.00485423
0.00482553
0.00479741
0.00477005
0.00474362
0.00471831
0.00469429
0.00467173
0.0046508
0.00463165
0.00461443
0.00459928
0.00458635
0.0045758
0.00456779
0.00456246
0.00455992
0.00455991
0.00456166
0.00456387
1.33939e-05
0.000103954
0.000233133
0.000353796
0.000457239
0.000544375
0.00061767
0.000679236
0.00073145
0.000776353
0.000815656
0.000850768
0.000882826
0.000912735
0.00094121
0.000968837
0.000996005
0.00102297
0.00104987
0.00107705
0.00110457
0.00113249
0.00116086
0.00118975
0.00121915
0.00124903
0.00127934
0.00131006
0.00134118
0.00137267
0.00140451
0.00143668
0.00146919
0.00150199
0.00153507
0.00156839
0.00160201
0.00163595
0.00167021
0.0017047
0.00173937
0.00177421
0.00180919
0.0018443
0.00187955