/*--------------------------------*- C++ -*----------------------------------*\
| =========                 |                                                 |
| \\      /  F ield         | OpenFOAM: The Open Source CFD Toolbox           |
|  \\    /   O peration     | Version:  4.1                                   |
|   \\  /    A nd           | Web:      www.OpenFOAM.org                      |
|    \\/     M anipulation  |                                                 |
\*---------------------------------------------------------------------------*/
FoamFile
{
    version     2.0;
    format      ascii;
    class       volScalarField;
    location    "200";
    object      p;
}
// * * * * * * * * * * * * * * * * * * * * * * * * * * * * * * * * * * * * * //

dimensions      [0 2 -2 0 0 0 0];

internalField   nonuniform List<scalar> 
12225
(
-2.67666
-4.90922
-6.02302
-6.3324
-6.5071
-6.68643
-6.83507
-6.94692
-7.03887
-7.12233
-7.2003
-7.27386
-7.3448
-7.41518
-7.48772
-7.56197
-7.65348
-7.71048
-5.86483
-6.69568
-6.89913
-6.79979
-6.77107
-6.83604
-6.92042
-6.99595
-7.0666
-7.13692
-7.20657
-7.27468
-7.3419
-7.40951
-7.47938
-7.55299
-7.63541
-7.74377
-6.2617
-6.18803
-6.30094
-6.39123
-6.50634
-6.65485
-6.79419
-6.90796
-7.00431
-7.0917
-7.17289
-7.24893
-7.32147
-7.39241
-7.46389
-7.53725
-7.61736
-7.70232
-6.13453
-6.03645
-6.30115
-6.50649
-6.63518
-6.75793
-6.87232
-6.96734
-7.04877
-7.12413
-7.19594
-7.26469
-7.33135
-7.39723
-7.46366
-7.53133
-7.60099
-7.6664
-6.13009
-6.14318
-6.39241
-6.56438
-6.65812
-6.7549
-6.85704
-6.94837
-7.02925
-7.10504
-7.17768
-7.24732
-7.31457
-7.38036
-7.44555
-7.51019
-7.57338
-7.63097
-6.19835
-6.24443
-6.42593
-6.56835
-6.65991
-6.75559
-6.85671
-6.94838
-7.02963
-7.10512
-7.17696
-7.24548
-7.3112
-7.37487
-7.43697
-7.49719
-7.55438
-7.60557
-6.26904
-6.31112
-6.44666
-6.57717
-6.67334
-6.76682
-6.86252
-6.95051
-7.02945
-7.10289
-7.17274
-7.23935
-7.30306
-7.36432
-7.42332
-7.47957
-7.53191
-7.5781
-6.32338
-6.35987
-6.47221
-6.5924
-6.68701
-6.77593
-6.86603
-6.95057
-7.02758
-7.09946
-7.16779
-7.2329
-7.29498
-7.35429
-7.41084
-7.46411
-7.51311
-7.55622
-6.36891
-6.40236
-6.49828
-6.60729
-6.69839
-6.78338
-6.869
-6.95057
-7.02579
-7.09616
-7.163
-7.22662
-7.28711
-7.3446
-7.39899
-7.4498
-7.49624
-7.53712
-6.41636
-6.44694
-6.52754
-6.62431
-6.71081
-6.79182
-6.87284
-6.95096
-7.02391
-7.09237
-7.15738
-7.21919
-7.27782
-7.33327
-7.3854
-7.4338
-7.47787
-7.51681
-6.46498
-6.49215
-6.55929
-6.64404
-6.72483
-6.80143
-6.87757
-6.95175
-7.0219
-7.08807
-7.15091
-7.21061
-7.26714
-7.32039
-7.37021
-7.41628
-7.4582
-7.49546
-6.51359
-6.53711
-6.59292
-6.66629
-6.74036
-6.81198
-6.88309
-6.95296
-7.01985
-7.08334
-7.14369
-7.20101
-7.2552
-7.30614
-7.35364
-7.3975
-7.43749
-7.4733
-6.56085
-6.58085
-6.62726
-6.69024
-6.75698
-6.82317
-6.88918
-6.9545
-7.01774
-7.07817
-7.13576
-7.19047
-7.24218
-7.29073
-7.33597
-7.37776
-7.41601
-7.45055
-6.60518
-6.62202
-6.66072
-6.71457
-6.77396
-6.83447
-6.89537
-6.95606
-7.01538
-7.0725
-7.12712
-7.17908
-7.22824
-7.27442
-7.3175
-7.3574
-7.39409
-7.42751
-6.64458
-6.65876
-6.6913
-6.73746
-6.79001
-6.84491
-6.90085
-6.95702
-7.01239
-7.0661
-7.11769
-7.16691
-7.21355
-7.25747
-7.29855
-7.33674
-7.37205
-7.4045
-6.6765
-6.68859
-6.71638
-6.75644
-6.80314
-6.85296
-6.90439
-6.95643
-7.0081
-7.05857
-7.10728
-7.15391
-7.19824
-7.24011
-7.27942
-7.31613
-7.35028
-7.38189
-6.69748
-6.70807
-6.73253
-6.76821
-6.8105
-6.85633
-6.90411
-6.95281
-7.00143
-7.04917
-7.09546
-7.13993
-7.18234
-7.22253
-7.26042
-7.29596
-7.3292
-7.36018
-6.70226
-6.7121
-6.73492
-6.76844
-6.80849
-6.85218
-6.89795
-6.94474
-6.99159
-7.03772
-7.08254
-7.12569
-7.16693
-7.20611
-7.24313
-7.27799
-7.3107
-7.34133
-6.69076
-6.70057
-6.72336
-6.75696
-6.79711
-6.84078
-6.88637
-6.93292
-6.97952
-7.02536
-7.06987
-7.11269
-7.15361
-7.1925
-7.2293
-7.26398
-7.29659
-7.32719
-6.66777
-6.67799
-6.7019
-6.73737
-6.77955
-6.82482
-6.87163
-6.91921
-6.9667
-7.01324
-7.05828
-7.10151
-7.14276
-7.18192
-7.21892
-7.2538
-7.28657
-7.31735
-6.6367
-6.64746
-6.67339
-6.71245
-6.75821
-6.80614
-6.8551
-6.90471
-6.95395
-7.00186
-7.04795
-7.09204
-7.13401
-7.17375
-7.21125
-7.24654
-7.2797
-7.31084
-6.60013
-6.61084
-6.63958
-6.68452
-6.73527
-6.78618
-6.83771
-6.89005
-6.94172
-6.99148
-7.03901
-7.08428
-7.12721
-7.1677
-7.20579
-7.24155
-7.2751
-7.30654
-6.56041
-6.56934
-6.60125
-6.65494
-6.7122
-6.76644
-6.82089
-6.87622
-6.93035
-6.98202
-7.03118
-7.07786
-7.12195
-7.16339
-7.20225
-7.23868
-7.27279
-7.3048
-6.51936
-6.52429
-6.5611
-6.6248
-6.68757
-6.74574
-6.80501
-6.86444
-6.92109
-6.97442
-7.02494
-7.07276
-7.1177
-7.15975
-7.19906
-7.23583
-7.2702
-7.3023
-6.47688
-6.47154
-6.52669
-6.6034
-6.664
-6.72175
-6.78615
-6.85107
-6.91147
-6.9676
-7.02057
-7.07044
-7.11695
-7.16017
-7.20035
-7.23777
-7.27269
-7.30552
-6.43936
-6.38456
-6.48522
-6.59768
-6.65818
-6.70978
-6.77239
-6.83685
-6.89676
-6.95288
-7.00643
-7.05713
-7.10453
-7.14864
-7.1897
-7.228
-7.26369
-7.2969
-6.46004
-6.26373
-6.37806
-6.54081
-6.63872
-6.71512
-6.79153
-6.86179
-6.92362
-6.98013
-7.03313
-7.08254
-7.12819
-7.17032
-7.20932
-7.2456
-7.27959
-7.31218
-6.59839
-6.34787
-6.31779
-6.36822
-6.44397
-6.54407
-6.64835
-6.74107
-6.82234
-6.89636
-6.96453
-7.02662
-7.08273
-7.13343
-7.17941
-7.22132
-7.25986
-7.29621
-6.35424
-6.92536
-7.03504
-6.90519
-6.8203
-6.82408
-6.86181
-6.9029
-6.94523
-6.99082
-7.03792
-7.08403
-7.12789
-7.16912
-7.20758
-7.24328
-7.2765
-7.30868
-3.3846
-5.02908
-6.00293
-6.28624
-6.41379
-6.5542
-6.68208
-6.78144
-6.86272
-6.93529
-7.00134
-7.06072
-7.11388
-7.16163
-7.20461
-7.24301
-7.27693
-7.30497
-8.10863
-8.10842
-8.10884
-8.11004
-8.1117
-8.11355
-8.1155
-8.11756
-8.11972
-8.122
-8.12443
-8.12706
-8.12993
-8.13309
-8.13656
-8.1404
-8.14463
-8.1493
-8.15446
-8.16014
-8.1664
-8.17329
-8.18086
-8.18915
-8.19822
-8.2081
-8.21884
-8.23047
-8.243
-8.25648
-8.27089
-8.28624
-8.30252
-8.3197
-8.33776
-8.35671
-8.37652
-8.39719
-8.41869
-8.44095
-8.46388
-8.48739
-8.51142
-8.53595
-8.56092
-8.5863
-8.61202
-8.63806
-8.66435
-8.69084
-8.71747
-8.74418
-8.77089
-8.79756
-8.82407
-8.85037
-8.87635
-8.90193
-8.927
-8.95147
-8.97521
-8.99811
-9.02002
-9.04084
-9.06039
-9.07855
-9.09513
-9.10999
-9.12294
-9.13382
-9.14241
-9.14855
-9.15201
-9.15261
-9.15011
-9.14431
-9.13496
-9.12187
-9.10476
-9.08343
-9.0576
-9.02707
-8.99157
-8.95089
-8.90474
-8.85293
-8.79516
-8.73122
-8.66084
-8.58381
-8.49995
-8.40906
-8.31101
-8.20571
-8.09314
-7.97319
-7.84546
-7.70943
-7.56493
-7.4121
-7.25098
-7.0816
-6.90396
-6.7181
-6.5241
-6.32206
-6.11211
-5.89441
-5.66917
-5.43662
-5.19706
-4.95078
-4.69814
-4.43954
-4.17538
-3.90611
-3.63223
-3.35424
-3.07266
-2.78804
-2.50095
-2.21195
-1.92163
-1.63053
-1.33923
-1.04829
-0.758235
-0.469575
-0.182798
0.101636
0.383314
0.661831
0.936807
1.20789
1.47481
1.73733
1.99528
2.24846
2.49675
2.74007
2.97844
3.21188
3.44051
3.66442
3.88379
4.09882
4.30978
4.5169
4.72048
4.92086
5.11848
5.31381
5.50733
5.69957
5.89107
6.08242
6.27421
6.46711
6.66174
6.85882
7.05901
7.263
7.47149
7.68515
7.90457
8.13032
8.36288
8.60261
8.84969
9.10429
9.36636
9.63531
9.90998
10.1894
10.4728
10.759
11.0475
11.3366
11.6367
11.9342
-8.10835
-8.10843
-8.10897
-8.11009
-8.11142
-8.1127
-8.11387
-8.11498
-8.11616
-8.11751
-8.11913
-8.12105
-8.12328
-8.12579
-8.12863
-8.13183
-8.13544
-8.13949
-8.14403
-8.14912
-8.1548
-8.16113
-8.16817
-8.17597
-8.18458
-8.19404
-8.20439
-8.21566
-8.22787
-8.24104
-8.25518
-8.27027
-8.2863
-8.30326
-8.32111
-8.33982
-8.35938
-8.37974
-8.40089
-8.42275
-8.44527
-8.46839
-8.49204
-8.5162
-8.54081
-8.56583
-8.5912
-8.61689
-8.64284
-8.66901
-8.69532
-8.72172
-8.74815
-8.77454
-8.8008
-8.82687
-8.85265
-8.87805
-8.90297
-8.92731
-8.95096
-8.97379
-8.99568
-9.01651
-9.03611
-9.05435
-9.07106
-9.0861
-9.09927
-9.11041
-9.11933
-9.12584
-9.12973
-9.13081
-9.12886
-9.12366
-9.11498
-9.10262
-9.08631
-9.06583
-9.04095
-9.01143
-8.97702
-8.93749
-8.8926
-8.84211
-8.78577
-8.72335
-8.6546
-8.57932
-8.49731
-8.40838
-8.31231
-8.20893
-8.09799
-7.97922
-7.85246
-7.71775
-7.57509
-7.42435
-7.26544
-7.09831
-6.92297
-6.73944
-6.54777
-6.34805
-6.1404
-5.92499
-5.702
-5.47167
-5.23426
-4.99007
-4.73944
-4.48275
-4.2204
-3.95283
-3.68051
-3.40395
-3.12365
-2.84017
-2.55406
-2.26587
-1.9762
-1.6856
-1.39463
-1.10385
-0.813806
-0.525
-0.237927
0.0469518
0.329206
0.60843
0.884232
1.15627
1.42424
1.68791
1.94709
2.20158
2.45123
2.69596
2.93577
3.17069
3.4008
3.62618
3.847
4.06346
4.27579
4.48421
4.68902
4.89054
5.08918
5.28542
5.47971
5.67258
5.86455
6.0562
6.24812
6.44096
6.63534
6.83195
7.03147
7.23458
7.44196
7.6543
7.87219
8.09619
8.32686
8.56458
8.80951
9.06177
9.32134
9.58764
9.85976
10.1369
10.4183
10.7032
10.9913
11.2808
11.5846
11.876
-8.10449
-8.10534
-8.10675
-8.10821
-8.10936
-8.11013
-8.11063
-8.11102
-8.11145
-8.11203
-8.11285
-8.11397
-8.11544
-8.11729
-8.11955
-8.12225
-8.12544
-8.12914
-8.1334
-8.13827
-8.14381
-8.15005
-8.15705
-8.16484
-8.17346
-8.18294
-8.19331
-8.20458
-8.21677
-8.22987
-8.24387
-8.25878
-8.27458
-8.29124
-8.30875
-8.32708
-8.34619
-8.36606
-8.38665
-8.40792
-8.42983
-8.45232
-8.47536
-8.4989
-8.52289
-8.5473
-8.57208
-8.59718
-8.62255
-8.64816
-8.67392
-8.6998
-8.72572
-8.75161
-8.77741
-8.80303
-8.82839
-8.8534
-8.87796
-8.90198
-8.92533
-8.94791
-8.96958
-8.99022
-9.00969
-9.02784
-9.04451
-9.05955
-9.07279
-9.08405
-9.09315
-9.0999
-9.10409
-9.10554
-9.10403
-9.09934
-9.09125
-9.07954
-9.06398
-9.04433
-9.02036
-8.99183
-8.9585
-8.92014
-8.8765
-8.82736
-8.77246
-8.71157
-8.64445
-8.57091
-8.49074
-8.40374
-8.30971
-8.20844
-8.0997
-7.98322
-7.85883
-7.72652
-7.58628
-7.43802
-7.28166
-7.11714
-6.94446
-6.76362
-6.57467
-6.37768
-6.17277
-5.96007
-5.73978
-5.5121
-5.27729
-5.03565
-4.78749
-4.53317
-4.2731
-4.00769
-3.73741
-3.46274
-3.18419
-2.90229
-2.61759
-2.33065
-2.04204
-1.75233
-1.46208
-1.17182
-0.882113
-0.593478
-0.306409
-0.0213648
0.261213
0.540915
0.81734
1.09015
1.35902
1.62372
1.88401
2.13972
2.39066
2.63676
2.87798
3.11436
3.34592
3.57277
3.79503
4.0129
4.22658
4.43628
4.64228
4.84488
5.0445
5.24155
5.43649
5.62983
5.82207
6.01376
6.20551
6.3979
6.59158
6.78721
6.98546
7.187
7.3925
7.60268
7.81814
8.03945
8.26717
8.50179
8.74357
8.99259
9.24883
9.51186
9.78099
10.0556
10.335
10.6186
10.9066
11.1968
11.5039
11.7831
-8.09676
-8.09865
-8.10153
-8.10395
-8.10556
-8.10659
-8.10723
-8.10764
-8.108
-8.10843
-8.10905
-8.10995
-8.11118
-8.1128
-8.11486
-8.11739
-8.12045
-8.12407
-8.1283
-8.13317
-8.13874
-8.14504
-8.1521
-8.15997
-8.16866
-8.1782
-8.1886
-8.19987
-8.21201
-8.22502
-8.23889
-8.25361
-8.26917
-8.28556
-8.30275
-8.32071
-8.33941
-8.35884
-8.37896
-8.39973
-8.42111
-8.44308
-8.46558
-8.48859
-8.51207
-8.53597
-8.56025
-8.58487
-8.60978
-8.63493
-8.66026
-8.68573
-8.71126
-8.7368
-8.76226
-8.78757
-8.81265
-8.83741
-8.86175
-8.88557
-8.90877
-8.93122
-8.9528
-8.97339
-8.99285
-9.01103
-9.02777
-9.04293
-9.05633
-9.0678
-9.07715
-9.08421
-9.08876
-9.09062
-9.08957
-9.08541
-9.0779
-9.06683
-9.05196
-9.03307
-9.00992
-8.98228
-8.9499
-8.91254
-8.86998
-8.82197
-8.76826
-8.70863
-8.64283
-8.57066
-8.49191
-8.40639
-8.31386
-8.21414
-8.10699
-7.99221
-7.86964
-7.73922
-7.60089
-7.45456
-7.30016
-7.13764
-6.96697
-6.78816
-6.60125
-6.40631
-6.20343
-5.99275
-5.77446
-5.54874
-5.31586
-5.07608
-4.82972
-4.57714
-4.31871
-4.05487
-3.78604
-3.51273
-3.23541
-2.95462
-2.6709
-2.38481
-2.09691
-1.80778
-1.51798
-1.22804
-0.93849
-0.649883
-0.36272
-0.0774566
0.205462
0.485622
0.762619
1.03611
1.30578
1.57137
1.83264
2.08939
2.34144
2.58873
2.83119
3.06884
3.30169
3.52983
3.7534
3.97254
4.18746
4.39834
4.60546
4.80912
5.00972
5.20764
5.40334
5.59728
5.78997
5.98195
6.17378
6.36604
6.55936
6.75436
6.95175
7.15216
7.35623
7.56466
7.7781
7.99713
8.22227
8.45398
8.69254
8.93813
9.19076
9.45018
9.7159
9.9874
10.2642
10.5455
10.832
11.1205
11.4256
11.6917
-8.08667
-8.08971
-8.09448
-8.0983
-8.1008
-8.10248
-8.10362
-8.10443
-8.10507
-8.10573
-8.10651
-8.10755
-8.1089
-8.11065
-8.11285
-8.11554
-8.11878
-8.1226
-8.12704
-8.13214
-8.13794
-8.14448
-8.15176
-8.15984
-8.16871
-8.17839
-8.18891
-8.20025
-8.21242
-8.22542
-8.23923
-8.25386
-8.26927
-8.28546
-8.30241
-8.32009
-8.33849
-8.35758
-8.37733
-8.39771
-8.41869
-8.44025
-8.46234
-8.48495
-8.50802
-8.53153
-8.55544
-8.57969
-8.60425
-8.62907
-8.65409
-8.67927
-8.70452
-8.72981
-8.75503
-8.78014
-8.80504
-8.82964
-8.85385
-8.87757
-8.90069
-8.92309
-8.94466
-8.96527
-8.98477
-9.00303
-9.01989
-9.03519
-9.04878
-9.06047
-9.07008
-9.07744
-9.08233
-9.08457
-9.08394
-9.08023
-9.07323
-9.0627
-9.04842
-9.03017
-9.00769
-8.98077
-8.94915
-8.91261
-8.8709
-8.82377
-8.771
-8.71234
-8.64755
-8.57643
-8.49877
-8.41435
-8.32295
-8.22438
-8.11843
-8.00491
-7.88367
-7.7546
-7.61762
-7.47265
-7.3196
-7.15843
-6.98911
-6.81164
-6.62606
-6.43242
-6.23083
-6.02141
-5.80434
-5.5798
-5.34805
-5.10935
-4.86402
-4.6124
-4.35487
-4.09185
-3.82377
-3.55112
-3.27439
-2.9941
-2.71079
-2.42502
-2.13735
-1.84837
-1.55865
-1.26872
-0.979093
-0.690325
-0.402931
-0.117379
0.165895
0.446461
0.723932
0.997946
1.2682
1.5344
1.79632
2.05373
2.3065
2.55451
2.79773
3.03613
3.26974
3.49862
3.72291
3.94274
4.15829
4.36976
4.5774
4.78155
4.98256
5.18084
5.3768
5.57092
5.76366
5.95558
6.14722
6.33918
6.53203
6.72639
6.92294
7.12234
7.32522
7.53226
7.74406
7.96121
8.18424
8.41363
8.64967
8.89259
9.14243
9.39902
9.66203
9.93103
10.2056
10.4849
10.7693
11.0552
11.3559
11.61
-8.07634
-8.08042
-8.08707
-8.09239
-8.09595
-8.09847
-8.10032
-8.10172
-8.10288
-8.10397
-8.10515
-8.10654
-8.10823
-8.11031
-8.11284
-8.11586
-8.11944
-8.1236
-8.12839
-8.13383
-8.13997
-8.14682
-8.1544
-8.16274
-8.17185
-8.18174
-8.19241
-8.20387
-8.21611
-8.22914
-8.24293
-8.25749
-8.27279
-8.28884
-8.30561
-8.32308
-8.34124
-8.36007
-8.37953
-8.39962
-8.42031
-8.44156
-8.46335
-8.48566
-8.50843
-8.53166
-8.55528
-8.57927
-8.60358
-8.62816
-8.65297
-8.67794
-8.70302
-8.72814
-8.75324
-8.77823
-8.80303
-8.82757
-8.85173
-8.87543
-8.89856
-8.921
-8.94262
-8.96331
-8.98293
-9.00133
-9.01836
-9.03386
-9.04767
-9.05961
-9.06951
-9.07717
-9.08241
-9.08502
-9.08479
-9.08151
-9.07497
-9.06493
-9.05118
-9.03347
-9.01158
-8.98527
-8.9543
-8.91842
-8.8774
-8.831
-8.77898
-8.72109
-8.6571
-8.58679
-8.50997
-8.42639
-8.33586
-8.23815
-8.13309
-8.02048
-7.90018
-7.77206
-7.63602
-7.49197
-7.33983
-7.17954
-7.01109
-6.83446
-6.64969
-6.45683
-6.25598
-6.04727
-5.83085
-5.60693
-5.37574
-5.13754
-4.89266
-4.64143
-4.38423
-4.12147
-3.8536
-3.58109
-3.30444
-3.02417
-2.74083
-2.45497
-2.16716
-1.87798
-1.58802
-1.29783
-1.00792
-0.718831
-0.431089
-0.145169
0.138485
0.419445
0.697319
0.971749
1.24241
1.50902
1.77132
2.02911
2.28225
2.53062
2.77417
3.01287
3.24675
3.47587
3.70033
3.92027
4.13587
4.34732
4.55488
4.75888
4.95967
5.15765
5.35324
5.54691
5.73912
5.93039
6.12128
6.31238
6.50427
6.69757
6.89295
7.09105
7.29252
7.49802
7.70819
7.9236
8.14482
8.3723
8.60639
8.84732
9.09515
9.34976
9.61092
9.87821
10.1512
10.429
10.7118
10.9952
11.2916
11.5355
-8.06759
-8.07247
-8.08062
-8.0873
-8.09193
-8.09533
-8.09795
-8.10003
-8.10179
-8.10344
-8.10513
-8.107
-8.10915
-8.11167
-8.11462
-8.11807
-8.12205
-8.12661
-8.13178
-8.1376
-8.14409
-8.15126
-8.15915
-8.16776
-8.1771
-8.18719
-8.19802
-8.2096
-8.22193
-8.235
-8.2488
-8.26333
-8.27857
-8.29453
-8.31118
-8.32852
-8.34652
-8.36516
-8.38444
-8.40433
-8.42481
-8.44585
-8.46743
-8.48953
-8.51211
-8.53513
-8.55858
-8.5824
-8.60655
-8.631
-8.65568
-8.68055
-8.70554
-8.7306
-8.75565
-8.78062
-8.80542
-8.82997
-8.85418
-8.87794
-8.90116
-8.9237
-8.94546
-8.9663
-8.98609
-9.00469
-9.02193
-9.03768
-9.05175
-9.06397
-9.07417
-9.08216
-9.08774
-9.09071
-9.09087
-9.088
-9.08188
-9.07229
-9.05899
-9.04177
-9.02037
-8.99458
-8.96413
-8.9288
-8.88835
-8.84252
-8.79109
-8.7338
-8.67041
-8.60073
-8.52452
-8.44157
-8.35167
-8.25459
-8.15015
-8.03817
-7.9185
-7.791
-7.65557
-7.5121
-7.36051
-7.20075
-7.03279
-6.85662
-6.67227
-6.4798
-6.27928
-6.07086
-5.85468
-5.63094
-5.39988
-5.16177
-4.91691
-4.66565
-4.40837
-4.14547
-3.87741
-3.60466
-3.32773
-3.04713
-2.76342
-2.47715
-2.18892
-1.89929
-1.60887
-1.31821
-1.02786
-0.738326
-0.450144
-0.163793
0.12027
0.401628
0.679875
0.954658
1.22563
1.49252
1.75506
2.01306
2.26635
2.51485
2.75846
2.9972
3.23104
3.46007
3.68435
3.90403
4.11928
4.33029
4.53736
4.74078
4.94093
5.13816
5.33291
5.52563
5.71681
5.90695
6.09663
6.28639
6.47687
6.66867
6.86246
7.05889
7.25865
7.46238
7.67074
7.88434
8.10375
8.32944
8.56178
8.80103
9.04727
9.30042
9.56026
9.82641
10.0984
10.3751
10.6566
10.9379
11.2308
11.4666
-8.06153
-8.06698
-8.07605
-8.08377
-8.08932
-8.09352
-8.09686
-8.09961
-8.10199
-8.10422
-8.10645
-8.10883
-8.11147
-8.11445
-8.11785
-8.12173
-8.12612
-8.13108
-8.13663
-8.14281
-8.14963
-8.15711
-8.16528
-8.17414
-8.1837
-8.19397
-8.20496
-8.21666
-8.22907
-8.2422
-8.25603
-8.27056
-8.28579
-8.3017
-8.31829
-8.33554
-8.35345
-8.37199
-8.39115
-8.41092
-8.43127
-8.45219
-8.47365
-8.49563
-8.51809
-8.54102
-8.56438
-8.58812
-8.61222
-8.63662
-8.66127
-8.68613
-8.71113
-8.73621
-8.76131
-8.78634
-8.81122
-8.83588
-8.86021
-8.88411
-8.90748
-8.9302
-8.95215
-8.9732
-8.99322
-9.01205
-9.02955
-9.04557
-9.05992
-9.07245
-9.08296
-9.09128
-9.0972
-9.10052
-9.10104
-9.09853
-9.09279
-9.08359
-9.0707
-9.05388
-9.0329
-9.00752
-8.97751
-8.94261
-8.9026
-8.85721
-8.80621
-8.74937
-8.68643
-8.61718
-8.54141
-8.4589
-8.3694
-8.27273
-8.16869
-8.0571
-7.9378
-7.81066
-7.67556
-7.53239
-7.38107
-7.22154
-7.05377
-6.87775
-6.6935
-6.50108
-6.30058
-6.09211
-5.87584
-5.65196
-5.42071
-5.18234
-4.93719
-4.68557
-4.42789
-4.16455
-3.89601
-3.62273
-3.34523
-3.06405
-2.77974
-2.49286
-2.20401
-1.91376
-1.62272
-1.33147
-1.04057
-0.750529
-0.461866
-0.175072
0.109399
0.391122
0.669694
0.944745
1.21593
1.48298
1.74563
2.00368
2.25698
2.50541
2.74891
2.98745
3.22106
3.44976
3.67364
3.89283
4.10749
4.31783
4.52414
4.72672
4.92594
5.12215
5.31578
5.50728
5.69714
5.88586
6.07402
6.26218
6.45096
6.64099
6.83294
7.02749
7.22531
7.4271
7.63351
7.8452
8.06273
8.28662
8.51727
8.75497
8.9998
9.25173
9.51054
9.77584
10.047
10.323
10.6034
10.8829
11.1731
11.4028
-8.05869
-8.06436
-8.07384
-8.08219
-8.08841
-8.09325
-8.09721
-8.10054
-8.10348
-8.10624
-8.10898
-8.11184
-8.11494
-8.11836
-8.12217
-8.12644
-8.13122
-8.13653
-8.14242
-8.14891
-8.15602
-8.16378
-8.17219
-8.18127
-8.19102
-8.20146
-8.21258
-8.2244
-8.23691
-8.2501
-8.26398
-8.27854
-8.29378
-8.30969
-8.32626
-8.34349
-8.36136
-8.37986
-8.39897
-8.41869
-8.43899
-8.45986
-8.48128
-8.50323
-8.52567
-8.54858
-8.57193
-8.59569
-8.61981
-8.64425
-8.66896
-8.69389
-8.71898
-8.74417
-8.76938
-8.79455
-8.81959
-8.84441
-8.86892
-8.89303
-8.91661
-8.93955
-8.96174
-8.98304
-9.00332
-9.02242
-9.0402
-9.05651
-9.07116
-9.08398
-9.09481
-9.10343
-9.10967
-9.11331
-9.11415
-9.11197
-9.10656
-9.09769
-9.08512
-9.06863
-9.04798
-9.02293
-8.99324
-8.95867
-8.91897
-8.87389
-8.8232
-8.76666
-8.70401
-8.63504
-8.55954
-8.47728
-8.38802
-8.29156
-8.18772
-8.07631
-7.95717
-7.83016
-7.69515
-7.55205
-7.40075
-7.2412
-7.07337
-6.89725
-6.71285
-6.52023
-6.31947
-6.1107
-5.89407
-5.66978
-5.43807
-5.1992
-4.95348
-4.70127
-4.44295
-4.17893
-3.90967
-3.63566
-3.35741
-3.07546
-2.79037
-2.50273
-2.21312
-1.92215
-1.63041
-1.3385
-1.04701
-0.756448
-0.467315
-0.18011
0.104722
0.386741
0.665548
0.94075
1.21203
1.47908
1.7417
1.99964
2.25278
2.50098
2.74419
2.98235
3.2155
3.44366
3.66691
3.88537
4.0992
4.30866
4.51399
4.71551
4.91356
5.10853
5.30082
5.49091
5.67924
5.86637
6.05284
6.23925
6.42619
6.61433
6.80433
6.9969
7.19272
7.3925
7.59694
7.80669
8.02237
8.24452
8.47357
8.70981
8.9534
9.20429
9.46229
9.72693
9.9976
10.273
10.5525
10.8306
11.1187
11.3442
-8.05901
-8.06464
-8.07406
-8.08266
-8.08928
-8.09455
-8.09895
-8.10274
-8.10613
-8.10933
-8.1125
-8.11578
-8.11927
-8.12306
-8.12723
-8.13184
-8.13693
-8.14255
-8.14871
-8.15547
-8.16282
-8.1708
-8.17941
-8.18867
-8.19859
-8.20917
-8.22042
-8.23234
-8.24494
-8.25821
-8.27215
-8.28676
-8.30204
-8.31798
-8.33458
-8.35182
-8.3697
-8.38822
-8.40734
-8.42707
-8.44739
-8.46829
-8.48974
-8.51172
-8.53421
-8.55719
-8.58062
-8.60446
-8.62868
-8.65324
-8.67807
-8.70315
-8.7284
-8.75375
-8.77915
-8.80452
-8.82976
-8.8548
-8.87955
-8.90389
-8.92771
-8.95092
-8.97337
-8.99493
-9.01548
-9.03486
-9.05292
-9.0695
-9.08443
-9.09754
-9.10864
-9.11754
-9.12405
-9.12796
-9.12907
-9.12716
-9.122
-9.11337
-9.10105
-9.0848
-9.06438
-9.03956
-9.01008
-8.97572
-8.93621
-8.89133
-8.84081
-8.78443
-8.72193
-8.65309
-8.57771
-8.49554
-8.40635
-8.30995
-8.20613
-8.09472
-7.97555
-7.84849
-7.71339
-7.57015
-7.41868
-7.25892
-7.09082
-6.91439
-6.72963
-6.5366
-6.33538
-6.12609
-5.9089
-5.684
-5.45162
-5.21204
-4.96557
-4.71257
-4.45343
-4.18856
-3.91843
-3.64353
-3.36439
-3.08154
-2.79558
-2.50708
-2.21665
-1.92489
-1.63242
-1.33984
-1.04775
-0.756684
-0.467129
-0.179574
0.105536
0.387774
0.666717
0.941973
1.21322
1.48015
1.74257
2.00025
2.25305
2.50082
2.74352
2.9811
3.21357
3.44096
3.66333
3.88082
4.0936
4.30193
4.50604
4.70628
4.90296
5.09649
5.28726
5.47574
5.66241
5.84779
6.03246
6.21699
6.40202
6.58819
6.7762
6.96675
7.16055
7.35834
7.56083
7.76869
7.98259
8.20308
8.43064
8.66557
8.90807
9.1581
9.41546
9.67964
9.94994
10.225
10.5039
10.7809
11.0674
11.2901
-8.06217
-8.06752
-8.07655
-8.08503
-8.09177
-8.09725
-8.10192
-8.10601
-8.10972
-8.11324
-8.11674
-8.12033
-8.12413
-8.12822
-8.13267
-8.13755
-8.14289
-8.14873
-8.15512
-8.16208
-8.16962
-8.17777
-8.18654
-8.19595
-8.206
-8.21671
-8.22806
-8.24008
-8.25277
-8.26612
-8.28013
-8.29481
-8.31015
-8.32615
-8.3428
-8.3601
-8.37804
-8.39661
-8.41581
-8.43561
-8.45601
-8.47699
-8.49853
-8.52061
-8.54322
-8.56632
-8.58989
-8.61388
-8.63826
-8.66299
-8.68802
-8.71329
-8.73874
-8.76431
-8.78994
-8.81553
-8.84102
-8.8663
-8.89129
-8.91589
-8.93997
-8.96343
-8.98614
-9.00796
-9.02876
-9.0484
-9.0667
-9.08353
-9.09869
-9.11203
-9.12335
-9.13246
-9.13917
-9.14328
-9.14457
-9.14283
-9.13783
-9.12936
-9.11719
-9.10107
-9.08077
-9.05606
-9.02668
-8.9924
-8.95297
-8.90814
-8.85767
-8.80132
-8.73883
-8.67
-8.59459
-8.51237
-8.42311
-8.32661
-8.22267
-8.11111
-7.99177
-7.86449
-7.72914
-7.58561
-7.43381
-7.27368
-7.10517
-6.92826
-6.74298
-6.54938
-6.34755
-6.1376
-5.91969
-5.69402
-5.46083
-5.22041
-4.97306
-4.71914
-4.45906
-4.19323
-3.92213
-3.64626
-3.36614
-3.08234
-2.79544
-2.50605
-2.21477
-1.92221
-1.62899
-1.33575
-1.04309
-0.75153
-0.461589
-0.173743
0.111561
0.393913
0.672871
0.948052
1.21911
1.48578
1.74782
2.00506
2.25729
2.50444
2.74639
2.98315
3.21469
3.44105
3.6623
3.87857
4.09007
4.29702
4.49972
4.69844
4.89356
5.08544
5.27452
5.46123
5.64609
5.8296
6.01236
6.19493
6.37797
6.56213
6.74812
6.93665
7.12846
7.3243
7.52491
7.73099
7.94322
8.16219
8.3884
8.62221
8.86379
9.11315
9.37005
9.63398
9.9041
10.179
10.4575
10.7338
11.0193
11.2403
-8.06765
-8.07259
-8.08094
-8.08902
-8.09562
-8.1011
-8.10584
-8.11006
-8.11395
-8.11767
-8.12137
-8.12518
-8.12919
-8.13349
-8.13814
-8.14321
-8.14873
-8.15475
-8.16129
-8.1684
-8.17608
-8.18436
-8.19325
-8.20277
-8.21293
-8.22373
-8.23518
-8.24729
-8.26005
-8.27349
-8.28758
-8.30234
-8.31776
-8.33384
-8.35058
-8.36797
-8.386
-8.40467
-8.42396
-8.44388
-8.46441
-8.48552
-8.50721
-8.52945
-8.55222
-8.5755
-8.59925
-8.62344
-8.64802
-8.67296
-8.6982
-8.7237
-8.74938
-8.77518
-8.80104
-8.82687
-8.85259
-8.87812
-8.90334
-8.92817
-8.95248
-8.97616
-8.99908
-9.02111
-9.04211
-9.06193
-9.08041
-9.0974
-9.11272
-9.1262
-9.13764
-9.14687
-9.15369
-9.15788
-9.15924
-9.15756
-9.15262
-9.14418
-9.13203
-9.11592
-9.09562
-9.0709
-9.04149
-9.00717
-8.96769
-8.9228
-8.87225
-8.8158
-8.7532
-8.68423
-8.60867
-8.52629
-8.43684
-8.34012
-8.23594
-8.12411
-8.00446
-7.87685
-7.74114
-7.5972
-7.44496
-7.28433
-7.11529
-6.93781
-6.7519
-6.55763
-6.35508
-6.14436
-5.92564
-5.69911
-5.46504
-5.22369
-4.97539
-4.7205
-4.45943
-4.19259
-3.92048
-3.64359
-3.36247
-3.07768
-2.78983
-2.49952
-2.20737
-1.91401
-1.62007
-1.3262
-1.03299
-0.740995
-0.450743
-0.162718
0.12265
0.404955
0.683766
0.958686
1.22938
1.49558
1.75704
2.01359
2.26505
2.51133
2.75233
2.98802
3.2184
3.4435
3.6634
3.87825
4.08825
4.29364
4.49469
4.69172
4.88509
5.07516
5.26238
5.4472
5.63011
5.81165
5.99238
6.17293
6.35392
6.53605
6.72
6.90653
7.09638
7.29033
7.48912
7.69352
7.90419
8.12178
8.3468
8.57964
8.82048
9.06935
9.32598
9.58981
9.85995
10.1348
10.4133
10.6891
10.9739
11.1945
-8.0749
-8.07931
-8.08681
-8.09426
-8.1005
-8.10578
-8.11042
-8.11461
-8.11852
-8.1223
-8.12609
-8.13001
-8.13413
-8.13854
-8.14331
-8.14849
-8.15413
-8.16025
-8.1669
-8.1741
-8.18188
-8.19025
-8.19923
-8.20883
-8.21907
-8.22995
-8.24148
-8.25368
-8.26653
-8.28005
-8.29423
-8.30909
-8.3246
-8.34078
-8.35761
-8.3751
-8.39324
-8.41203
-8.43146
-8.45152
-8.4722
-8.49349
-8.51535
-8.53778
-8.56075
-8.58422
-8.60818
-8.63257
-8.65737
-8.68252
-8.70798
-8.73368
-8.75958
-8.78559
-8.81165
-8.83768
-8.86359
-8.8893
-8.91469
-8.93968
-8.96414
-8.98796
-9.01101
-9.03315
-9.05424
-9.07414
-9.09268
-9.10971
-9.12506
-9.13855
-9.15
-9.15921
-9.16599
-9.17013
-9.17143
-9.16968
-9.16465
-9.15611
-9.14385
-9.12761
-9.10718
-9.08231
-9.05276
-9.01827
-8.97862
-8.93354
-8.88279
-8.82613
-8.76331
-8.6941
-8.61829
-8.53564
-8.4459
-8.34887
-8.24435
-8.13217
-8.01214
-7.88411
-7.74795
-7.60355
-7.45079
-7.28962
-7.11999
-6.94189
-6.75532
-6.56033
-6.35702
-6.1455
-5.92593
-5.69853
-5.46353
-5.22123
-4.97195
-4.71605
-4.45396
-4.1861
-3.91296
-3.63505
-3.35292
-3.06716
-2.77836
-2.48716
-2.1942
-1.9001
-1.60553
-1.31112
-1.01746
-0.725151
-0.434736
-0.146702
0.138544
0.4206
0.699064
0.973514
1.24363
1.50913
1.76982
2.02545
2.27592
2.52109
2.7609
2.9953
3.22429
3.44791
3.66624
3.87946
4.08775
4.29138
4.49061
4.68578
4.87722
5.06535
5.25057
5.43337
5.61424
5.79372
5.97238
6.15086
6.32979
6.50986
6.6918
6.87637
7.06433
7.25646
7.45356
7.65639
7.86566
8.08203
8.30604
8.53808
8.77838
9.02694
9.28349
9.5474
9.81775
10.0928
10.3714
10.6471
10.9316
11.1525
-8.08336
-8.08719
-8.09373
-8.10038
-8.10609
-8.11099
-8.11535
-8.11936
-8.12314
-8.12685
-8.1306
-8.1345
-8.13863
-8.14307
-8.14787
-8.15309
-8.15877
-8.16495
-8.17166
-8.17892
-8.18675
-8.19519
-8.20423
-8.2139
-8.22421
-8.23516
-8.24676
-8.25903
-8.27195
-8.28555
-8.29981
-8.31474
-8.33034
-8.34662
-8.36355
-8.38115
-8.39942
-8.41834
-8.43792
-8.45814
-8.47898
-8.50044
-8.52249
-8.54509
-8.56824
-8.59189
-8.61602
-8.64059
-8.66556
-8.69088
-8.71649
-8.74235
-8.76838
-8.79452
-8.82069
-8.84681
-8.8728
-8.89857
-8.92402
-8.94904
-8.97351
-8.99732
-9.02034
-9.04244
-9.06347
-9.08328
-9.10172
-9.11864
-9.13385
-9.14719
-9.15846
-9.16749
-9.17408
-9.17802
-9.1791
-9.17712
-9.17185
-9.16308
-9.15056
-9.13408
-9.1134
-9.08827
-9.05845
-9.0237
-8.98378
-8.93842
-8.88739
-8.83044
-8.76733
-8.69782
-8.6217
-8.53872
-8.44865
-8.35127
-8.24639
-8.13381
-8.01337
-7.88491
-7.74828
-7.60338
-7.4501
-7.28837
-7.11815
-6.9394
-6.75216
-6.55646
-6.35238
-6.14006
-5.91965
-5.69137
-5.45546
-5.21221
-4.96197
-4.7051
-4.44202
-4.17317
-3.89905
-3.62018
-3.33711
-3.05045
-2.7608
-2.46881
-2.17514
-1.88044
-1.58536
-1.29053
-0.996577
-0.704125
-0.413738
-0.125887
0.159023
0.440612
0.718494
0.992254
1.26156
1.52615
1.78579
2.04029
2.28952
2.53336
2.77174
3.00462
3.232
3.45391
3.67048
3.88186
4.08827
4.28996
4.48721
4.68035
4.86975
5.0558
5.23893
5.41961
5.59837
5.77573
5.95229
6.12867
6.30554
6.48359
6.66356
6.84622
7.03237
7.2228
7.41832
7.61971
7.82773
8.04304
8.26621
8.49763
8.73756
8.98598
9.24262
9.50678
9.77748
10.0529
10.3318
10.6077
10.8921
11.114
-8.09253
-8.09576
-8.10131
-8.10706
-8.11208
-8.11645
-8.12038
-8.12403
-8.12754
-8.13103
-8.13461
-8.13838
-8.14242
-8.14679
-8.15155
-8.15675
-8.16242
-8.16861
-8.17533
-8.18261
-8.19048
-8.19894
-8.20802
-8.21773
-8.22807
-8.23906
-8.25071
-8.26302
-8.276
-8.28965
-8.30397
-8.31898
-8.33466
-8.35101
-8.36804
-8.38575
-8.40413
-8.42317
-8.44286
-8.4632
-8.48416
-8.50574
-8.52789
-8.5506
-8.57384
-8.59758
-8.62179
-8.64642
-8.67144
-8.6968
-8.72244
-8.7483
-8.77432
-8.80042
-8.82653
-8.85258
-8.87847
-8.90412
-8.92942
-8.95428
-8.97857
-9.00217
-9.02497
-9.04682
-9.06758
-9.08712
-9.10527
-9.12188
-9.13677
-9.14978
-9.16072
-9.1694
-9.17564
-9.17922
-9.17995
-9.17761
-9.17198
-9.16285
-9.14998
-9.13315
-9.11211
-9.08664
-9.05649
-9.0214
-8.98114
-8.93546
-8.8841
-8.82682
-8.76338
-8.69356
-8.61711
-8.5338
-8.44339
-8.34566
-8.24041
-8.12745
-8.00661
-7.87773
-7.74067
-7.59529
-7.44152
-7.27926
-7.10848
-6.92914
-6.74126
-6.54488
-6.3401
-6.12703
-5.90584
-5.67674
-5.43998
-5.19587
-4.94475
-4.68699
-4.42301
-4.15328
-3.87829
-3.59858
-3.31471
-3.02728
-2.73693
-2.44432
-2.15011
-1.85497
-1.55954
-1.26448
-0.970442
-0.678073
-0.387937
-0.100498
0.183834
0.464708
0.741745
1.01457
1.28281
1.54623
1.80457
2.05769
2.30543
2.54771
2.78442
3.01555
3.24109
3.4611
3.67571
3.88507
4.08943
4.28901
4.48413
4.67512
4.86236
5.04623
5.2272
5.40572
5.58232
5.75755
5.93201
6.10632
6.28117
6.45727
6.63536
6.81623
7.00069
7.18955
7.38365
7.58378
7.79072
8.00516
8.22766
8.45868
8.6984
8.94686
9.20373
9.46831
9.73951
10.0155
10.2948
10.5711
10.8556
11.0793
-8.10206
-8.10472
-8.10929
-8.11409
-8.1183
-8.12197
-8.1253
-8.12843
-8.1315
-8.13461
-8.13789
-8.14141
-8.14525
-8.14947
-8.15411
-8.15922
-8.16483
-8.17097
-8.17765
-8.18492
-8.19277
-8.20122
-8.21029
-8.21999
-8.23033
-8.24133
-8.25298
-8.2653
-8.27828
-8.29195
-8.30629
-8.32131
-8.337
-8.35338
-8.37043
-8.38817
-8.40657
-8.42564
-8.44534
-8.46568
-8.48662
-8.50816
-8.53027
-8.55292
-8.57608
-8.59972
-8.62381
-8.64831
-8.67317
-8.69835
-8.72379
-8.74943
-8.7752
-8.80103
-8.82685
-8.85257
-8.87812
-8.9034
-8.92832
-8.95277
-8.97663
-8.9998
-9.02214
-9.04352
-9.06381
-9.08286
-9.10052
-9.11663
-9.13102
-9.14354
-9.15398
-9.16218
-9.16793
-9.17103
-9.17129
-9.16849
-9.16242
-9.15285
-9.13956
-9.12232
-9.10089
-9.07504
-9.04452
-9.00908
-8.96847
-8.92245
-8.87077
-8.81319
-8.74945
-8.67934
-8.6026
-8.51899
-8.42828
-8.33024
-8.22468
-8.1114
-7.99023
-7.861
-7.72356
-7.5778
-7.42361
-7.26092
-7.08967
-6.90983
-6.72142
-6.52448
-6.31909
-6.10539
-5.88354
-5.65375
-5.41629
-5.17146