/*--------------------------------*- C++ -*----------------------------------*\
| =========                 |                                                 |
| \\      /  F ield         | OpenFOAM: The Open Source CFD Toolbox           |
|  \\    /   O peration     | Version:  4.1                                   |
|   \\  /    A nd           | Web:      www.OpenFOAM.org                      |
|    \\/     M anipulation  |                                                 |
\*---------------------------------------------------------------------------*/
FoamFile
{
    version     2.0;
    format      ascii;
    class       surfaceScalarField;
    location    "200";
    object      phi;
}
// * * * * * * * * * * * * * * * * * * * * * * * * * * * * * * * * * * * * * //

dimensions      [0 3 -1 0 0 0 0];

internalField   nonuniform List<scalar> 
24170
(
3.05907e-06
7.48182e-08
2.95467e-06
1.04402e-07
2.85726e-06
9.74063e-08
2.76453e-06
9.2723e-08
2.67733e-06
8.71952e-08
2.59901e-06
7.83132e-08
2.53067e-06
6.8337e-08
2.47157e-06
5.90994e-08
2.42052e-06
5.10488e-08
2.37638e-06
4.41328e-08
2.33817e-06
3.82088e-08
2.30504e-06
3.31262e-08
2.27631e-06
2.87259e-08
2.25143e-06
2.48772e-08
2.2301e-06
2.13228e-08
2.21188e-06
1.82179e-08
2.19651e-06
1.53729e-08
1.12528e-08
2.18525e-06
3.51041e-06
2.085e-08
3.52828e-06
8.65265e-08
3.53459e-06
9.10886e-08
3.53271e-06
9.4603e-08
3.52364e-06
9.62626e-08
3.50882e-06
9.31272e-08
3.48962e-06
8.75283e-08
3.46733e-06
8.13928e-08
3.44307e-06
7.53021e-08
3.41778e-06
6.94168e-08
3.39218e-06
6.38074e-08
3.36678e-06
5.85238e-08
3.34196e-06
5.35438e-08
3.31799e-06
4.88433e-08
3.29507e-06
4.424e-08
3.27343e-06
3.98587e-08
3.25395e-06
3.4845e-08
2.79483e-08
3.23725e-06
3.81757e-06
1.54725e-08
3.83013e-06
7.39673e-08
3.8403e-06
8.09125e-08
3.85099e-06
8.39071e-08
3.86076e-06
8.64951e-08
3.86838e-06
8.55069e-08
3.87372e-06
8.21786e-08
3.87702e-06
7.80918e-08
3.87853e-06
7.37902e-08
3.87853e-06
6.94118e-08
3.8773e-06
6.50393e-08
3.87508e-06
6.07433e-08
3.87208e-06
5.65345e-08
3.86853e-06
5.23913e-08
3.86458e-06
4.81953e-08
3.86058e-06
4.38568e-08
3.85658e-06
3.88365e-08
3.25677e-08
3.85196e-06
4.20345e-06
1.65786e-08
4.21507e-06
6.23461e-08
4.22329e-06
7.26896e-08
4.23089e-06
7.63064e-08
4.2381e-06
7.92762e-08
4.24433e-06
7.92787e-08
4.24965e-06
7.68503e-08
4.25431e-06
7.34304e-08
4.25841e-06
6.96853e-08
4.26202e-06
6.58011e-08
4.26519e-06
6.18648e-08
4.26799e-06
5.7943e-08
4.27048e-06
5.40495e-08
4.27271e-06
5.01559e-08
4.27474e-06
4.61612e-08
4.27665e-06
4.1942e-08
4.27825e-06
3.72357e-08
3.17758e-08
4.27904e-06
4.63768e-06
1.62099e-08
4.64712e-06
5.2903e-08
4.65389e-06
6.59131e-08
4.65984e-06
7.03613e-08
4.66578e-06
7.33313e-08
4.67128e-06
7.3772e-08
4.67625e-06
7.18827e-08
4.68079e-06
6.88909e-08
4.68497e-06
6.54973e-08
4.68885e-06
6.19179e-08
4.69247e-06
5.82413e-08
4.69588e-06
5.4532e-08
4.69912e-06
5.08096e-08
4.70223e-06
4.70499e-08
4.70521e-06
4.31762e-08
4.70805e-06
3.90953e-08
4.71061e-06
3.46758e-08
2.98217e-08
4.71257e-06
5.11602e-06
1.47806e-08
5.1236e-06
4.53198e-08
5.13001e-06
5.9503e-08
5.13573e-06
6.4637e-08
5.14151e-06
6.75491e-08
5.147e-06
6.82852e-08
5.152e-06
6.68832e-08
5.15657e-06
6.43144e-08
5.16081e-06
6.12566e-08
5.16477e-06
5.7953e-08
5.16851e-06
5.45034e-08
5.17206e-06
5.09758e-08
5.17547e-06
4.74003e-08
5.17875e-06
4.37645e-08
5.18191e-06
4.00214e-08
5.18489e-06
3.61136e-08
5.18757e-06
3.19878e-08
2.76428e-08
5.18975e-06
5.64261e-06
1.31779e-08
5.64907e-06
3.88607e-08
5.65559e-06
5.29803e-08
5.6615e-06
5.87278e-08
5.66734e-06
6.17007e-08
5.67294e-06
6.26908e-08
5.67808e-06
6.17323e-08
5.68283e-06
5.95704e-08
5.68724e-06
5.68385e-08
5.69139e-06
5.38039e-08
5.69531e-06
5.05803e-08
5.69904e-06
4.72411e-08
5.70262e-06
4.38275e-08
5.70604e-06
4.03426e-08
5.70929e-06
3.67674e-08
5.71232e-06
3.30776e-08
5.71504e-06
2.92714e-08
2.53952e-08
5.71729e-06
4.40729e-06
1.20022e-08
4.41138e-06
3.47628e-08
4.41606e-06
4.82966e-08
4.42044e-06
5.43478e-08
4.42471e-06
5.74324e-08
4.42883e-06
5.85651e-08
4.43269e-06
5.78706e-08
4.43627e-06
5.59864e-08
4.43962e-06
5.34913e-08
4.44277e-06
5.06553e-08
4.44574e-06
4.7603e-08
4.44857e-06
4.44132e-08
4.45126e-06
4.1135e-08
4.45382e-06
3.77824e-08
4.45623e-06
3.43542e-08
4.45846e-06
3.08465e-08
4.46045e-06
2.72795e-08
2.3712e-08
4.46213e-06
5.1411e-06
1.07627e-08
5.14519e-06
3.06692e-08
5.15012e-06
4.33656e-08
5.1549e-06
4.95671e-08
5.1596e-06
5.27244e-08
5.16419e-06
5.39723e-08
5.16853e-06
5.35281e-08
5.17259e-06
5.1925e-08
5.1764e-06
4.96805e-08
5.17999e-06
4.70641e-08
5.18339e-06
4.42074e-08
5.1866e-06
4.1195e-08
5.18965e-06
3.8083e-08
5.19254e-06
3.48977e-08
5.19524e-06
3.16534e-08
5.19772e-06
2.8364e-08
5.19993e-06
2.50625e-08
2.18137e-08
5.20183e-06
5.99709e-06
9.46135e-09
6.00113e-06
2.66346e-08
6.00623e-06
3.82624e-08
6.01138e-06
4.44173e-08
6.01652e-06
4.75811e-08
6.02159e-06
4.89016e-08
6.02643e-06
4.86791e-08
6.03101e-06
4.73492e-08
6.03532e-06
4.53622e-08
6.0394e-06
4.29816e-08
6.04326e-06
4.03445e-08
6.04692e-06
3.75391e-08
6.05037e-06
3.46279e-08
6.05362e-06
3.16483e-08
6.05665e-06
2.86273e-08
6.05942e-06
2.55921e-08
6.0619e-06
2.25818e-08
1.96592e-08
6.06405e-06
6.99561e-06
8.12016e-09
6.99954e-06
2.27026e-08
7.00475e-06
3.30495e-08
7.01023e-06
3.89365e-08
7.01578e-06
4.20271e-08
7.02131e-06
4.3367e-08
7.02667e-06
4.33194e-08
7.03178e-06
4.2241e-08
7.03663e-06
4.05099e-08
7.04123e-06
3.83762e-08
7.04559e-06
3.59794e-08
7.04972e-06
3.34101e-08
7.05361e-06
3.07348e-08
7.05726e-06
2.79995e-08
7.06064e-06
2.52404e-08
7.06374e-06
2.24923e-08
7.06653e-06
1.97949e-08
1.72056e-08
7.06898e-06
8.16036e-06
6.77156e-09
8.16418e-06
1.88871e-08
8.16943e-06
2.77887e-08
8.17519e-06
3.31786e-08
8.18112e-06
3.60916e-08
8.1871e-06
3.73877e-08
8.19296e-06
3.74558e-08
8.19861e-06
3.65944e-08
8.204e-06
3.51104e-08
8.20915e-06
3.32303e-08
8.21403e-06
3.10919e-08
8.21866e-06
2.87859e-08
8.22301e-06
2.63799e-08
8.22708e-06
2.39251e-08
8.23086e-06
2.14625e-08
8.23432e-06
1.90296e-08
8.23745e-06
1.66631e-08
1.44127e-08
8.24024e-06
9.51906e-06
5.44029e-09
9.52276e-06
1.51873e-08
9.52801e-06
2.25311e-08
9.53398e-06
2.72041e-08
9.54027e-06
2.98073e-08
9.54667e-06
3.09831e-08
9.55302e-06
3.10988e-08
9.55921e-06
3.04086e-08
9.56516e-06
2.91546e-08
9.57086e-06
2.75305e-08
9.57628e-06
2.56657e-08
9.58142e-06
2.36475e-08
9.58626e-06
2.15418e-08
9.59078e-06
1.94e-08
9.59498e-06
1.72638e-08
9.59884e-06
1.51695e-08
9.60235e-06
1.31486e-08
1.12425e-08
9.60552e-06
1.1104e-05
4.1396e-09
1.11076e-05
1.15908e-08
1.11128e-05
1.7301e-08
1.1119e-05
2.10628e-08
1.11256e-05
2.32058e-08
1.11324e-05
2.41682e-08
1.11392e-05
2.42566e-08
1.11459e-05
2.36823e-08
1.11525e-05
2.2631e-08
1.11587e-05
2.12586e-08
1.11647e-05
1.96778e-08
1.11704e-05
1.7968e-08
1.11757e-05
1.61889e-08
1.11808e-05
1.43882e-08
1.11854e-05
1.26038e-08
1.11897e-05
1.08679e-08
1.11937e-05
9.20545e-09
7.65037e-09
1.11973e-05
1.29529e-05
2.869e-09
1.29564e-05
8.06797e-09
1.29616e-05
1.20852e-08
1.29679e-05
1.47723e-08
1.29748e-05
1.63006e-08
1.2982e-05
1.69425e-08
1.29894e-05
1.69222e-08
1.29967e-05
1.6402e-08
1.30038e-05
1.55174e-08
1.30106e-05
1.43843e-08
1.30172e-05
1.30915e-08
1.30235e-05
1.17046e-08
1.30294e-05
1.02728e-08
1.3035e-05
8.83554e-09
1.30401e-05
7.42388e-09
1.30449e-05
6.06326e-09
1.30494e-05
4.77196e-09
3.57614e-09
1.30534e-05
1.51097e-05
1.6124e-09
1.51132e-05
4.56017e-09
1.51185e-05
6.81849e-09
1.5125e-05
8.28999e-09
1.51322e-05
9.05517e-09
1.51399e-05
9.26218e-09
1.51477e-05
9.04805e-09
1.51556e-05
8.51818e-09
1.51634e-05
7.75988e-09
1.51709e-05
6.84782e-09
1.51782e-05
5.84173e-09
1.51851e-05
4.78689e-09
1.51916e-05
3.71799e-09
1.51978e-05
2.6623e-09
1.52036e-05
1.64131e-09
1.5209e-05
6.72074e-10
1.5214e-05
-2.3422e-10
-1.05874e-09
1.52186e-05
1.76257e-05
3.35427e-10
1.76293e-05
9.59969e-10
1.76348e-05
1.35579e-09
1.76416e-05
1.46967e-09
1.76493e-05
1.32939e-09
1.76576e-05
9.88845e-10
1.76661e-05
4.98492e-10
1.76748e-05
-9.94826e-11
1.76833e-05
-7.68267e-10
1.76916e-05
-1.47544e-09
1.76996e-05
-2.19557e-09
1.77073e-05
-2.90838e-09
1.77146e-05
-3.59864e-09
1.77216e-05
-4.25372e-09
1.77281e-05
-4.86442e-09
1.77342e-05
-5.42309e-09
1.77398e-05
-5.92632e-09
-6.36229e-09
1.77451e-05
1.78274e-05
-8.61691e-10
1.78308e-05
-2.43514e-09
1.7836e-05
-3.82885e-09
1.78425e-05
-5.05081e-09
1.78499e-05
-6.10079e-09
1.78579e-05
-7.00398e-09
1.78662e-05
-7.79159e-09
1.78746e-05
-8.48293e-09
1.78829e-05
-9.08705e-09
1.7891e-05
-9.61357e-09
1.78989e-05
-1.00704e-08
1.79064e-05
-1.04644e-08
1.79136e-05
-1.07989e-08
1.79205e-05
-1.10777e-08
1.79269e-05
-1.13025e-08
1.7933e-05
-1.14759e-08
1.79386e-05
-1.16004e-08
-1.16715e-08
1.79439e-05
1.58824e-05
-1.92601e-09
1.58854e-05
-5.45289e-09
1.589e-05
-8.45751e-09
1.58959e-05
-1.08751e-08
1.59025e-05
-1.27189e-08
1.59096e-05
-1.41049e-08
1.59169e-05
-1.51485e-08
1.59244e-05
-1.5916e-08
1.59317e-05
-1.64562e-08
1.59389e-05
-1.6816e-08
1.59459e-05
-1.70367e-08
1.59526e-05
-1.71472e-08
1.59589e-05
-1.71692e-08
1.5965e-05
-1.71185e-08
1.59707e-05
-1.70086e-08
1.59761e-05
-1.68483e-08
1.59811e-05
-1.66469e-08
-1.64034e-08
1.59858e-05
1.41496e-05
-2.91383e-09
1.41525e-05
-8.26924e-09
1.41568e-05
-1.28136e-08
1.41623e-05
-1.63287e-08
1.41684e-05
-1.88464e-08
1.41749e-05
-2.06273e-08
1.41816e-05
-2.1873e-08
1.41884e-05
-2.26819e-08
1.41951e-05
-2.31363e-08
1.42016e-05
-2.33241e-08
1.42079e-05
-2.3315e-08
1.42139e-05
-2.31584e-08
1.42196e-05
-2.28899e-08
1.4225e-05
-2.2538e-08
1.42301e-05
-2.21241e-08
1.42349e-05
-2.16642e-08
1.42395e-05
-2.11708e-08
-2.06471e-08
1.42437e-05
1.26059e-05
-3.83173e-09
1.26087e-05
-1.09847e-08
1.26129e-05
-1.70876e-08
1.26182e-05
-2.15975e-08
1.2624e-05
-2.46544e-08
1.26301e-05
-2.67516e-08
1.26364e-05
-2.81475e-08
1.26427e-05
-2.89474e-08
1.26488e-05
-2.92798e-08
1.26547e-05
-2.92779e-08
1.26605e-05
-2.90364e-08
1.26659e-05
-2.86186e-08
1.26711e-05
-2.80726e-08
1.2676e-05
-2.74377e-08
1.26806e-05
-2.67423e-08
1.2685e-05
-2.6008e-08
1.2689e-05
-2.52498e-08
-2.44747e-08
1.26929e-05
1.12306e-05
-4.61652e-09
1.12333e-05
-1.36653e-08
1.12376e-05
-2.14518e-08
1.12428e-05
-2.67782e-08
1.12484e-05
-3.02053e-08
1.12542e-05
-3.25641e-08
1.12601e-05
-3.40683e-08
1.12659e-05
-3.48071e-08
1.12716e-05
-3.49781e-08
1.12771e-05
-3.47655e-08
1.12824e-05
-3.4282e-08
1.12873e-05
-3.36015e-08
1.12921e-05
-3.27845e-08
1.12965e-05
-3.18785e-08
1.13007e-05
-3.09189e-08
1.13046e-05
-2.99287e-08
1.13083e-05
-2.89261e-08
-2.7916e-08
1.13117e-05
1.00051e-05
-5.13391e-09
1.00078e-05
-1.63408e-08
1.00124e-05
-2.60561e-08
1.00175e-05
-3.19202e-08
1.00229e-05
-3.55375e-08
1.00284e-05
-3.81046e-08
1.0034e-05
-3.96571e-08
1.00395e-05
-4.02825e-08
1.00448e-05
-4.02686e-08
1.00498e-05
-3.98379e-08
1.00547e-05
-3.911e-08
1.00592e-05
-3.81695e-08
1.00635e-05
-3.70885e-08
1.00676e-05
-3.59238e-08
1.00714e-05
-3.47144e-08
1.00749e-05
-3.34879e-08
1.00783e-05
-3.22633e-08
-3.10518e-08
1.00814e-05
8.91321e-06
-5.2447e-09
8.91599e-06
-1.91207e-08
8.92077e-06
-3.08365e-08
8.92576e-06
-3.69155e-08
8.93093e-06
-4.07065e-08
8.93628e-06
-4.3461e-08
8.94159e-06
-4.4964e-08
8.94671e-06
-4.54078e-08
8.95163e-06
-4.51877e-08
8.95632e-06
-4.45374e-08
8.96078e-06
-4.35702e-08
8.96499e-06
-4.23789e-08
8.96895e-06
-4.10468e-08
8.97266e-06
-3.96383e-08
8.97614e-06
-3.81964e-08
8.9794e-06
-3.67498e-08
8.98245e-06
-3.5315e-08
-3.38892e-08
8.98529e-06
7.93989e-06
-4.47136e-09
7.94346e-06
-2.26875e-08
7.94814e-06
-3.55211e-08
7.95265e-06
-4.14206e-08
7.95761e-06
-4.56741e-08
7.96289e-06
-4.87376e-08
7.96808e-06
-5.01602e-08
7.97306e-06
-5.03866e-08
7.97781e-06
-4.99367e-08
7.98231e-06
-4.9046e-08
7.98656e-06
-4.78235e-08
7.99056e-06
-4.63727e-08
7.99429e-06
-4.47863e-08
7.99779e-06
-4.31347e-08
8.00106e-06
-4.14645e-08
8.00411e-06
-3.98074e-08
8.00698e-06
-3.8189e-08
-3.66221e-08
8.00972e-06
7.07055e-06
-6.94547e-10
7.07639e-06
-2.85264e-08
7.08147e-06
-4.06067e-08
7.08585e-06
-4.58016e-08
7.09083e-06
-5.06484e-08
7.0961e-06
-5.40135e-08
7.10129e-06
-5.53472e-08
7.10629e-06
-5.53877e-08
7.11108e-06
-5.47296e-08
7.11562e-06
-5.35931e-08
7.1199e-06
-5.20995e-08
7.12389e-06
-5.03704e-08
7.12762e-06
-4.85117e-08
7.13108e-06
-4.65997e-08
7.1343e-06
-4.46869e-08
7.1373e-06
-4.28062e-08
7.14008e-06
-4.09725e-08
-3.91411e-08
7.1426e-06
6.29311e-06
8.71218e-09
6.30158e-06
-3.70073e-08
6.30862e-06
-4.76473e-08
6.31508e-06
-5.22606e-08
6.32174e-06
-5.7305e-08
6.32803e-06
-6.03129e-08
6.33381e-06
-6.1128e-08
6.33921e-06
-6.07893e-08
6.34431e-06
-5.98272e-08
6.34909e-06
-5.83778e-08
6.35355e-06
-5.65556e-08
6.35767e-06
-5.44936e-08
6.36146e-06
-5.23092e-08
6.36495e-06
-5.0083e-08
6.36813e-06
-4.78768e-08
6.37106e-06
-4.57309e-08
6.37376e-06
-4.36813e-08
-4.17433e-08
6.37637e-06
5.60783e-06
1.57778e-08
5.61537e-06
-4.45484e-08
5.62311e-06
-5.53839e-08
5.63271e-06
-6.18696e-08
5.64338e-06
-6.79751e-08
5.65353e-06
-7.04629e-08
5.66258e-06
-7.01853e-08
5.67055e-06
-6.87563e-08
5.67748e-06
-6.67606e-08
5.68343e-06
-6.43282e-08
5.68845e-06
-6.1575e-08
5.6926e-06
-5.86502e-08
5.69596e-06
-5.56668e-08
5.69859e-06
-5.27191e-08
5.70058e-06
-4.98651e-08
5.70202e-06
-4.71687e-08
5.70298e-06
-4.46481e-08
-4.23649e-08
5.7036e-06
5.0423e-06
-2.42181e-08
5.05633e-06
-5.85799e-08
5.0672e-06
-6.62527e-08
5.07697e-06
-7.16498e-08
5.08581e-06
-7.6812e-08
5.09241e-06
-7.70658e-08
5.09589e-06
-7.36682e-08
5.09599e-06
-6.88634e-08
5.09292e-06
-6.36872e-08
5.08708e-06
-5.84894e-08
5.07896e-06
-5.34582e-08
5.06903e-06
-4.87199e-08
5.05769e-06
-4.43357e-08
5.04532e-06
-4.03453e-08
5.03221e-06
-3.67546e-08
5.01862e-06
-3.35865e-08
5.00485e-06
-3.08721e-08
-2.90776e-08
4.99156e-06
4.43233e-06
4.37375e-06
4.3075e-06
4.23585e-06
4.15904e-06
4.08197e-06
4.0083e-06
3.93944e-06
3.87575e-06
3.81726e-06
3.7638e-06
3.71508e-06
3.67075e-06
3.6304e-06
3.59364e-06
3.56006e-06
3.52919e-06
3.50011e-06
1.27605e-08
-1.28129e-08
3.04498e-08
-1.77712e-08
4.65419e-08
-1.61576e-08
5.86765e-08
-1.22008e-08
6.59737e-08
-7.35321e-09
6.83215e-08
-2.41027e-09
6.61464e-08
2.12236e-09
6.01882e-08
5.89658e-09
5.13434e-08
8.7929e-09
4.03671e-08
1.09133e-08
2.78667e-08
1.24487e-08
1.42119e-08
1.35875e-08
-3.13063e-10
1.44705e-08
-1.57334e-08
1.53515e-08
-3.21242e-08
1.6341e-08
-4.95675e-08
1.73769e-08
-6.81289e-08
1.85131e-08
-8.79578e-08
1.9763e-08
-1.09124e-07
2.11193e-08
-1.31753e-07
2.25641e-08
-1.55871e-07
2.40746e-08
-1.81556e-07
2.56238e-08
-2.08782e-07
2.71848e-08
-2.37568e-07
2.87299e-08
-2.67837e-07
3.02348e-08
-2.99564e-07
3.16768e-08
-3.32633e-07
3.30401e-08
-3.66987e-07
3.43095e-08
-4.02483e-07
3.54728e-08
-4.39043e-07
3.65195e-08
-4.76508e-07
3.74458e-08
-5.14796e-07
3.82503e-08
-5.53752e-07
3.89382e-08
-5.933e-07
3.95134e-08
-6.33299e-07
3.99831e-08
-6.73685e-07
4.03524e-08
-7.14331e-07
4.0631e-08
-7.55191e-07
4.08267e-08
-7.96161e-07
4.09551e-08
-8.37229e-07
4.10326e-08
-8.78331e-07
4.1084e-08
-9.19501e-07
4.11325e-08
-9.60708e-07
4.11856e-08
-1.00198e-06
4.12335e-08
-1.04328e-06
4.12782e-08
-1.08463e-06
4.13158e-08
-1.126e-06
4.13482e-08
-1.1674e-06
4.13725e-08
-1.20881e-06
4.13908e-08
-1.25024e-06
4.13991e-08
-1.29166e-06
4.13993e-08
-1.33307e-06
4.13874e-08
-1.37445e-06
4.13651e-08
-1.41581e-06
4.13274e-08
-1.45709e-06
4.12758e-08
-1.49832e-06
4.12056e-08
-1.53944e-06
4.11178e-08
-1.58047e-06
4.10067e-08
-1.62135e-06
4.08738e-08
-1.66208e-06
4.07131e-08
-1.70261e-06
4.05264e-08
-1.74294e-06
4.0308e-08
-1.783e-06
4.00597e-08
-1.8228e-06
3.97758e-08
-1.86226e-06
3.94586e-08
-1.90138e-06
3.9102e-08
-1.9401e-06
3.87088e-08
-1.97839e-06
3.82726e-08
-2.01619e-06
3.77964e-08
-2.05348e-06
3.7274e-08
-2.09019e-06
3.67085e-08
-2.1263e-06
3.60938e-08
-2.16174e-06
3.54334e-08
-2.19648e-06
3.47211e-08
-2.23044e-06
3.39612e-08
-2.26361e-06
3.3147e-08
-2.29589e-06
3.22837e-08
-2.32727e-06
3.13645e-08
-2.35765e-06
3.03946e-08
-2.38703e-06
2.93672e-08
-2.4153e-06
2.82875e-08
-2.44245e-06
2.71486e-08
-2.46838e-06
2.59555e-08
-2.49308e-06
2.47012e-08
-2.51644e-06
2.33907e-08
-2.53846e-06
2.2017e-08
-2.55902e-06
2.0585e-08
-2.5781e-06
1.90876e-08
-2.59559e-06
1.75257e-08
-2.61145e-06
1.58939e-08
-2.62561e-06
1.41842e-08
-2.63799e-06
1.23888e-08
-2.64848e-06
1.04991e-08
-2.65698e-06
8.50044e-09
-2.66337e-06
6.37578e-09
-2.66749e-06
4.11781e-09
-2.66928e-06
1.77642e-09
-2.66878e-06
-5.0622e-10
-2.66618e-06
-2.6026e-09
-2.66161e-06
-4.57427e-09
-2.65508e-06
-6.52374e-09
-2.64658e-06
-8.48224e-09
-2.63611e-06
-1.0455e-08
-2.62364e-06
-1.24442e-08
-2.60917e-06
-1.44451e-08
-2.59268e-06
-1.64554e-08
-2.57418e-06
-1.84689e-08
-2.55365e-06
-2.04815e-08
-2.53112e-06
-2.24868e-08
-2.5066e-06
-2.44793e-08
-2.4801e-06
-2.64529e-08
-2.45164e-06
-2.84006e-08
-2.42127e-06
-3.03166e-08
-2.38903e-06
-3.21928e-08
-2.35495e-06
-3.4024e-08
-2.31909e-06
-3.58006e-08
-2.28152e-06
-3.75185e-08
-2.2423e-06
-3.91669e-08
-2.20151e-06
-4.07428e-08
-2.15922e-06
-4.22341e-08
-2.11554e-06
-4.36391e-08
-2.07056e-06
-4.49463e-08
-2.02437e-06
-4.61606e-08
-1.97707e-06
-4.72731e-08
-1.92878e-06
-4.82882e-08
-1.87958e-06
-4.9195e-08
-1.8296e-06
-4.99842e-08
-1.77897e-06
-5.06538e-08
-1.72778e-06
-5.12168e-08
-1.67616e-06
-5.16628e-08
-1.62422e-06
-5.19922e-08
-1.57207e-06
-5.22028e-08
-1.51984e-06
-5.22993e-08
-1.46762e-06
-5.22815e-08
-1.41555e-06
-5.21504e-08
-1.36373e-06
-5.19049e-08
-1.31229e-06
-5.15466e-08
-1.26131e-06
-5.10835e-08
-1.21092e-06
-5.05253e-08
-1.16121e-06
-4.98804e-08
-1.11224e-06
-4.91454e-08
-1.06411e-06
-4.83251e-08
-1.01688e-06
-4.7411e-08
-9.7063e-07
-4.64213e-08
-9.2539e-07
-4.535e-08
-8.81222e-07
-4.42212e-08
-8.38138e-07
-4.30234e-08
-7.96197e-07
-4.1793e-08
-7.55435e-07
-4.05396e-08
-7.1587e-07
-3.93027e-08
-6.77491e-07
-3.80924e-08
-6.40256e-07
-3.69249e-08
-6.04122e-07
-3.58031e-08
-5.69022e-07
-3.47488e-08
-5.3489e-07
-3.37668e-08
-5.01623e-07
-3.28861e-08
-4.69116e-07
-3.21153e-08
-4.37233e-07
-3.14757e-08
-4.05838e-07
-3.09787e-08
-3.74747e-07
-3.06597e-08
-3.43792e-07
-3.05173e-08
-3.12762e-07
-3.05776e-08
-2.81448e-07
-3.08588e-08
-2.49592e-07
-3.13899e-08
-2.16965e-07
-3.21633e-08
-1.83309e-07
-3.31838e-08
-1.48311e-07
-3.45348e-08
-1.11677e-07
-3.61675e-08
-7.32943e-08
-3.79322e-08
-3.30718e-08
-3.97732e-08
8.76515e-09
-4.14087e-08
5.22039e-08
-4.30217e-08
9.80018e-08
-4.54185e-08
1.46966e-07
-4.86058e-08
1.99392e-07
-5.21106e-08
2.55174e-07
-5.54939e-08
3.13615e-07
-5.82e-08
3.72382e-07
-5.85569e-08
4.26449e-07
-5.38943e-08
-1.28899e-08
4.39499e-07
1.41396e-08
-2.70031e-08
2.29e-08
-2.65949e-08
2.60339e-08
-1.93318e-08
2.50602e-08
-1.12617e-08
2.09871e-08
-3.30863e-09
1.43452e-08
4.20252e-09
5.40124e-09
1.10408e-08
-5.77954e-09
1.70504e-08
-1.91798e-08
2.21699e-08
-3.47416e-08
2.64504e-08
-5.23451e-08
3.00312e-08
-7.1873e-08
3.30926e-08
-9.32369e-08
3.58147e-08
-1.1627e-07
3.83618e-08
-1.40806e-07
4.08582e-08
-1.66831e-07
4.3379e-08
-1.94304e-07
4.59669e-08
-2.23197e-07
4.86317e-08
-2.53456e-07
5.13585e-08
-2.85033e-07
5.41169e-08
-3.17848e-07
5.6869e-08
-3.51822e-07
5.95742e-08
-3.8685e-07
6.21926e-08
-4.22831e-07
6.46879e-08
-4.59643e-07
6.70289e-08
-4.97179e-07
6.91906e-08
-5.35312e-07
7.11559e-08
-5.73937e-07
7.29152e-08
-6.12944e-07
7.44645e-08
-6.52245e-07
7.58024e-08
-6.91745e-07
7.6932e-08
-7.31375e-07
7.78631e-08
-7.71061e-07
7.86108e-08
-8.10756e-07
7.91921e-08
-8.5041e-07
7.96255e-08
-8.90003e-07
7.99297e-08
-9.29508e-07
8.01248e-08
-9.68927e-07
8.02307e-08
-1.00825e-06
8.02675e-08
-1.04749e-06
8.02557e-08
-1.08663e-06
8.02143e-08
-1.12568e-06
8.01571e-08
-1.16459e-06
8.009e-08
-1.20339e-06
8.00127e-08
-1.24205e-06
7.9926e-08
-1.28059e-06
7.98295e-08
-1.31897e-06
7.97229e-08
-1.35722e-06
7.96044e-08
-1.39532e-06
7.94724e-08
-1.43326e-06
7.93244e-08
-1.47103e-06
7.91582e-08
-1.50863e-06
7.89704e-08
-1.54603e-06
7.87584e-08
-1.58324e-06
7.85182e-08
-1.62022e-06
7.8247e-08
-1.65696e-06
7.79406e-08
-1.69345e-06
7.75958e-08
-1.72966e-06
7.7208e-08
-1.76557e-06
7.67739e-08
-1.80115e-06
7.62891e-08
-1.83638e-06
7.57507e-08
-1.87124e-06
7.51544e-08
-1.90569e-06
7.44976e-08
-1.9397e-06
7.37764e-08
-1.97323e-06
7.29883e-08
-2.00627e-06
7.21294e-08
-2.03877e-06
7.11976e-08
-2.07069e-06
7.01891e-08
-2.102e-06
6.91021e-08
-2.13267e-06
6.79328e-08
-2.16265e-06
6.66801e-08
-2.1919e-06
6.53402e-08
-2.22039e-06
6.39124e-08
-2.24807e-06
6.23934e-08
-2.2749e-06
6.07829e-08
-2.30083e-06
5.90778e-08
-2.32583e-06
5.72783e-08
-2.34985e-06
5.53813e-08
-2.37284e-06
5.33875e-08
-2.39477e-06
5.12936e-08
-2.41558e-06
4.91004e-08
-2.43523e-06
4.68049e-08
-2.45367e-06
4.44078e-08
-2.47087e-06
4.1906e-08
-2.48677e-06
3.93008e-08
-2.50133e-06
3.65891e-08
-2.51451e-06
3.37724e-08
-2.52626e-06
3.08482e-08
-2.53653e-06
2.78167e-08
-2.54529e-06
2.46747e-08
-2.55251e-06
2.14196e-08
-2.55816e-06
1.80504e-08
-2.56223e-06
1.45685e-08
-2.56472e-06
1.0982e-08
-2.56566e-06
7.30967e-09
-2.56514e-06
3.59059e-09
-2.56324e-06
-1.29593e-10
-2.55991e-06
-3.84256e-09
-2.55494e-06
-7.58013e-09
-2.54815e-06
-1.13598e-08
-2.53949e-06
-1.51795e-08
-2.52892e-06
-1.90391e-08
-2.51643e-06
-2.29353e-08
-2.502e-06
-2.68633e-08
-2.48561e-06
-3.08151e-08
-2.46726e-06
-3.47825e-08
-2.44695e-06
-3.87551e-08
-2.42468e-06
-4.27227e-08
-2.40047e-06
-4.66739e-08
-2.37432e-06
-5.0597e-08
-2.34626e-06
-5.44794e-08
-2.31632e-06
-5.83082e-08
-2.28453e-06
-6.20702e-08
-2.25094e-06
-6.57514e-08
-2.21559e-06
-6.93381e-08
-2.17854e-06
-7.28156e-08
-2.13986e-06
-7.61703e-08
-2.0996e-06
-7.93871e-08
-2.05786e-06
-8.24527e-08
-2.01471e-06
-8.53521e-08
-1.97025e-06
-8.80736e-08
-1.92457e-06
-9.06036e-08
-1.87778e-06
-9.29359e-08
-1.82998e-06
-9.50615e-08
-1.78128e-06
-9.69829e-08
-1.73178e-06
-9.86921e-08
-1.6816e-06
-1.00168e-07
-1.63085e-06
-1.01409e-07
-1.57966e-06
-1.0243e-07
-1.52812e-06
-1.03222e-07
-1.47636e-06
-1.03783e-07
-1.42448e-06
-1.04113e-07
-1.3726e-06
-1.04217e-07
-1.32082e-06
-1.04095e-07
-1.26926e-06
-1.03752e-07
-1.21802e-06
-1.03186e-07
-1.16721e-06
-1.02407e-07
-1.11693e-06
-1.01425e-07
-1.06727e-06
-1.00259e-07
-1.01832e-06
-9.89181e-08
-9.70149e-07
-9.74107e-08
-9.22833e-07
-9.57403e-08
-8.76427e-07
-9.39123e-08
-8.30983e-07
-9.19426e-08
-7.86544e-07
-8.98453e-08
-7.43136e-07
-8.76363e-08
-7.00782e-07
-8.53364e-08
-6.59504e-07
-8.29735e-08
-6.19325e-07
-8.05953e-08
-5.80242e-07
-7.82384e-08
-5.42233e-07
-7.59511e-08
-5.05243e-07
-7.37445e-08
-4.69217e-07
-7.16563e-08
-4.34073e-07
-6.97006e-08
-3.99724e-07
-6.7925e-08
-3.6605e-07
-6.6351e-08
-3.32929e-07
-6.50301e-08
-3.00203e-07
-6.39791e-08
-2.67707e-07
-6.32548e-08
-2.35237e-07
-6.28926e-08
-2.02583e-07
-6.29389e-08
-1.69504e-07
-6.34088e-08
-1.35751e-07
-6.43685e-08
-1.01032e-07
-6.58548e-08
-6.50592e-08
-6.78887e-08
-2.7535e-08
-7.04534e-08
1.17326e-08
-7.35575e-08
5.2958e-08
-7.71461e-08
9.65464e-08
-8.12879e-08
1.42972e-07
-8.59698e-08
1.92792e-07
-9.10149e-08
2.46453e-07
-9.64764e-08
3.03904e-07
-1.02677e-07
3.64963e-07
-1.09485e-07
4.29418e-07
-1.16402e-07
4.96809e-07
-1.22739e-07
5.65987e-07
-1.27252e-07
6.3531e-07
-1.27776e-07
6.99016e-07
-1.17513e-07
-7.50563e-08
7.61256e-07
4.92134e-09
-3.19669e-08
2.7083e-09
-2.44287e-08
-3.31238e-09
-1.33392e-08
-1.18055e-08
-2.79127e-09
-2.21483e-08
7.01632e-09
-3.40596e-08
1.60965e-08
-4.74551e-08
2.44217e-08
-6.23712e-08
3.19514e-08
-7.88883e-08
3.86741e-08
-9.70839e-08
4.46323e-08
-1.16988e-07
4.99236e-08
-1.38588e-07
5.46804e-08
-1.61829e-07
5.90444e-08
-1.86625e-07
6.31451e-08
-2.12863e-07
6.7086e-08
-2.40434e-07
7.09369e-08
-2.69213e-07
7.47349e-08
-2.99082e-07
7.84876e-08
-3.29916e-07
8.21807e-08
-3.61599e-07
8.57862e-08
-3.94011e-07
8.92686e-08
-4.27043e-07
9.25917e-08
-4.60584e-07
9.57215e-08
-4.9454e-07
9.86296e-08
-5.28817e-07
1.01294e-07
-5.6334e-07
1.037e-07
-5.98034e-07
1.05839e-07
-6.32839e-07
1.07707e-07
-6.67695e-07
1.0931e-07
-7.02565e-07
1.1066e-07
-7.37419e-07
1.11776e-07
-7.72247e-07
1.12679e-07
-8.07033e-07
1.13387e-07
-8.41776e-07
1.13924e-07
-8.76471e-07
1.14312e-07
-9.11124e-07
1.14572e-07
-9.45734e-07
1.14727e-07
-9.80311e-07
1.14798e-07
-1.01485e-06
1.14803e-07
-1.04937e-06
1.14759e-07
-1.08384e-06
1.1468e-07
-1.11827e-06
1.14576e-07
-1.15264e-06
1.14454e-07
-1.18696e-06
1.14315e-07
-1.2212e-06
1.14162e-07
-1.25537e-06
1.13993e-07
-1.28947e-06
1.13807e-07
-1.32348e-06
1.13604e-07
-1.35739e-06
1.13379e-07
-1.39121e-06
1.13129e-07
-1.42491e-06
1.12851e-07
-1.45849e-06
1.12541e-07
-1.49193e-06
1.12193e-07
-1.52523e-06
1.11802e-07
-1.55835e-06
1.11365e-07
-1.59129e-06
1.10875e-07
-1.62403e-06
1.10328e-07
-1.65655e-06
1.09718e-07
-1.68882e-06
1.09039e-07
-1.72083e-06
1.08288e-07
-1.75254e-06
1.07457e-07
-1.78394e-06
1.06544e-07
-1.81499e-06
1.05542e-07
-1.84567e-06
1.04448e-07
-1.87594e-06
1.03256e-07
-1.90578e-06
1.01963e-07
-1.93515e-06
1.00564e-07
-1.96402e-06
9.90551e-08
-1.99236e-06
9.74325e-08
-2.02012e-06
9.56923e-08
-2.04728e-06
9.38312e-08
-2.07379e-06
9.18458e-08
-2.09962e-06
8.97333e-08
-2.12472e-06
8.74906e-08
-2.14906e-06
8.51155e-08
-2.17259e-06
8.26054e-08
-2.19527e-06
7.99585e-08
-2.21706e-06
7.71725e-08
-2.23792e-06
7.42463e-08
-2.25781e-06
7.11776e-08
-2.27667e-06
6.79655e-08
-2.29447e-06
6.46082e-08
-2.31116e-06
6.1105e-08
-2.3267e-06
5.74545e-08
-2.34105e-06
5.36566e-08
-2.35417e-06
4.97105e-08
-2.366e-06
4.56171e-08
-2.37652e-06
4.13765e-08
-2.38568e-06
3.69899e-08
-2.39345e-06
3.24581e-08
-2.3998e-06
2.77824e-08
-2.40472e-06
2.29667e-08
-2.40817e-06
1.8019e-08
-2.41014e-06
1.29529e-08
-2.41063e-06
7.78871e-09
-2.4096e-06
2.55285e-09
-2.407e-06
-2.74018e-09
-2.40274e-06
-8.10093e-09
-2.39677e-06
-1.35515e-08
-2.38904e-06
-1.90918e-08
-2.3795e-06
-2.47124e-08
-2.36813e-06
-3.04016e-08
-2.35491e-06
-3.61501e-08
-2.33982e-06
-4.19458e-08
-2.32284e-06
-4.77769e-08
-2.30398e-06
-5.36292e-08
-2.28323e-06
-5.9488e-08
-2.2606e-06
-6.53372e-08
-2.23609e-06
-7.116e-08
-2.20973e-06
-7.69387e-08
-2.18153e-06
-8.26544e-08
-2.15153e-06
-8.82881e-08
-2.11976e-06
-9.38194e-08
-2.08626e-06
-9.92283e-08
-2.05108e-06
-1.04493e-07
-2.01428e-06
-1.09594e-07
-1.97591e-06
-1.14508e-07
-1.93606e-06
-1.19215e-07
-1.8948e-06
-1.23694e-07
-1.85221e-06
-1.27925e-07
-1.80837e-06
-1.31888e-07
-1.7634e-06
-1.35566e-07
-1.71738e-06
-1.38944e-07
-1.67042e-06
-1.42011e-07
-1.62263e-06
-1.44763e-07
-1.57412e-06
-1.47201e-07
-1.525e-06
-1.49297e-07
-1.47537e-06
-1.51044e-07
-1.42535e-06
-1.52459e-07
-1.37505e-06
-1.53539e-07
-1.32457e-06
-1.5428e-07
-1.27403e-06
-1.54683e-07
-1.22351e-06
-1.54753e-07
-1.17314e-06
-1.54493e-07
-1.12301e-06
-1.53909e-07
-1.07322e-06
-1.53006e-07
-1.02386e-06
-1.51796e-07
-9.75035e-07
-1.50295e-07
-9.26819e-07
-1.48525e-07
-8.79293e-07
-1.46505e-07
-8.32526e-07
-1.44247e-07
-7.86574e-07
-1.41762e-07
-7.41486e-07
-1.39066e-07
-6.97304e-07
-1.36179e-07
-6.54058e-07
-1.33127e-07
-6.11769e-07
-1.29933e-07
-5.70447e-07
-1.26632e-07
-5.30105e-07
-1.23264e-07
-4.90744e-07
-1.19887e-07
-4.52355e-07
-1.16559e-07
-4.14898e-07
-1.13333e-07
-3.78319e-07
-1.10249e-07
-3.42545e-07
-1.07349e-07
-3.07494e-07
-1.04673e-07
-2.73058e-07
-1.02275e-07
-2.3912e-07
-1.00207e-07
-2.05535e-07
-9.85265e-08
-1.72148e-07
-9.72826e-08
-1.38774e-07
-9.65408e-08
-1.0521e-07
-9.63721e-08
-7.12264e-08
-9.68337e-08
-3.65832e-08
-9.79679e-08
-1.02633e-09
-9.98382e-08
3.5691e-08
-1.0249e-07
7.38594e-08
-1.05974e-07
1.13827e-07
-1.10344e-07
1.55947e-07
-1.15602e-07
2.00589e-07
-1.21718e-07
2.4809e-07
-1.2872e-07
2.98752e-07
-1.36569e-07
3.52934e-07
-1.45135e-07
4.10908e-07
-1.54394e-07
4.72662e-07
-1.64373e-07
5.38025e-07
-1.74796e-07
6.06716e-07
-1.85042e-07
6.7821e-07
-1.94186e-07
7.51589e-07
-2.00588e-07
8.25482e-07
-2.01631e-07
8.9813e-07
-1.90123e-07
-1.52284e-07
9.75398e-07
-5.19623e-09
-2.68078e-08
-1.55009e-08
-1.41614e-08
-2.76634e-08
-1.19834e-09
-4.10176e-08
1.05457e-08
-5.53494e-08
2.13347e-08
-7.06053e-08
3.13393e-08
-8.68122e-08
4.06177e-08
-1.04052e-07
4.918e-08
-1.22424e-07
5.70368e-08
-1.42024e-07
6.42221e-08
-1.62909e-07
7.07996e-08
-1.85094e-07
7.68558e-08
-2.08544e-07
8.24866e-08
-2.33191e-07
8.77828e-08
-2.58931e-07
9.28187e-08
-2.8565e-07
9.76462e-08
-3.13217e-07
1.02294e-07
-3.41507e-07
1.06768e-07
-3.70395e-07
1.1106e-07
-3.99771e-07
1.15152e-07
-4.29528e-07
1.19018e-07
-4.59582e-07
1.22634e-07
-4.89849e-07
1.2598e-07
-5.20269e-07
1.29039e-07
-5.50786e-07
1.31801e-07
-5.81358e-07
1.34263e-07
-6.11954e-07
1.36425e-07
-6.42555e-07
1.38298e-07
-6.7315e-07
1.39896e-07
-7.03738e-07
1.41238e-07
-7.34315e-07
1.42346e-07
-7.64889e-07
1.43243e-07
-7.95461e-07
1.43952e-07
-8.26042e-07
1.44496e-07
-8.56634e-07
1.44898e-07
-8.8725e-07
1.45179e-07
-9.1789e-07
1.45361e-07
-9.48562e-07
1.45462e-07
-9.79263e-07
1.45498e-07
-1.00999e-06
1.45482e-07
-1.04074e-06
1.45426e-07
-1.07151e-06
1.45337e-07
-1.10229e-06
1.45222e-07
-1.13306e-06
1.45083e-07
-1.16383e-06
1.44923e-07
-1.19458e-06
1.44739e-07
-1.22531e-06
1.44532e-07
-1.25602e-06
1.44298e-07
-1.28668e-06
1.44034e-07
-1.31729e-06
1.43734e-07
-1.34784e-06
1.43394e-07
-1.37831e-06
1.43009e-07
-1.4087e-06
1.42573e-07
-1.43899e-06
1.42079e-07
-1.46915e-06
1.41522e-07
-1.49918e-06
1.40895e-07
-1.52905e-06
1.40192e-07
-1.55874e-06
1.39405e-07
-1.58824e-06
1.38529e-07
-1.61751e-06
1.37556e-07
-1.64654e-06
1.36481e-07
-1.6753e-06
1.35297e-07
-1.70376e-06
1.33999e-07
-1.7319e-06
1.32579e-07
-1.75968e-06
1.31033e-07
-1.78708e-06
1.29354e-07
-1.81406e-06
1.27538e-07
-1.84058e-06
1.2558e-07
-1.86663e-06
1.23473e-07
-1.89215e-06
1.21214e-07
-1.91712e-06
1.18798e-07
-1.9415e-06
1.16221e-07
-1.96525e-06
1.13479e-07
-1.98834e-06
1.10568e-07
-2.01071e-06
1.07485e-07
-2.03233e-06
1.04227e-07
-2.05317e-06
1.00791e-07
-2.07317e-06
9.71757e-08
-2.09231e-06
9.33778e-08
-2.11052e-06
8.93955e-08
-2.12778e-06
8.52273e-08
-2.14404e-06
8.08717e-08
-2.15926e-06
7.63277e-08
-2.1734e-06
7.15944e-08
-2.18641e-06
6.66716e-08
-2.19825e-06
6.15595e-08
-2.20889e-06
5.62594e-08
-2.21828e-06
5.07726e-08
-2.22638e-06
4.51019e-08
-2.23316e-06
3.92495e-08
-2.23859e-06
3.32198e-08
-2.24264e-06
2.70184e-08
-2.24527e-06
2.06544e-08
-2.24647e-06
1.41409e-08
-2.24618e-06
7.49311e-09
-2.24436e-06
7.26437e-10
-2.24095e-06
-6.15401e-09
-2.23591e-06
-1.31539e-08
-2.22918e-06
-2.02802e-08
-2.22074e-06
-2.75273e-08
-2.21057e-06
-3.48834e-08
-2.19863e-06
-4.23333e-08
-2.18491e-06
-4.98627e-08
-2.16939e-06
-5.74544e-08
-2.15207e-06
-6.50922e-08
-2.13293e-06
-7.27566e-08
-2.11197e-06
-8.04284e-08
-2.08921e-06