/*--------------------------------*- C++ -*----------------------------------*\
| =========                 |                                                 |
| \\      /  F ield         | OpenFOAM: The Open Source CFD Toolbox           |
|  \\    /   O peration     | Version:  4.1                                   |
|   \\  /    A nd           | Web:      www.OpenFOAM.org                      |
|    \\/     M anipulation  |                                                 |
\*---------------------------------------------------------------------------*/
FoamFile
{
    version     2.0;
    format      ascii;
    class       volVectorField;
    location    "200";
    object      U;
}
// * * * * * * * * * * * * * * * * * * * * * * * * * * * * * * * * * * * * * //

dimensions      [0 1 -1 0 0 0 0];

internalField   nonuniform List<vector> 
12225
(
(9.83552 -0.969414 0)
(9.57661 -0.895714 0)
(9.2909 -0.596672 0)
(8.97668 -0.36934 0)
(8.67814 -0.224385 0)
(8.4119 -0.136342 0)
(8.17887 -0.0831843 0)
(7.97629 -0.0507532 0)
(7.80096 -0.0308504 0)
(7.64959 -0.0184478 0)
(7.51878 -0.0107328 0)
(7.40542 -0.00595719 0)
(7.30708 -0.00308183 0)
(7.22186 -0.00146802 0)
(7.1479 -0.000667917 0)
(7.08646 -0.00118698 0)
(7.0276 0.00210412 0)
(7.00091 -0.020345 0)
(10.0744 0.265642 0)
(10.1924 0.434364 0)
(10.2331 0.398401 0)
(10.232 0.321256 0)
(10.2109 0.253703 0)
(10.176 0.201351 0)
(10.127 0.16204 0)
(10.0664 0.132976 0)
(9.99818 0.111423 0)
(9.92589 0.0951268 0)
(9.85186 0.0825422 0)
(9.77782 0.0725994 0)
(9.7049 0.0645331 0)
(9.63418 0.0578379 0)
(9.56615 0.0518449 0)
(9.50165 0.0469977 0)
(9.44141 0.0401325 0)
(9.3877 0.039826 0)
(10.0026 0.0614276 0)
(10.0298 0.0474846 0)
(10.0597 0.0057378 0)
(10.0887 -0.00528539 0)
(10.1148 0.00349712 0)
(10.1381 0.0157477 0)
(10.1557 0.0262765 0)
(10.1671 0.0345572 0)
(10.1732 0.04074 0)
(10.1749 0.0450611 0)
(10.1732 0.0478532 0)
(10.1685 0.0494521 0)
(10.1616 0.0501088 0)
(10.1529 0.0499832 0)
(10.143 0.049109 0)
(10.1323 0.0474668 0)
(10.1217 0.0447504 0)
(10.1101 0.0394138 0)
(9.99667 0.00936674 0)
(10.0076 0.0255312 0)
(10.033 0.0385475 0)
(10.0549 0.0550776 0)
(10.0719 0.0676145 0)
(10.0873 0.0732711 0)
(10.1012 0.0743296 0)
(10.1132 0.0733108 0)
(10.1235 0.0714163 0)
(10.1326 0.0691255 0)
(10.1406 0.066657 0)
(10.1477 0.0641385 0)
(10.154 0.0615865 0)
(10.1595 0.0589645 0)
(10.1646 0.0561173 0)
(10.1692 0.0528716 0)
(10.1734 0.0486914 0)
(10.1766 0.0424586 0)
(9.99899 0.00656183 0)
(10.0076 0.0347063 0)
(10.0275 0.0494563 0)
(10.0433 0.0560692 0)
(10.0554 0.0592089 0)
(10.0672 0.0600173 0)
(10.0787 0.0595152 0)
(10.0891 0.0586037 0)
(10.0984 0.0576113 0)
(10.107 0.0565426 0)
(10.1151 0.0553645 0)
(10.1227 0.0540563 0)
(10.1298 0.0525818 0)
(10.1367 0.0508708 0)
(10.1432 0.0487906 0)
(10.1495 0.0461669 0)
(10.1554 0.0426669 0)
(10.1604 0.0380369 0)
(10.0002 0.00923321 0)
(10.0077 0.0334378 0)
(10.0232 0.0443622 0)
(10.0364 0.0485725 0)
(10.0472 0.0518682 0)
(10.0579 0.0542679 0)
(10.0683 0.0553701 0)
(10.0777 0.0555775 0)
(10.0863 0.0552695 0)
(10.0943 0.0545855 0)
(10.1018 0.0535817 0)
(10.1089 0.0523019 0)
(10.1157 0.050757 0)
(10.1222 0.048915 0)
(10.1285 0.0466882 0)
(10.1345 0.0439569 0)
(10.1401 0.040569 0)
(10.145 0.0364473 0)
(10.0004 0.0090288 0)
(10.0067 0.0280734 0)
(10.0193 0.0384 0)
(10.0314 0.0436614 0)
(10.0417 0.0477571 0)
(10.0516 0.050604 0)
(10.0612 0.0518926 0)
(10.07 0.0521141 0)
(10.0781 0.0517487 0)
(10.0857 0.0509944 0)
(10.0928 0.0499245 0)
(10.0996 0.0485816 0)
(10.1061 0.0469796 0)
(10.1122 0.0450913 0)
(10.1182 0.0428561 0)
(10.1238 0.0401956 0)
(10.1289 0.037044 0)
(10.1334 0.0333987 0)
(10.0004 0.00802558 0)
(10.0058 0.0241638 0)
(10.0166 0.0345141 0)
(10.0277 0.0402691 0)
(10.0375 0.0442894 0)
(10.0468 0.0469781 0)
(10.056 0.0482623 0)
(10.0645 0.0485607 0)
(10.0723 0.0482856 0)
(10.0797 0.0476136 0)
(10.0866 0.0466122 0)
(10.0932 0.0453207 0)
(10.0994 0.0437573 0)
(10.1054 0.0419065 0)
(10.111 0.0397326 0)
(10.1163 0.037192 0)
(10.1211 0.0342673 0)
(10.1254 0.0309972 0)
(10.0004 0.00717318 0)
(10.0051 0.0213864 0)
(10.0144 0.0312904 0)
(10.0246 0.0370582 0)
(10.0339 0.0409427 0)
(10.0429 0.0435588 0)
(10.0516 0.0449116 0)
(10.0598 0.0453211 0)
(10.0675 0.0451388 0)
(10.0746 0.0445362 0)
(10.0814 0.0435864 0)
(10.0878 0.0423331 0)
(10.0939 0.0408012 0)
(10.0997 0.0389879 0)
(10.1051 0.036877 0)
(10.1102 0.0344512 0)
(10.1148 0.0317199 0)
(10.1189 0.0287419 0)
(10.0004 0.00635902 0)
(10.0045 0.0187436 0)
(10.0124 0.0278593 0)
(10.0216 0.0334715 0)
(10.0303 0.037231 0)
(10.0388 0.039781 0)
(10.047 0.0411833 0)
(10.0549 0.0416818 0)
(10.0624 0.0415756 0)
(10.0694 0.0410343 0)
(10.076 0.0401364 0)
(10.0822 0.0389299 0)
(10.0882 0.0374453 0)
(10.0938 0.0356926 0)
(10.099 0.0336727 0)
(10.1039 0.0313899 0)
(10.1082 0.0288703 0)
(10.1122 0.0261817 0)
(10.0004 0.00553326 0)
(10.0038 0.0161363 0)
(10.0106 0.0243022 0)
(10.0187 0.0296393 0)
(10.0268 0.0332281 0)
(10.0347 0.0356561 0)
(10.0425 0.0370478 0)
(10.05 0.0375953 0)
(10.0571 0.0375448 0)
(10.0639 0.0370569 0)
(10.0703 0.0362135 0)
(10.0764 0.0350648 0)
(10.0821 0.0336464 0)
(10.0875 0.0319792 0)
(10.0925 0.0300785 0)
(10.0972 0.0279642 0)
(10.1014 0.0256712 0)
(10.1052 0.023268 0)
(10.0003 0.00469085 0)
(10.0033 0.0135907 0)
(10.0089 0.0207021 0)
(10.016 0.025607 0)
(10.0234 0.0289375 0)
(10.0307 0.031179 0)
(10.038 0.0324994 0)
(10.0451 0.0330541 0)
(10.0518 0.0330368 0)
(10.0583 0.0325915 0)
(10.0645 0.031801 0)
(10.0703 0.0307175 0)
(10.0758 0.0293806 0)
(10.081 0.0278198 0)
(10.0858 0.0260609 0)
(10.0902 0.0241331 0)
(10.0943 0.0220739 0)
(10.0979 0.0199475 0)
(10.0003 0.00384996 0)
(10.0027 0.0111242 0)
(10.0075 0.0170993 0)
(10.0136 0.0214065 0)
(10.0203 0.0243747 0)
(10.027 0.0263638 0)
(10.0337 0.0275495 0)
(10.0403 0.0280616 0)
(10.0467 0.0280471 0)
(10.0528 0.0276284 0)
(10.0587 0.0268855 0)
(10.0642 0.0258716 0)
(10.0695 0.0246284 0)
(10.0744 0.0231907 0)
(10.079 0.0215899 0)
(10.0832 0.0198593 0)
(10.0871 0.0180347 0)
(10.0906 0.0161728 0)
(10.0002 0.00302344 0)
(10.0023 0.00873232 0)
(10.0063 0.0135132 0)
(10.0116 0.0170761 0)
(10.0175 0.0195683 0)
(10.0236 0.0212278 0)
(10.0297 0.0222084 0)
(10.0359 0.0226181 0)
(10.0419 0.0225668 0)
(10.0476 0.0221531 0)
(10.0532 0.0214488 0)
(10.0584 0.0205055 0)
(10.0634 0.0193644 0)
(10.0681 0.0180612 0)
(10.0724 0.0166288 0)
(10.0765 0.0150999 0)
(10.0802 0.0135059 0)
(10.0836 0.0118954 0)
(10.0002 0.00221494 0)
(10.0019 0.00639972 0)
(10.0053 0.00994577 0)
(10.0099 0.0126423 0)
(10.0151 0.0145406 0)
(10.0206 0.015781 0)
(10.0262 0.0164792 0)
(10.0319 0.0167202 0)
(10.0375 0.0165845 0)
(10.0429 0.0161463 0)
(10.0481 0.0154653 0)
(10.0531 0.0145871 0)
(10.0578 0.0135492 0)
(10.0622 0.0123845 0)
(10.0664 0.0111232 0)
(10.0702 0.00979431 0)
(10.0738 0.0084231 0)
(10.0771 0.00704982 0)
(10.0002 0.00141912 0)
(10.0016 0.00409831 0)
(10.0045 0.00637104 0)
(10.0085 0.00809693 0)
(10.0131 0.00928515 0)
(10.0181 0.0100088 0)
(10.0233 0.010342 0)
(10.0286 0.010344 0)
(10.0338 0.0100695 0)
(10.0388 0.00956967 0)
(10.0437 0.00888855 0)
(10.0484 0.00806195 0)
(10.0529 0.00712001 0)
(10.0571 0.0060895 0)
(10.0611 0.00499469 0)
(10.0648 0.00385839 0)
(10.0682 0.00269937 0)
(10.0714 0.00154936 0)
(10.0002 0.000620095 0)
(10.0014 0.00177913 0)
(10.004 0.00272764 0)
(10.0075 0.0033869 0)
(10.0117 0.00375408 0)
(10.0163 0.0038603 0)
(10.0211 0.003742 0)
(10.026 0.00343135 0)
(10.0309 0.00295868 0)
(10.0357 0.00235321 0)
(10.0404 0.00164093 0)
(10.0448 0.000844301 0)
(10.0491 -1.72358e-05 0)
(10.0532 -0.000925946 0)
(10.057 -0.00186584 0)
(10.0605 -0.00282179 0)
(10.0639 -0.00378221 0)
(10.067 -0.00472378 0)
(10.0001 -0.00016179 0)
(10.0013 -0.000495332 0)
(10.0037 -0.000868647 0)
(10.0071 -0.00130526 0)
(10.011 -0.00180453 0)
(10.0154 -0.00236323 0)
(10.02 -0.002978 0)
(10.0247 -0.0036432 0)
(10.0294 -0.00435063 0)
(10.0341 -0.00509226 0)
(10.0386 -0.00586073 0)
(10.0429 -0.00664917 0)
(10.047 -0.00745039 0)
(10.051 -0.00825748 0)
(10.0547 -0.0090634 0)
(10.0582 -0.00986147 0)
(10.0615 -0.0106468 0)
(10.0646 -0.011404 0)
(10.0001 -0.000878146 0)
(10.0013 -0.00258599 0)
(10.0037 -0.00418969 0)
(10.0071 -0.00565392 0)
(10.0111 -0.00696544 0)
(10.0154 -0.00814737 0)
(10.02 -0.00922985 0)
(10.0247 -0.0102312 0)
(10.0294 -0.0111632 0)
(10.034 -0.0120374 0)
(10.0384 -0.0128646 0)
(10.0428 -0.0136527 0)
(10.0469 -0.0144067 0)
(10.0508 -0.0151298 0)
(10.0545 -0.0158239 0)
(10.058 -0.0164897 0)
(10.0612 -0.0171285 0)
(10.0643 -0.0177313 0)
(10.0001 -0.00152832 0)
(10.0014 -0.00449888 0)
(10.0039 -0.00724311 0)
(10.0074 -0.00964105 0)
(10.0116 -0.011669 0)
(10.0161 -0.0133946 0)
(10.0208 -0.0148832 0)
(10.0256 -0.0161699 0)
(10.0304 -0.017285 0)
(10.0351 -0.0182622 0)
(10.0396 -0.0191306 0)
(10.044 -0.019911 0)
(10.0481 -0.0206187 0)
(10.0521 -0.0212656 0)
(10.0558 -0.0218613 0)
(10.0593 -0.0224123 0)
(10.0626 -0.0229248 0)
(10.0657 -0.0233945 0)
(10.0002 -0.00213095 0)
(10.0015 -0.00632245 0)
(10.0042 -0.0101874 0)
(10.0081 -0.013441 0)
(10.0126 -0.0160792 0)
(10.0174 -0.0182688 0)
(10.0223 -0.02011 0)
(10.0273 -0.0216369 0)
(10.0323 -0.0228937 0)
(10.0371 -0.0239394 0)
(10.0417 -0.0248225 0)
(10.0462 -0.0255768 0)
(10.0504 -0.0262272 0)
(10.0544 -0.0267947 0)
(10.0582 -0.0272952 0)
(10.0617 -0.0277409 0)
(10.0651 -0.0281411 0)
(10.0682 -0.0284963 0)
(10.0001 -0.00267183 0)
(10.0015 -0.00809206 0)
(10.0046 -0.013133 0)
(10.009 -0.0171849 0)
(10.0139 -0.0203211 0)
(10.019 -0.022879 0)
(10.0243 -0.0249963 0)
(10.0295 -0.0267039 0)
(10.0347 -0.028064 0)
(10.0397 -0.029156 0)
(10.0445 -0.030039 0)
(10.049 -0.0307546 0)
(10.0534 -0.0313373 0)
(10.0574 -0.0318164 0)
(10.0613 -0.0322149 0)
(10.0649 -0.0325493 0)
(10.0683 -0.0328329 0)
(10.0714 -0.0330676 0)
(10.0001 -0.00312149 0)
(10.0014 -0.00983261 0)
(10.0049 -0.0160674 0)
(10.01 -0.0208399 0)
(10.0155 -0.0244634 0)
(10.021 -0.0273862 0)
(10.0265 -0.029703 0)
(10.0321 -0.0314787 0)
(10.0375 -0.0328506 0)
(10.0427 -0.0339327 0)
(10.0476 -0.0347866 0)
(10.0523 -0.035454 0)
(10.0568 -0.0359744 0)
(10.0609 -0.0363821 0)
(10.0648 -0.0367034 0)
(10.0685 -0.036957 0)
(10.072 -0.0371576 0)
(10.0752 -0.0373113 0)
(9.99998 -0.00341825 0)
(10.0011 -0.0119106 0)
(10.0052 -0.0191197 0)
(10.0111 -0.0240846 0)
(10.0171 -0.0280962 0)
(10.023 -0.0315648 0)
(10.0289 -0.0342336 0)
(10.0348 -0.0361259 0)
(10.0405 -0.0374856 0)
(10.0459 -0.0384919 0)
(10.051 -0.0392288 0)
(10.0559 -0.0397538 0)
(10.0605 -0.0401208 0)
(10.0648 -0.0403751 0)
(10.0688 -0.0405485 0)
(10.0726 -0.0406635 0)
(10.0761 -0.0407345 0)
(10.0794 -0.0407614 0)
(9.99968 -0.00290541 0)
(10.0004 -0.0149536 0)
(10.0055 -0.0236387 0)
(10.0121 -0.0278987 0)
(10.0183 -0.0313233 0)
(10.0245 -0.0348085 0)
(10.0311 -0.0377554 0)
(10.0376 -0.0399796 0)
(10.0438 -0.0416489 0)
(10.0496 -0.042902 0)
(10.0551 -0.0438079 0)
(10.0603 -0.0444306 0)
(10.0652 -0.0448374 0)
(10.0698 -0.0450861 0)
(10.074 -0.0452199 0)
(10.078 -0.0452699 0)
(10.0817 -0.0452608 0)
(10.0852 -0.0452023 0)
(9.99821 0.000591662 0)
(9.99708 -0.0155548 0)
(10.0047 -0.02876 0)
(10.0134 -0.0348605 0)
(10.0202 -0.0379056 0)
(10.0269 -0.0398889 0)
(10.0342 -0.0412411 0)
(10.0416 -0.0422584 0)
(10.0486 -0.0431184 0)
(10.0552 -0.0438457 0)
(10.0614 -0.0444208 0)
(10.0673 -0.0448605 0)
(10.0727 -0.0451906 0)
(10.0778 -0.0454418 0)
(10.0825 -0.045632 0)
(10.0869 -0.0457782 0)
(10.091 -0.0458872 0)
(10.0947 -0.0459322 0)
(9.99426 0.00348273 0)
(9.98933 -0.00613942 0)
(10.0009 -0.020708 0)
(10.0149 -0.0364025 0)
(10.0259 -0.0489364 0)
(10.0356 -0.0564448 0)
(10.045 -0.0601399 0)
(10.054 -0.0617536 0)
(10.0624 -0.0622901 0)
(10.0702 -0.0621404 0)
(10.0775 -0.0615472 0)
(10.0843 -0.0606805 0)
(10.0906 -0.059685 0)
(10.0964 -0.0586427 0)
(10.1017 -0.0576206 0)
(10.1065 -0.0566498 0)
(10.111 -0.0557585 0)
(10.1151 -0.0548986 0)
(9.99386 -0.0267392 0)
(9.99317 -0.0111624 0)
(10.005 0.0200666 0)
(10.0223 0.0291672 0)
(10.0408 0.0216023 0)
(10.0596 0.00984477 0)
(10.0771 -0.00113877 0)
(10.0924 -0.0107675 0)
(10.1057 -0.019002 0)
(10.1171 -0.0258358 0)
(10.1268 -0.0313313 0)
(10.135 -0.0356963 0)
(10.1417 -0.0391206 0)
(10.147 -0.041797 0)
(10.1511 -0.0438766 0)
(10.1541 -0.0455124 0)
(10.1562 -0.0468241 0)
(10.1574 -0.0479125 0)
(10.0315 -0.194356 0)
(10.095 -0.34288 0)
(10.1268 -0.33327 0)
(10.1423 -0.283865 0)
(10.1578 -0.237712 0)
(10.1738 -0.20003 0)
(10.1851 -0.169842 0)
(10.1889 -0.146073 0)
(10.1858 -0.127499 0)
(10.1766 -0.112816 0)
(10.1625 -0.101051 0)
(10.1443 -0.0914988 0)
(10.1229 -0.083675 0)
(10.099 -0.0771995 0)
(10.0734 -0.0718131 0)
(10.0467 -0.0673455 0)
(10.0192 -0.0636545 0)
(9.99167 -0.0610115 0)
(9.93978 0.728687 0)
(9.86951 0.713945 0)
(9.75686 0.510155 0)
(9.59843 0.343059 0)
(9.42177 0.226247 0)
(9.24554 0.14734 0)
(9.07608 0.0943754 0)
(8.91593 0.05855 0)
(8.76682 0.0341368 0)
(8.62956 0.0174838 0)
(8.50398 0.00619291 0)
(8.38945 -0.00138064 0)
(8.28515 -0.00634037 0)
(8.19028 -0.00953844 0)
(8.1039 -0.011498 0)
(8.02518 -0.0126175 0)
(7.95295 -0.0132269 0)
(7.88687 -0.0138739 0)
(0.00604106 -0.0122429 0)
(0.0196356 -0.0216856 0)
(0.0341957 -0.0232078 0)
(0.0470909 -0.0198895 0)
(0.0559856 -0.0141101 0)
(0.0604217 -0.00753772 0)
(0.0604527 -0.00126938 -4.35188e-19)
(0.0566473 0.00396054 4.34216e-19)
(0.0499454 0.00787047 0)
(0.0410553 0.010599 4.5541e-19)
(0.0305713 0.0124754 0)
(0.0189291 0.0138145 0)
(0.00638105 0.0147864 0)
(-0.00693735 0.0153811 -5.1291e-19)
(-0.0210655 0.0157466 0)
(-0.0360932 0.0161503 0)
(-0.0520954 0.0166993 3.895e-19)
(-0.069176 0.0174195 0)
(-0.0874368 0.018305 0)
(-0.106968 0.0193357 0)
(-0.127842 0.0204862 -2.79355e-19)
(-0.150107 0.0217252 0)
(-0.173788 0.0230203 -2.39241e-19)
(-0.198885 0.0243371 0)
(-0.225372 0.0256443 0)
(-0.253208 0.0269139 -1.92425e-19)
(-0.282329 0.0281261 0)
(-0.31266 0.0292552 1.68263e-19)
(-0.344115 0.0302783 0)
(-0.376594 0.0311816 -1.48561e-19)
(-0.409995 0.0319614 0)
(-0.444209 0.0326135 0)
(-0.47913 0.0331398 0)
(-0.514655 0.0335399 0)
(-0.550686 0.0338172 0)
(-0.587134 0.0339766 1.08286e-19)
(-0.623919 0.0340297 0)
(-0.660967 0.0339912 -1.98339e-19)
(-0.698213 0.0338863 0)
(-0.7356 0.0337387 1.83031e-19)
(-0.773078 0.0335751 0)
(-0.810619 0.0334218 0)
(-0.848285 0.033281 -1.64119e-19)
(-0.886048 0.0331368 0)
(-0.923904 0.0329936 -1.53645e-19)
(-0.96185 0.0328472 1.4893e-19)
(-0.99988 0.0326996 0)
(-1.03799 0.0325489 1.40385e-19)
(-1.07617 0.0323964 1.36501e-19)
(-1.11442 0.0322397 0)
(-1.15273 0.0320799 0)
(-1.19109 0.0319148 0)
(-1.22949 0.0317451 0)
(-1.26792 0.0315674 0)
(-1.30637 0.0313829 -1.17375e-19)
(-1.34483 0.0311881 0)
(-1.38327 0.0309836 1.12242e-19)
(-1.42168 0.0307656 0)
(-1.46003 0.0305348 0)
(-1.49832 0.0302877 -1.05411e-19)
(-1.53652 0.0300252 0)
(-1.57459 0.0297439 1.01348e-19)
(-1.61252 0.029445 0)
(-1.65027 0.0291251 0)
(-1.68781 0.0287857 0)
(-1.7251 0.0284232 -9.41767e-20)
(-1.76212 0.0280395 0)
(-1.79883 0.0276308 0)
(-1.83518 0.0271993 -8.94817e-20)
(-1.87115 0.0267412 0)
(-1.90668 0.0262589 -8.66158e-20)
(-1.94173 0.0257489 0)
(-1.97626 0.0252136 0)
(-2.01023 0.0246497 0)
(-2.04359 0.0240601 8.13975e-20)
(-2.07629 0.0234413 0)
(-2.10827 0.0227965 0)
(-2.1395 0.0221222 7.78413e-20)
(-2.16992 0.0214215 7.67102e-20)
(-2.19947 0.0206908 0)
(-2.2281 0.0199331 7.45144e-20)
(-2.25577 0.0191448 0)
(-2.28242 0.0183282 1.44785e-19)
(-2.30798 0.0174792 0)
(-2.33242 0.0165993 1.40653e-19)
(-2.35566 0.0156834 0)
(-2.37765 0.0147315 -1.36602e-19)
(-2.39833 0.0137362 0)
(-2.41763 0.0126937 0)
(-2.43548 0.011595 0)
(-2.45182 0.0104302 1.28612e-19)
(-2.46657 0.00919154 0)
(-2.47965 0.00787539 -1.24617e-19)
(-2.49097 0.00648625 0)
(-2.50041 0.00504628 1.20605e-19)
(-2.50785 0.00359984 1.18594e-19)
(-2.51314 0.00220214 1.16577e-19)
(-2.51616 0.000898695 0)
(-2.51712 -0.000286513 0)
(-2.51628 -0.00140352 0)
(-2.5136 -0.00250992 0)
(-2.50907 -0.0036199 0)
(-2.50269 -0.00473699 0)
(-2.49443 -0.00586319 0)
(-2.48427 -0.00699635 0)
(-2.4722 -0.00813486 -9.59378e-20)
(-2.4582 -0.00927554 -9.33172e-20)
(-2.44228 -0.0104171 0)
(-2.42442 -0.0115568 0)
(-2.40462 -0.0126922 0)
(-2.38291 -0.0138203 -8.19741e-20)
(-2.35929 -0.0149378 0)
(-2.33378 -0.0160416 0)
(-2.30641 -0.0171274 0)
(-2.27722 -0.0181923 0)
(-2.24624 -0.019231 6.55381e-20)
(-2.21353 -0.0202408 0)
(-2.17914 -0.0212155 0)
(-2.14314 -0.022153 -5.42918e-20)
(-2.10559 -0.0230459 5.02947e-20)
(-2.06657 -0.0238919 0)
(-2.02617 -0.0246845 4.19155e-20)
(-1.98447 -0.02543 0)
(-1.94156 -0.0261203 -3.30148e-20)
(-1.89754 -0.0267493 0)
(-1.8525 -0.02732 0)
(-1.80655 -0.0278322 0)
(-1.7598 -0.0282735 0)
(-1.71235 -0.0286483 0)
(-1.66431 -0.0289565 6.43174e-21)
(-1.6158 -0.0291953 -4.38026e-21)
(-1.56691 -0.0293638 0)
(-1.51776 -0.0294635 0)
(-1.46847 -0.0294922 0)
(-1.41914 -0.029449 4.9966e-20)
(-1.36988 -0.0293314 0)
(-1.3208 -0.0291408 0)
(-1.27202 -0.0288808 0)
(-1.22364 -0.0285558 9.88981e-20)
(-1.17577 -0.0281678 -1.11577e-19)
(-1.12847 -0.027713 0)
(-1.08185 -0.027191 0)
(-1.03596 -0.0265984 -1.50481e-19)
(-0.990881 -0.0259427 -1.63694e-19)
(-0.946679 -0.0252221 0)
(-0.903398 -0.0244463 0)
(-0.861071 -0.0236111 2.03873e-19)
(-0.819742 -0.022733 -2.17393e-19)
(-0.779467 -0.0218193 0)
(-0.740278 -0.0208892 0)
(-0.702179 -0.0199463 -2.58051e-19)
(-0.665147 -0.0189963 0)
(-0.629142 -0.0180473 0)
(-0.594111 -0.017108 -2.98639e-19)
(-0.559995 -0.0161804 0)
(-0.526709 -0.0152824 -3.25652e-19)
(-0.494149 -0.014424 0)
(-0.462195 -0.0136134 0)
(-0.430713 -0.0128641 0)
(-0.399536 -0.0121985 3.80087e-19)
(-0.368497 -0.0116202 0)
(-0.33739 -0.0111564 0)
(-0.305996 -0.0108303 0)
(-0.274066 -0.0106652 0)
(-0.241347 -0.0106754 0)
(-0.207593 -0.0108748 0)
(-0.172487 -0.0113109 4.91709e-19)
(-0.135692 -0.012054 5.12357e-19)
(-0.0969883 -0.0131212 0)
(-0.0562635 -0.0144557 0)
(-0.0130901 -0.0159275 0)
(0.0315439 -0.0170345 -5.99952e-19)
(0.0779446 -0.0179046 0)
(0.127842 -0.0190332 1.14215e-18)
(0.181556 -0.020326 -1.11213e-18)
(0.239101 -0.0216284 -1.08342e-18)
(0.300819 -0.0226522 1.05756e-18)
(0.362134 -0.0228196 -1.03642e-18)
(0.432665 -0.0205118 1.02525e-18)
(0.450928 -0.00274831 0)
(0.00771773 -0.0414623 0)
(0.0179125 -0.0477315 0)
(0.0224045 -0.038539 4.88326e-19)
(0.0231359 -0.0262387 0)
(0.0209093 -0.0134257 -3.26392e-19)
(0.0161343 -0.00117756 -3.02788e-19)
(0.00923978 0.00979758 -1.45315e-19)
(0.00035256 0.0190544 -1.41435e-19)
(-0.0105567 0.026472 0)
(-0.0234312 0.0322407 -1.32056e-19)
(-0.0381844 0.0367137 0)
(-0.0547106 0.0402816 0)
(-0.0729192 0.0432859 2.36304e-19)
(-0.0926918 0.0459887 1.13986e-19)
(-0.113882 0.0485958 -2.19648e-19)
(-0.136418 0.051257 -2.11797e-19)
(-0.160281 0.054051 -1.02182e-19)
(-0.185446 0.0569946 0)
(-0.211879 0.0600628 0)
(-0.239538 0.0632071 0)
(-0.26837 0.0663689 -8.7564e-20)
(-0.298304 0.0694859 0)
(-0.329261 0.072499 2.43173e-19)
(-0.361148 0.0753535 0)
(-0.393869 0.0780038 0)
(-0.427321 0.0804136 7.20577e-20)
(-0.461401 0.0825606 0)
(-0.496005 0.0844343 -6.66914e-20)
(-0.531037 0.0860281 -1.28257e-19)
(-0.566412 0.0873351 6.18879e-20)
(-0.602048 0.0883546 0)
(-0.637871 0.0891003 0)
(-0.673819 0.0895935 0)
(-0.709836 0.0898576 -1.07636e-19)
(-0.74588 0.0899179 -1.04229e-19)
(-0.78192 0.0897985 -5.05914e-20)
(-0.817935 0.0895273 0)
(-0.853919 0.0891299 9.5356e-20)
(-0.88987 0.0886363 0)
(-0.925788 0.0880778 -9.0241e-20)
(-0.961672 0.087487 0)
(-0.997513 0.0868879 0)
(-1.0333 0.0862885 8.36446e-20)
(-1.06903 0.0856843 0)
(-1.1047 0.0850762 2.39158e-19)
(-1.14029 0.0844625 -7.80586e-20)
(-1.17581 0.0838439 0)
(-1.21126 0.083218 -7.47837e-20)
(-1.24662 0.0825848 -7.32609e-20)
(-1.2819 0.0819406 0)
(-1.31708 0.0812852 0)
(-1.35217 0.0806147 0)
(-1.38714 0.0799281 0)
(-1.42199 0.0792208 0)
(-1.4567 0.078492 6.54129e-20)
(-1.49126 0.0777371 1.28253e-19)
(-1.52565 0.0769547 -6.31936e-20)
(-1.55985 0.0761399 0)
(-1.59385 0.0752915 1.21956e-19)
(-1.62761 0.0744047 -5.98484e-20)
(-1.66113 0.0734791 0)
(-1.69437 0.0725103 -5.82891e-20)
(-1.72732 0.0714983 0)
(-1.75993 0.070439 0)
(-1.79219 0.0693329 -1.11112e-19)
(-1.82406 0.0681761 5.48854e-20)
(-1.85551 0.0669693 -1.07903e-19)
(-1.88651 0.0657087 1.0636e-19)
(-1.91702 0.0643956 5.2562e-20)
(-1.94702 0.0630264 0)
(-1.97646 0.0616028 5.11e-20)
(-2.00531 0.0601214 0)
(-2.03353 0.0585845 0)
(-2.06108 0.056989 0)
(-2.08792 0.0553377 4.81033e-20)
(-2.11402 0.0536277 0)
(-2.13933 0.0518623 9.38165e-20)
(-2.1638 0.0500388 -1.38897e-19)
(-2.18741 0.0481606 -4.5727e-20)
(-2.21009 0.046225 0)
(-2.23182 0.0442355 -4.44562e-20)
(-2.25254 0.0421893 0)
(-2.27221 0.0400901 -8.63939e-20)
(-2.29079 0.0379351 0)
(-2.30824 0.0357283 -8.38825e-20)
(-2.32451 0.0334671 1.64984e-19)
(-2.33955 0.0311554 8.13621e-20)
(-2.35332 0.0287908 0)
(-2.36578 0.0263747 0)
(-2.37687 0.023904 0)
(-2.38657 0.0213735 -7.62282e-20)
(-2.39486 0.0187783 0)
(-2.40169 0.0161125 7.3585e-20)
(-2.40707 0.013371 0)
(-2.41099 0.0105562 -2.12645e-19)
(-2.41351 0.00769303 -6.95083e-20)
(-2.41472 0.00484135 -6.81123e-20)
(-2.41469 0.00207827 0)
(-2.41326 -0.000568177 0)
(-2.41016 -0.00314503 0)
(-2.40531 -0.00569539 0)
(-2.39869 -0.00823318 0)
(-2.39026 -0.0107596 -1.18185e-19)
(-2.37999 -0.0132736 -1.14961e-19)
(-2.36787 -0.0157704 0)
(-2.35388 -0.0182456 5.39637e-20)
(-2.33802 -0.0206927 5.22249e-20)
(-2.32027 -0.023106 0)
(-2.30064 -0.0254785 9.77772e-20)
(-2.27913 -0.0278038 0)
(-2.25576 -0.030075 -4.54844e-20)
(-2.23054 -0.0322849 0)
(-2.20349 -0.0344269 0)
(-2.17465 -0.0364933 7.86456e-20)
(-2.14406 -0.0384778 0)
(-2.11174 -0.0403724 -3.47968e-20)
(-2.07777 -0.0421713 0)
(-2.04219 -0.0438664 0)
(-2.00506 -0.0454528 -2.92138e-20)
(-1.96647 -0.0469222 -2.60064e-20)
(-1.92649 -0.0482711 0)
(-1.8852 -0.0494927 2.24586e-20)
(-1.8427 -0.0505876 0)
(-1.79908 -0.0515542 -1.7781e-20)
(-1.75443 -0.0523969 -2.96348e-20)
(-1.70887 -0.0531038 0)
(-1.6625 -0.0536677 0)
(-1.6154 -0.0540983 0)
(-1.56771 -0.0544044 0)
(-1.51952 -0.0545777 -3.7777e-21)
(-1.47094 -0.0546216 1.16924e-21)
(-1.42208 -0.0545373 0)
(-1.37304 -0.0543307 0)
(-1.32393 -0.0540037 0)
(-1.27487 -0.0535605 -2.12874e-20)
(-1.22595 -0.0530014 0)
(-1.17727 -0.0523326 0)
(-1.12894 -0.0515615 6.97603e-20)
(-1.08106 -0.0507 3.85397e-20)
(-1.03372 -0.0497557 4.57977e-20)
(-0.986991 -0.048732 0)
(-0.940955 -0.0476318 0)
(-0.895672 -0.0464567 5.98441e-20)
(-0.8512 -0.0452175 -6.2204e-20)
(-0.80759 -0.04392 0)
(-0.764877 -0.0425756 0)
(-0.723087 -0.0411913 -7.74005e-20)
(-0.682244 -0.0397849 2.42767e-19)
(-0.642379 -0.0383773 0)
(-0.603507 -0.0369909 0)
(-0.565618 -0.0356468 9.31993e-20)
(-0.528677 -0.0343516 0)
(-0.492628 -0.0331178 1.99291e-19)
(-0.457406 -0.0319542 -1.02434e-19)
(-0.42293 -0.0308787 0)
(-0.389096 -0.0299021 1.09869e-19)
(-0.355785 -0.0290442 2.24633e-19)
(-0.322852 -0.0283141 0)
(-0.290135 -0.0277329 0)
(-0.257448 -0.0273197 -1.20435e-19)
(-0.224578 -0.0270888 0)
(-0.191285 -0.0270443 2.49473e-19)
(-0.157317 -0.0272111 0)
(-0.122387 -0.0276111 0)
(-0.0861923 -0.028265 0)
(-0.0484172 -0.0291704 0)
(-0.00871934 -0.0303325 -1.34593e-19)
(0.0329799 -0.0316408 -1.35501e-19)
(0.0770165 -0.0330621 0)
(0.123976 -0.0346518 0)
(0.174396 -0.0363302 0)
(0.228857 -0.0381425 1.33571e-19)
(0.287613 -0.0403253 0)
(0.350514 -0.0428403 -2.67458e-19)
(0.417429 -0.0454235 2.68413e-19)
(0.487984 -0.0477859 2.69886e-19)
(0.56191 -0.0493973 2.70276e-19)
(0.635802 -0.0494079 2.75384e-19)
(0.714483 -0.044478 2.78932e-19)
(0.765158 -0.0240728 0)
(0.00306785 -0.060254 0)
(0.0039686 -0.0519805 0)
(0.000164667 -0.0334731 -3.43875e-19)
(-0.00628518 -0.0153428 -2.49817e-19)
(-0.0146443 0.00148287 2.04915e-19)
(-0.0245174 0.0168408 1.79931e-19)
(-0.0357312 0.0306116 5.63884e-23)
(-0.0482722 0.042705 0)
(-0.0622066 0.0531074 0)
(-0.0776126 0.0619303 0)
(-0.0945427 0.0694051 0)
(-0.113009 0.0758324 0)
(-0.132981 0.0815216 -3.90447e-19)
(-0.154397 0.0867505 0)
(-0.177168 0.0917298 1.23021e-19)
(-0.201196 0.0965909 1.1955e-19)
(-0.226379 0.101402 0)
(-0.25261 0.106176 0)
(-0.279783 0.110886 0)
(-0.307792 0.115479 0)
(-0.336534 0.119894 1.02906e-19)
(-0.365906 0.124067 0)
(-0.395814 0.12794 -9.66556e-20)
(-0.426164 0.131463 0)
(-0.456875 0.1346 0)
(-0.487872 0.137326 0)
(-0.519089 0.139626 -1.70364e-19)
(-0.550467 0.141496 0)
(-0.581952 0.142949 8.01488e-20)
(-0.613498 0.144004 -1.55344e-19)
(-0.645078 0.144692 0)
(-0.676677 0.145042 0)
(-0.708283 0.14509 0)
(-0.739889 0.144874 6.92188e-20)
(-0.771494 0.14443 6.73623e-20)
(-0.803096 0.143797 0)
(-0.834701 0.143009 0)
(-0.866314 0.142101 -1.24607e-19)
(-0.89794 0.141105 -1.2162e-19)
(-0.92958 0.140049 1.18787e-19)
(-0.961232 0.138957 0)
(-0.99289 0.137846 0)
(-1.02455 0.136725 0)
(-1.05619 0.135597 0)
(-1.08783 0.134463 -1.06693e-19)
(-1.11945 0.133324 -1.04415e-19)
(-1.15104 0.132178 1.02382e-19)
(-1.18261 0.131024 0)
(-1.21414 0.129858 0)
(-1.24564 0.128678 0)
(-1.27708 0.127479 0)
(-1.30847 0.126257 -9.33731e-20)
(-1.33979 0.125009 0)
(-1.37103 0.123729 0)
(-1.40217 0.122414 -8.87256e-20)
(-1.43321 0.121058 -8.74546e-20)
(-1.46412 0.119658 0)
(-1.49489 0.118209 1.69045e-19)
(-1.5255 0.116706 -8.33815e-20)
(-1.55592 0.115145 8.21028e-20)
(-1.58615 0.113523 0)
(-1.61615 0.111837 0)
(-1.64589 0.110083 0)
(-1.67537 0.108258 0)
(-1.70454 0.10636 7.61971e-20)
(-1.73338 0.104387 1.49865e-19)
(-1.76187 0.102337 7.4025e-20)
(-1.78996 0.100206 -7.29724e-20)
(-1.81763 0.0979952 0)
(-1.84484 0.0957013 1.41538e-19)
(-1.87157 0.0933243 1.3955e-19)
(-1.89777 0.0908625 1.37594e-19)
(-1.92342 0.0883162 -1.35665e-19)
(-1.94846 0.0856843 0)
(-1.97288 0.0829678 -1.97961e-19)
(-1.99662 0.0801659 0)
(-2.01965 0.0772801 6.39609e-20)
(-2.04192 0.0743101 6.32978e-20)
(-2.0634 0.0712575 0)
(-2.08405 0.0681223 0)
(-2.10381 0.0649063 1.20923e-19)
(-2.12266 0.0616095 0)
(-2.14055 0.0582341 1.1733e-19)
(-2.15743 0.0547802 0)
(-2.17326 0.0512506 -1.13735e-19)
(-2.18801 0.0476458 -2.24005e-19)
(-2.20163 0.0439691 0)
(-2.21408 0.0402218 0)
(-2.22531 0.036407 0)
(-2.23529 0.0325265 -1.04611e-19)
(-2.24399 0.0285828 0)
(-2.25138 0.0245813 -1.00863e-19)
(-2.25745 0.020531 0)
(-2.26216 0.0164469 0)
(-2.26551 0.0123499 1.90192e-19)
(-2.26747 0.00826601 0)
(-2.268 0.00421152 9.1111e-20)
(-2.26703 0.000173931 0)
(-2.26449 -0.00386951 8.68972e-20)
(-2.26032 -0.00791748 0)
(-2.25446 -0.0119609 0)
(-2.24689 -0.0159933 0)
(-2.23757 -0.0200085 2.34102e-19)
(-2.22649 -0.0239989 7.55918e-20)
(-2.21361 -0.0279563 0)
(-2.19894 -0.0318714 0)
(-2.18246 -0.0357344 0)
(-2.16416 -0.039535 0)
(-2.14404 -0.0432626 -6.3438e-20)
(-2.12212 -0.0469063 1.22522e-19)
(-2.09841 -0.0504547 5.82912e-20)
(-2.07292 -0.0538968 -1.1217e-19)
(-2.04567 -0.0572211 -1.06872e-19)
(-2.0167 -0.0604164 -5.02654e-20)
(-1.98605 -0.0634711 0)
(-1.95375 -0.0663747 -9.05053e-20)
(-1.91987 -0.0691158 0)
(-1.88445 -0.0716844 7.92231e-20)
(-1.84756 -0.0740704 3.61348e-20)
(-1.80928 -0.0762645 0)
(-1.76968 -0.0782584 -6.18156e-20)
(-1.72884 -0.0800452 -2.72828e-20)
(-1.68686 -0.0816205 0)
(-1.64383 -0.0829816 -2.26779e-20)
(-1.59985 -0.0841348 5.61601e-20)
(-1.55502 -0.0850803 0)
(-1.50944 -0.0858004 0)
(-1.46321 -0.0863001 0)
(-1.41644 -0.0865974 0)
(-1.36923 -0.0866904 7.61866e-21)
(-1.32168 -0.0865808 3.89902e-23)
(-1.2739 -0.0862735 0)
(-1.22599 -0.0857757 0)
(-1.17805 -0.0850932 0)
(-1.13018 -0.0842331 0)
(-1.08247 -0.0832007 0)
(-1.03503 -0.0820059 0)
(-0.987943 -0.0806613 -4.0934e-20)
(-0.941295 -0.0791827 -1.46922e-21)
(-0.895174 -0.0775827 0)
(-0.849651 -0.0758706 0)
(-0.804788 -0.074053 -6.12127e-20)
(-0.76064 -0.0721388 0)
(-0.717254 -0.0701414 7.2751e-20)
(-0.674669 -0.0680746 7.63906e-20)
(-0.632911 -0.0659523 0)
(-0.591997 -0.0637923 0)
(-0.551941 -0.0616169 -9.14937e-20)
(-0.512755 -0.0594569 -1.89548e-19)
(-0.47444 -0.0573416 0)
(-0.436974 -0.0552992 0)
(-0.400312 -0.0533444 0)
(-0.364391 -0.0514969 -1.11457e-19)
(-0.329135 -0.0497713 1.14935e-19)
(-0.294449 -0.0481931 0)
(-0.260221 -0.0467807 2.41536e-19)
(-0.226321 -0.0455603 1.23253e-19)
(-0.192595 -0.0445483 -2.53152e-19)
(-0.158867 -0.0437731 0)
(-0.124941 -0.0432609 0)
(-0.0905941 -0.0430382 -2.67812e-19)
(-0.0555754 -0.0431165 -1.362e-19)
(-0.019621 -0.0435217 0)
(0.0175387 -0.0442659 0)
(0.0561483 -0.0453467 0)
(0.0965764 -0.0467744 0)
(0.139219 -0.0485559 -2.81736e-19)
(0.184446 -0.0506955 0)
(0.232656 -0.0532315 0)
(0.284194 -0.0561275 0)
(0.339438 -0.0593041 0)
(0.398768 -0.0627554 0)
(0.462374 -0.0665362 0)
(0.530152 -0.0705357 -2.85445e-19)
(0.601929 -0.0744788 0)
(0.677254 -0.0779634 0)
(0.755759 -0.080285 -5.90126e-19)
(0.834853 -0.0802665 2.99353e-19)
(0.918467 -0.074507 -3.0819e-19)
(0.986777 -0.0550947 3.16544e-19)
(-0.00327815 -0.0584457 0)
(-0.00972997 -0.0387139 9.36547e-19)
(-0.0189285 -0.0156367 0)
(-0.0300731 0.00548208 1.88699e-19)
(-0.0423708 0.0246679 0)
(-0.0554963 0.0421343 0)
(-0.0694362 0.0579651 -1.2176e-19)
(-0.0842585 0.0721844 0)
(-0.100054 0.0848363 0)
(-0.116915 0.0960258 0)
(-0.134914 0.105923 0)
(-0.154087 0.114744 0)
(-0.174427 0.122714 3.81948e-19)
(-0.195886 0.130041 1.85777e-19)
(-0.21839 0.136889 -1.80774e-19)
(-0.24184 0.143371 0)
(-0.266127 0.149548 0)
(-0.291137 0.155437 0)
(-0.31676 0.161023 0)
(-0.342892 0.166272 0)
(-0.369436 0.171141 1.52476e-19)
(-0.396309 0.175588 1.4806e-19)
(-0.423436 0.179575 -1.43755e-19)
(-0.450754 0.183078 1.39568e-19)
(-0.478211 0.186082 0)
(-0.505766 0.188582 0)
(-0.533386 0.190584 1.27802e-19)
(-0.561048 0.192104 0)
(-0.58874 0.193168 0)
(-0.616458 0.193812 1.17376e-19)
(-0.644202 0.194079 1.14209e-19)
(-0.671973 0.194011 1.11212e-19)
(-0.699776 0.19365 0)
(-0.727616 0.193037 0)
(-0.755501 0.19221 -1.03051e-19)
(-0.783438 0.191209 0)
(-0.811433 0.190068 0)
(-0.839491 0.188819 9.6051e-20)
(-0.867614 0.187487 -9.3852e-20)
(-0.895802 0.186096 9.18181e-20)
(-0.924052 0.184665 0)
(-0.952359 0.183207 0)
(-0.980715 0.181732 1.72555e-19)
(-1.00911 0.180243 0)
(-1.03755 0.178743 1.65848e-19)
(-1.06602 0.177233 2.44109e-19)
(-1.09451 0.175711 -2.39574e-19)
(-1.12303 0.174175 1.56763e-19)
(-1.15155 0.17262 0)
(-1.18008 0.171042 0)
(-1.2086 0.169437 1.48662e-19)
(-1.2371 0.167798 7.31498e-20)
(-1.26557 0.16612 0)
(-1.29401 0.164398 0)
(-1.32238 0.162625 6.96262e-20)
(-1.35069 0.160796 1.36888e-19)
(-1.37891 0.158904 0)
(-1.40703 0.156945 -1.32829e-19)
(-1.43502 0.154913 1.30646e-19)
(-1.46287 0.152802 -1.28678e-19)
(-1.49055 0.150608 0)
(-1.51805 0.148326 0)