/*--------------------------------*- C++ -*----------------------------------*\
| =========                 |                                                 |
| \\      /  F ield         | OpenFOAM: The Open Source CFD Toolbox           |
|  \\    /   O peration     | Version:  4.1                                   |
|   \\  /    A nd           | Web:      www.OpenFOAM.org                      |
|    \\/     M anipulation  |                                                 |
\*---------------------------------------------------------------------------*/
FoamFile
{
    version     2.0;
    format      ascii;
    class       volScalarField;
    location    "19";
    object      p;
}
// * * * * * * * * * * * * * * * * * * * * * * * * * * * * * * * * * * * * * //

dimensions      [0 2 -2 0 0 0 0];

internalField   nonuniform List<scalar> 
26785
(
15.676
16.3671
17.1125
17.7576
18.2337
18.7021
19.0517
19.2605
19.5093
19.7891
20.1643
20.7481
21.3655
22.2845
22.8007
23.2325
23.4808
23.4751
23.8677
24.2871
25.0016
26.2944
27.8905
29.4997
31.0379
32.4643
33.8025
34.8142
35.5383
35.931
36.0169
35.5832
34.6033
32.916
30.5922
27.7498
24.7017
21.6562
18.8015
16.2719
14.1571
12.4944
11.2713
10.4443
9.94583
9.69896
9.58846
9.49232
9.60877
9.70673
9.89727
10.0017
10.0954
10.0859
10.0334
9.91561
9.75867
9.57061
9.35612
9.13614
8.90566
8.68725
8.47032
8.27158
8.08089
7.91005
7.75093
7.61038
7.48314
7.37329
7.27435
7.18572
7.101
7.02001
6.93773
6.85372
6.76313
6.66556
6.5562
6.43606
6.30118
6.15336
5.98906
5.80994
5.61292
5.39976
5.16777
4.91827
4.64894
4.36074
4.05151
3.72156
3.36867
2.99258
2.59144
2.16553
1.71463
1.24296
0.740847
0.260243
15.6606
16.3671
17.1154
17.7582
18.2344
18.7031
19.0517
19.2601
19.5085
19.7881
20.1633
20.7467
21.3635
22.2813
22.8014
23.2373
23.482
23.4748
23.8666
24.2791
24.9902
26.2877
27.8886
29.4956
31.0362
32.471
33.8124
34.8238
35.5492
35.9496
36.0404
35.6092
34.6329
32.9439
30.6117
27.7564
24.6951
21.6379
18.7743
16.2393
14.1231
12.4625
11.2439
10.4227
9.93026
9.68924
9.58362
9.49007
9.61122
9.71126
9.90441
10.009
10.103
10.0926
10.039
9.91991
9.76138
9.57226
9.35653
9.13593
8.90461
8.68593
8.46852
8.26974
8.07884
7.90806
7.74887
7.60851
7.4815
7.37215
7.27376
7.18577
7.10163
7.02125
6.93949
6.85594
6.76566
6.66836
6.55917
6.43924
6.30456
6.15698
5.99289
5.81396
5.61706
5.404
5.17208
4.92268
4.65349
4.36549
4.05654
3.72692
3.37437
2.99856
2.59757
2.1714
1.72072
1.24686
0.764881
0.238847
15.6313
16.3681
17.1214
17.7594
18.236
18.7057
19.0527
19.2597
19.5065
19.7854
20.1607
20.7442
21.3607
22.2757
22.8047
23.2489
23.4859
23.4739
23.862
24.2591
24.9625
26.2717
27.8845
29.4864
31.0305
32.4831
33.8322
34.8433
35.5717
35.9892
36.0922
35.6687
34.7012
33.0104
30.6615
27.7798
24.6901
21.6066
18.7218
16.1728
14.0507
12.392
11.1809
10.3702
9.88938
9.65988
9.56396
9.4771
9.60794
9.71375
9.9128
10.0194
10.1146
10.1037
10.0488
9.92786
9.76693
9.57612
9.35843
9.13674
8.90404
8.6848
8.46659
8.26761
8.07625
7.90536
7.74588
7.6056
7.47882
7.37009
7.2724
7.18528
7.10198
7.0225
6.9415
6.85861
6.76878
6.67183
6.56288
6.44327
6.30895
6.16183
5.99817
5.81965
5.62306
5.41026
5.17853
4.92934
4.6604
4.37275
4.06426
3.73518
3.3832
3.00784
2.60712
2.18074
1.72957
1.25419
0.774861
0.246541
15.5918
16.3731
17.1308
17.7617
18.2393
18.71
19.0545
19.2586
19.5031
19.7814
20.1573
20.7417
21.3574
22.2681
22.811
23.2688
23.4929
23.4723
23.8518
24.2233
24.9175
26.2495
27.8833
29.4773
31.0257
32.5038
33.8612
34.8707
35.6026
36.0457
36.1652
35.7521
34.7966
33.1022
30.7286
27.8109
24.6832
21.5657
18.6529
16.0855
13.9564
12.3012
11.101
10.3053
9.84031
9.62576
9.54201
9.46501
9.60585
9.71858
9.92191
10.0301
10.1246
10.1124
10.0548
9.93144
9.76752
9.57485
9.35538
9.13277
8.89928
8.67985
8.46152
8.26274
8.07152
7.90085
7.74155
7.60165
7.47537
7.36734
7.27036
7.18399
7.10141
7.02267
6.94233
6.85994
6.77041
6.67358
6.56471
6.4452
6.31114
6.1643
6.00098
5.82266
5.6262
5.41334
5.18151
4.93209
4.66302
4.37525
4.0668
3.7378
3.38596
3.01067
2.60979
2.18315
1.7302
1.25524
0.757326
0.268019
15.5454
16.3853
17.1446
17.7657
18.2444
18.7159
19.0567
19.2569
19.4982
19.7752
20.1517
20.7376
21.3531
22.2577
22.8208
23.2954
23.5031
23.4702
23.8342
24.1682
24.8513
26.2179
27.8835
29.472
31.0286
32.5371
33.8978
34.9007
35.6333
36.106
36.2426
35.8413
34.8959
33.1957
30.7971
27.848
24.6893
21.5461
18.6122
16.0316
13.8981
12.247
11.0563
10.2724
9.81921
9.61425
9.5375
9.46766
9.61205
9.72864
9.93107
10.0388
10.1295
10.115
10.0537
9.92793
9.76144
9.56738
9.34703
9.1241
8.89087
8.67183
8.45438
8.25638
8.06614
7.89619
7.73772
7.59861
7.4733
7.36615
7.27008
7.18449
7.10277
7.02482
6.94518
6.8633
6.77406
6.67728
6.56846
6.44899
6.31517
6.1686
6.00563
5.8275
5.63118
5.41823
5.18626
4.9366
4.66738
4.37954
4.07121
3.74245
3.39096
3.01599
2.61521
2.18853
1.73407
1.25877
0.747136
0.285228
15.4958
16.4064
17.1627
17.7725
18.2516
18.7232
19.059
19.2541
19.4923
19.768
20.1457
20.7338
21.3502
22.2465
22.8344
23.3274
23.518
23.4747
23.817
24.1018
24.7711
26.1779
27.8814
29.4691
31.0388
32.5788
33.9356
34.9283
35.6586
36.1616
36.3138
35.9231
34.9748
33.2568
30.8316
27.8619
24.6857
21.5303
18.5858
15.999
13.8649
12.2183
11.0349
10.2591
9.8133
9.61363
9.54024
9.47609
9.6205
9.74016
9.94007
10.0473
10.1342
10.118
10.0536
9.92595
9.75765
9.56251
9.34176
9.11849
8.88569
8.66678
8.45007
8.25237
8.06278
7.89297
7.73501
7.59622
7.47171
7.36523
7.27017
7.18551
7.10497
7.02807
6.94948
6.86824
6.77941
6.68269
6.57392
6.45453
6.32106
6.17487
6.01235
5.83451
5.63834
5.4253
5.19316
4.94327
4.67397
4.3862
4.07821
3.74996
3.39911
3.02471
2.62423
2.19747
1.74152
1.26501
0.745226
0.293143
15.4427
16.4306
17.1802
17.779
18.2594
18.7305
19.0611
19.251
19.4858
19.7595
20.1378
20.7287
21.3472
22.2347
22.8513
23.3607
23.5361
23.4858
23.8085
24.0399
24.6931
26.136
27.8736
29.4636
31.0481
32.6143
33.9649
34.9493
35.6715
36.1897
36.343
35.962
35.0064
33.2691
30.8238
27.8473
24.6676
21.5101
18.5606
15.9698
13.8348
12.1908
11.0117
10.241
9.80015
9.6045
9.53433
9.4757
9.62197
9.74609
9.94603
10.0543
10.1393
10.1221
10.0552
9.92568
9.75531
9.55861
9.33672
9.1125
8.87935
8.66007
8.44352
8.24578
8.05641
7.88649
7.72875
7.5902
7.46652
7.36093
7.2673
7.18412
7.10542
7.03019
6.95312
6.8729
6.78468
6.6882
6.57966
6.46063
6.32782
6.18242
6.0207
5.84346
5.64765
5.43471
5.20253
4.95258
4.68341
4.396
4.08871
3.76138
3.41155
3.03805
2.63805
2.2112
1.75383
1.2754
0.750039
0.297587
15.3963
16.4597
17.1978
17.787
18.2682
18.738
19.0634
19.2479
19.4798
19.7515
20.1306
20.7254
21.3471
22.2196
22.8648
23.393
23.5608
23.5066
23.8104
23.991
24.6299
26.1012
27.859
29.4509
31.0486
32.6298
33.97
34.952
35.6619
36.1788
36.3364
35.9744
35.0262
33.2763
30.8129
27.8271
24.6391
21.4734
18.5147
15.9179
13.782
12.1413
10.9682
10.2047
9.77156
9.58331
9.52001
9.47008
9.62207
9.75329
9.9555
10.0658
10.1492
10.1305
10.0601
9.92754
9.7537
9.5544
9.33027
9.10445
8.87033
8.65046
8.43377
8.23595
8.04668
7.87668
7.71923
7.58116
7.45858
7.35438
7.26279
7.18187
7.10573
7.03284
6.95781
6.87894
6.79153
6.69542
6.58723
6.46878
6.33687
6.19254
6.03182
5.85532
5.65989
5.44699
5.21468
4.96462
4.69556
4.4086
4.10211
3.77585
3.4272
3.0547
2.65523
2.22812
1.76922
1.28811
0.758282
0.299875
15.3626
16.4898
17.2127
17.7936
18.2755
18.7435
19.0645
19.2444
19.4744
19.7434
20.1228
20.7241
21.3471
22.2021
22.8647
23.4178
23.5947
23.5347
23.8144
23.9459
24.5718
26.0703
27.8389
29.4274
31.0372
32.6323
33.9516
34.9255
35.6415
36.1398
36.3009
35.9483
35.0132
33.2527
30.7743
27.7739
24.5736
21.3986
18.4328
15.8341
13.702
12.0691
10.9059
10.1533
9.73145
9.55405
9.50079
9.46197
9.62277
9.76269
9.96863
10.0811
10.1626
10.1414
10.0665
9.92982
9.75164
9.54903
9.32204
9.09423
8.85878
8.63818
8.42124
8.22336
8.03409
7.86406
7.7069
7.56945
7.44819
7.34575
7.25673
7.17877
7.10595
7.03611
6.96358
6.88642
6.79998
6.70438
6.59667
6.479
6.34822
6.20521
6.04569
5.87002
5.67495
5.46202
5.22947
4.97924
4.7103
4.42387
4.11836
3.79336
3.44611
3.07483
2.67604
2.24873
1.78834
1.30415
0.770041
0.302658
15.345
16.5134
17.2215
17.7977
18.2804
18.7465
19.0643
19.2406
19.4695
19.7367
20.1169
20.7273
21.356
22.1897
22.8495
23.4288
23.6258
23.5776
23.8222
23.9004
24.5083
26.0371
27.8222
29.3967
31.0104
32.6271
33.9179
34.8815
35.6173
36.0937
36.2425
35.8818
34.9578
33.1913
30.7042
27.6837
24.4669
21.282
18.3115
15.7158
13.593
11.9729
10.8245
10.0877
9.68203
9.52002
9.48099
9.45607
9.62828
9.77783
9.98759
10.1012
10.1797
10.1545
10.0736
9.93155
9.74776
9.54091
9.31023
9.07992
8.84276
8.62127
8.40403
8.20614
8.01699
7.84714
7.69062
7.55424
7.43478
7.33472
7.24907
7.17499
7.10633
7.0402
6.97066
6.89545
6.81006
6.71497
6.60773
6.49094
6.36145
6.21995
6.06177
5.887
5.69222
5.47915
5.24627
4.99583
4.72705
4.4413
4.13695
3.81348
3.46787
3.09805
2.70013
2.27273
1.81084
1.32324
0.784368
0.30624
15.3478
16.5239
17.2221
17.7988
18.2831
18.7478
19.0633
19.2368
19.4648
19.7298
20.1094
20.7262
21.372
22.1927
22.8309
23.4281
23.6434
23.6269
23.833
23.854
24.4383
25.9964
27.8022
29.3646
30.9763
32.598
33.8794
34.8611
35.591
36.0399
36.1623
35.79
34.866
33.0993
30.601
27.5601
24.3279
21.1324
18.1586
15.5684
13.4572
11.8532
10.7237
10.0074
9.62217
9.47929
9.45734
9.44818
9.63371
9.79349
10.0075
10.122
10.1969
10.1671
10.0797
9.9318
9.74209
9.5306
9.2959
9.06283
8.82379
8.60139
8.38396
8.18626
7.99735
7.82789
7.67217
7.53706
7.41959
7.32219
7.24037
7.17077
7.10692
7.04499
6.97868
6.90555
6.82122
6.72664
6.61993
6.50417
6.37622
6.23656
6.07999
5.90626
5.71179
5.49849
5.26519
5.0145
4.7459
4.46091
4.15785
3.8361
3.49236
3.12422
2.7274
2.30005
1.8367
1.34544
0.801182
0.311331
15.3877
16.5344
17.2221
17.8007
18.2859
18.7488
19.0624
19.2328
19.4594
19.7224
20.1008
20.72
21.3864
22.2155
22.8198
23.4177
23.6421
23.6803
23.8474
23.8144
24.3678
25.9506
27.778
29.3365
30.9284
32.5299
33.8461
34.8412
35.5379
35.9463
36.0419
35.6681
34.7264
32.9677
30.4567
27.4019
24.1585
20.9509
17.9729
15.3892
13.2936
11.7116
10.6072
9.91701
9.55692
9.43704
9.43518
9.44375
9.6441
9.81448
10.0322
10.1466
10.2169
10.1812
10.0861
9.93135
9.73453
9.51749
9.27799
9.04159
8.80039
8.57703
8.35955
8.16223
7.97381
7.80503
7.65055
7.51711
7.40205
7.30785
7.23065
7.16644
7.10816
7.05094
6.98814
6.91718
6.8339
6.73977
6.63354
6.51886
6.39265
6.25509
6.10035
5.92772
5.73347
5.5198
5.28594
5.03491
4.76651
4.48233
4.18072
3.86087
3.51923
3.15301
2.75753
2.33042
1.86565
1.3706
0.820069
0.318116
15.4407
16.5363
17.2178
17.8011
18.2876
18.7492
19.0614
19.2287
19.4534
19.7133
20.0903
20.7083
21.3843
22.242
22.8255
23.4043
23.6247
23.7224
23.8634
23.7815
24.2999
25.901
27.7441
29.3007
30.8606
32.4471
33.8018
34.7569
35.4099
35.8229
35.909
35.52
34.5596
32.8048
30.2834
27.2185
23.9612
20.7369
17.7554
15.1822
13.1067
11.5509
10.4753
9.81454
9.48259
9.38831
9.40864
9.4365
9.65321
9.83493
10.0568
10.1709
10.2361
10.1941
10.091
9.92907
9.72496
9.50205
9.25753
9.01771
8.77435
8.55028
8.33312
8.13657
7.94896
7.7812
7.62818
7.49663
7.38407
7.29327
7.22106
7.16281
7.11062
7.05833
6.99902
6.93016
6.84779
6.75396
6.64809
6.53452
6.41026
6.27512
6.12249
5.95106
5.75696
5.54277
5.3082
5.05674
4.78849
4.50513
4.20506
3.88724
3.54789
3.18382
2.78996
2.36334
1.89728
1.39841
0.840862
0.326926
15.4908
16.5325
17.2136
17.8029
18.2902
18.7504
19.061
19.2247
19.4469
19.703
20.0786
20.694
21.3738
22.258
22.8474
23.3919
23.5997
23.7492
23.8905
23.7575
24.2386
25.8481
27.696
29.2422
30.7797
32.3662
33.6918
34.5758
35.261
35.6849
35.7491
35.3373
34.385
32.6108
30.078
27.0035
23.7266
20.4871
17.5058
14.9468
12.8958
11.371
10.3295
9.70306
9.40369
9.3389
9.38488
9.43422
9.66861
9.86181
10.0867
10.1992
10.2579
10.2082
10.0957
9.92563
9.71313
9.48363
9.23363
8.99019
8.74478
8.52031
8.30394
8.10861
7.92221
7.75581
7.60469
7.47534
7.36559
7.27862
7.21214
7.16061
7.11499
7.06778
7.01183
6.94488
6.86321
6.76939
6.66358
6.551
6.42882
6.29641
6.1461
5.97591
5.78182
5.5669
5.33143
5.07942
4.81128
4.52879
4.23033
3.9147
3.57784
3.2162
2.82422
2.39838
1.93114
1.42853
0.863176
0.337839
15.5314
16.5258
17.2098
17.8051
18.293
18.7517
19.0607
19.2207
19.4398
19.6906
20.0643
20.6752
21.3559
22.2579
22.8772
23.3862
23.577
23.7586
23.92
23.738
24.1844
25.7945
27.6301
29.1595
30.6905
32.2519
33.5163
34.3778
35.1158
35.5248
35.5695
35.1428
34.2049
32.3909
29.8456
26.7584
23.4608
20.208
17.2281
14.6856
12.6624
11.1727
10.1688
9.57999
9.31612
9.28349
9.35718
9.4296
9.68284
9.88784
10.1158
10.2262
10.2778
10.2202
10.0982
9.91995
9.6993
9.46343
9.20827
8.96166
8.71468
8.49033
8.27519
8.0814
7.89639
7.73152
7.58235
7.45525
7.34824
7.26517
7.20462
7.16019
7.12129
7.07889
7.0259
6.96058
6.87935
6.78519
6.67914
6.56745
6.44758
6.3183
6.17063
6.00176
5.80755
5.59167
5.35508
5.10237
4.83422
4.55258
4.25575
3.94238
3.60812
3.2491
2.85923
2.43443
1.96621
1.46009
0.886372
0.350866
15.5637
16.5186
17.2068
17.8084
18.2968
18.7538
19.061
19.2166
19.4317
19.676
20.0466
20.6531
21.335
22.2466
22.8982
23.3828
23.5579
23.7595
23.9461
23.7313
24.1427
25.7411
27.5512
29.061
30.59
32.1035
33.3197
34.1751
34.9452
35.3359
35.3768
34.9529
34.0012
32.143
29.5822
26.4776
23.1599
19.8947
16.918
14.3958
12.4057
10.9567
9.99613
9.45006
9.22617
9.22952
9.3341
9.43168
9.70461
9.92095
10.1502
10.2569
10.2999
10.233
10.1004
9.91316
9.68373
9.44132
9.18106
8.93154
8.68329
8.45942
8.24561
8.05335
7.86957
7.70605
7.55897
7.43437
7.33045
7.25187
7.1981
7.16154
7.12951
7.0916
7.0411
6.97706
6.89592
6.80097
6.69422
6.5833
6.46599
6.34025
6.19548
6.02787
5.83329
5.61612
5.37813
5.12454
4.85628
4.57548
4.28032
3.96926
3.63772
3.28144
2.89389
2.47037
2.00129
1.49194
0.909336
0.36538
15.5935
16.5136
17.2045
17.8118
18.3009
18.7561
19.0613
19.2123
19.4231
19.6591
20.0251
20.6274
21.3098
22.2276
22.9091
23.3749
23.5436
23.7561
23.9614
23.7344
24.1137
25.6848
27.4645
28.9521
30.4734
31.9453
33.1087
33.967
34.7452
35.1346
35.1756
34.7624
33.7664
31.8735
29.2928
26.1688
22.8302
19.5521
16.5801
14.0813
12.128
10.7236
9.80986
9.30973
9.12865
9.17045
9.30781
9.43187
9.72513
9.95256
10.1827
10.2852
10.3194
10.243
10.1002
9.90474
9.66743
9.41924
9.15432
8.9022
8.65279
8.42941
8.21673
8.02577
7.843
7.68063
7.53566
7.41384
7.31339
7.23984
7.19328
7.16472
7.13923
7.10498
7.05629
6.99303
6.9114
6.81503
6.70731
6.5973
6.48305
6.36134
6.21964
6.05311
5.85777
5.63896
5.39928
5.14464
4.87626
4.59625
4.30276
3.99397
3.66516
3.31167
2.92657
2.50459
2.03486
1.5228
0.930903
0.380534
15.6189
16.5094
17.2024
17.8157
18.3058
18.7594
19.0621
19.2076
19.4131
19.6392
19.9998
20.5998
21.2841
22.2047
22.9062
23.347
23.5238
23.7638
23.9743
23.7519
24.1029
25.6273
27.3703
28.8264
30.3369
31.7708
32.8688
33.745
34.5287
34.9241
34.9686
34.5531
33.4996
31.579
28.9729
25.8263
22.4652
19.1747
16.2098
13.7389
11.8282
10.4746
9.61356
9.16457
9.0309
9.11496
9.2884
9.44076
9.75442
9.99171
10.2202
10.3165
10.3403
10.2534
10.0997
9.89577
9.65048
9.39655
9.12659
8.87146
8.62046
8.39739
8.18576
7.99639
7.81475
7.65358
7.51126
7.39297
7.29691
7.22928
7.19045
7.16973
7.14992
7.11846
7.07102
7.00772
6.92441
6.82578
6.71713
6.60868
6.49821
6.38079
6.2418
6.07561
5.87879
5.65788
5.4164
5.16075
4.89242
4.6134
4.32174
4.0154
3.68945
3.33899
2.95655
2.53642
2.06615
1.55191
0.950406
0.395444
15.6399
16.5065
17.2008
17.8198
18.311
18.763
19.0631
19.2027
19.4021
19.6166
19.9713
20.5698
21.256
22.1789
22.8887
23.3031
23.5073
23.7728
23.9824
23.7809
24.1083
25.5674
27.2619
28.6877
30.1958
31.5762
32.6119
33.5175
34.3031
34.7031
34.7574
34.3155
33.2112
31.2629
28.6293
25.457
22.0714
18.7681
15.8124
13.3731
11.5093
10.2102
9.40505
9.01006
8.92636
9.05511
9.26635
9.44817
9.78232
10.0286
10.2548
10.3446
10.3577
10.2604
10.0968
9.88557
9.63307
9.3739
9.09892
8.84054
8.58757
8.36472
8.15427
7.96711
7.7873
7.62774
7.48884
7.37479
7.28359
7.22185
7.18996
7.17568
7.16046
7.13156
7.08534
7.02072
6.9339
6.83234
6.72352
6.61789
6.51188
6.39824
6.2606
6.09338
5.89426
5.671
5.42792
5.17168
4.90386
4.62625
4.33675
4.03314
3.71034
3.36319
2.98374
2.56581
2.09507
1.57938
0.967444
0.41074
15.6571
16.5047
17.1998
17.8244
18.3171
18.7677
19.0649
19.1974
19.3894
19.5909
19.9387
20.5376
21.2272
22.1505
22.8601
23.2546
23.4968
23.7854
23.9862
23.8189
24.1342
25.5035
27.1355
28.5377
30.0391
31.348
32.342
33.2844
34.0677
34.4732
34.532
34.0476
32.9006
30.9204
28.2565
25.0547
21.6422
18.3266
15.3834
12.9813
11.171
9.93294
9.18963
8.85358
8.82421
9.00131
9.25326
9.46612
9.81994
10.073
10.294
10.3749
10.3759
10.267
10.0928
9.87377
9.61343
9.34869
9.06855
8.80691
8.55205
8.32991
8.12129
7.93741
7.76043
7.6032
7.46832
7.35885
7.27248
7.21641
7.19097
7.18279
7.17292
7.1482
7.10304
7.03444
6.94192
6.83717
6.72916
6.62707
6.52495
6.41318
6.2747
6.10492
5.90289
5.67738
5.43325
5.17714
4.9105
4.63493
4.34812
4.04773
3.72854
3.38518
3.00905
2.5936
2.12216
1.60548
0.981419
0.428335
15.6712
16.5038
17.1992
17.8292
18.3233
18.7729
19.0671
19.1919
19.3756
19.5629
19.9032
20.5029
21.1957
22.1192
22.8267
23.2144
23.4984
23.7928
23.9829
23.8555
24.1691
25.4383
26.9906
28.3786
29.8651
31.0961
32.0687
33.0395
33.8213
34.2356
34.284
33.7584
32.572
30.5573
27.8605
24.6262
21.1845
17.8565
14.929
12.5688
10.8163
9.64323
8.96462
8.68995
8.71698
8.9444
9.2386
9.48319
9.85618
10.1144
10.3296
10.4013
10.3898
10.2697
10.0854
9.85914
9.5917
9.32225
9.03732
8.77269
8.5164
8.29567
8.08986
7.91018
7.73702
7.58223
7.45111
7.3457
7.26406
7.21372
7.19536
7.1944
7.19204
7.17311
7.12707
7.05098
6.95125
6.8436
6.73669
6.63741
6.53723
6.42489
6.28362
6.11025
5.9052
5.67793
5.43344
5.17828
4.91353
4.64058
4.35696
4.06021
3.74503
3.40577
3.03321
2.62042
2.1478
1.63068
0.990911
0.451566
15.6837
16.5037
17.1992
17.8345
18.3305
18.7793
19.0701
19.1861
19.3598
19.5315
19.864
20.4654
21.163
22.0856
22.7905
23.1779
23.503
23.8128
23.9889
23.905
24.2085
25.3624
26.8243
28.2042
29.659
30.8198
31.7892
32.7815
33.5662
33.9886
34.0099
33.4489
32.2215
30.1695
27.4358
24.165
20.6914
17.3521
14.4447
12.133
10.4459
9.34449
8.73648
8.52779
8.61511
8.89614
9.23504
9.51256
9.90292
10.163
10.369
10.4289
10.4034
10.2709
10.0757
9.84238
9.56823
9.29415
9.00408
8.73626
8.47901
8.26057
8.05892
7.88464
7.71581
7.56337
7.43522
7.33424
7.25922
7.21693
7.20785
7.21579
7.22207
7.20745
7.15692
7.07092
6.96358
6.85291
6.74617
6.64794
6.54755
6.43275
6.28748
6.11005
5.90213
5.67374
5.4297
5.17629
4.91418
4.64443
4.36445
4.07176
3.76092
3.4261
3.05725
2.64708
2.17267
1.65527
0.995268
0.482679
15.6937
16.504
17.1992
17.8398
18.3379
18.7861
19.0735
19.1803
19.3429
19.4975
19.8222
20.4252
21.1278
22.0505
22.7564
23.1468
23.5164
23.8499
24.0027
23.9568
24.2403
25.2815
26.6552
28.0248
29.4317
30.5311
31.5054
32.5101
33.2994
33.7245
33.7153
33.1214
31.8531
29.7623
26.9891
23.6784
20.1702
16.8205
13.9377
11.6799
10.0627
9.03655
8.50144
8.36048
8.50957
8.8458
9.23085
9.54172
9.94834
10.2081
10.4039
10.4516
10.4118
10.2681
10.0638
9.82559
9.5459
9.26687
8.97114
8.70034
8.44287
8.22723
8.03011
7.86143
7.69692
7.54674
7.42141
7.32612
7.26043
7.22829
7.22938
7.24606
7.25842
7.24443
7.18628
7.09061
6.9765
6.86266
6.75514
6.65678
6.55515
6.43705
6.28719
6.10557
5.89507
5.66622
5.42344
5.17249
4.91355
4.64741
4.37136
4.08293
3.77663
3.44636
3.0812
2.67347
2.19706
1.67987
0.995423
0.520061
15.7017
16.5045
17.1998
17.8458
18.3462
18.7942
19.078
19.1742
19.3239
19.4596
19.7765
20.3818
21.0907
22.0146
22.7239
23.1267
23.5457
23.9068
24.0151
23.9868
24.2537
25.1967
26.4799
27.827
29.1772
30.2249
31.2133
32.2287
33.024
33.4394
33.4041
32.7749
31.4639
29.331
26.5151
23.1603
19.6152
16.2572
13.4051
11.2093
9.66982
8.72556
8.26854
8.19884
8.41263
8.8066
9.23952
9.58407
10.0041
10.2582
10.4399
10.4732
10.4185
10.2649
10.0542
9.81283
9.52634
9.23989
8.93724
8.6634
8.40617
8.19352
8.00049
7.83691
7.67735
7.53053
7.40865
7.32032
7.26516
7.24329
7.25355
7.27856
7.29551
7.27773
7.20956
7.10575
6.98645
6.87004
6.7618
6.66323
6.56
6.43801
6.28311
6.09728
5.88461
5.65598
5.41524
5.16742
4.91209
4.64986
4.37796
4.09403
3.79251
3.4669
3.10536
2.70003
2.22228
1.70558
0.995067
0.556808
15.7075
16.5053
17.2005
17.8517
18.3548
18.8028
19.0829
19.168
19.3038
19.4194
19.7278
20.3352
21.0516
21.9789
22.6967
23.1353
23.5959
23.959
24.0117
23.9757
24.2373
25.1041
26.3022
27.6187
28.9056
29.9072
30.9132
31.9368
32.738
33.1334
33.0763
32.4116
31.0574
28.8814
26.0203
22.6179
19.0337
15.6703
12.8553
10.7274
9.27
8.41034
8.03293
8.03512
8.31408
8.76663
9.24879
9.62737
10.0584
10.3031
10.4682
10.4872
10.4196
10.2608
10.0487
9.80537
9.51034
9.21448
8.90456
8.62765
8.37035
8.16026
7.97048
7.81048
7.65643
7.51486
7.39807
7.31768
7.27421
7.26295
7.27886
7.30849
7.32898
7.30328
7.22425
7.1143
6.9916
6.87395
6.76592
6.66743
6.56202
6.43537
6.2751
6.08531
5.87122
5.64364
5.40567
5.16147
4.91
4.65175
4.38413
4.10488
3.80827
3.48721
3.1293
2.72689
2.24922
1.73273
0.997853
0.584597
15.7125
16.5066
17.2019
17.8581
18.3645
18.8127
19.0893
19.1618
19.2813
19.3754
19.674
20.2856
21.0096
21.9427
22.6727
23.1604
23.6481
23.997
23.9821
23.9325
24.1878
24.9902
26.1115
27.3879
28.6077
29.5742
30.6048
31.6357
32.4388
32.8112
32.7319
32.0308
30.6316
28.4096
25.4997
22.0455
18.4211
15.0566
12.2868
10.2359
8.86854
8.09943
7.80567
7.88151
8.22686
8.73992
9.27273
9.68385
10.1206
10.3477
10.4913
10.4952
10.4195
10.2616
10.05
9.8031
9.49697
9.19004
8.87258
8.59195
8.33306
8.12402
7.93697
7.77947
7.63102
7.49653
7.38586
7.31241
7.28129
7.28239
7.30324
7.33335
7.35394
7.3187
7.23106
7.11699
6.99252
6.87525
6.76842
6.6698
6.56107
6.42898
6.2634
6.07031
5.85572
5.63009
5.39552
5.15521
4.90763
4.65338
4.3902
4.1159
3.82428
3.50782
3.1541
2.75552
2.27902
1.76085
1.00522
0.599303
15.7164
16.5078
17.2035
17.8644
18.3744
18.8228
19.0963
19.1558
19.2578
19.3291
19.6163
20.2335
20.9648
21.9077
22.6565
23.1853
23.6937
24.0223
23.9307
23.8707
24.1056
24.8519
25.9104
27.1438
28.2929
29.2334
30.2886
31.323
32.1211
32.4732
32.3709
31.6335
30.1895
27.9207
24.96
21.4507
17.7852
14.4249
11.7088
9.74133
8.46718
7.78968
7.57956
7.72824
8.13895
8.71353
9.2984
9.74179
10.1785
10.3798
10.4996
10.4936
10.418
10.2655
10.0543
9.80168
9.48393
9.16652
8.84216
8.55786
8.29644
8.08698
7.90271
7.74876
7.60662
7.48055
7.37658
7.30836
7.28743
7.29676
7.32105
7.35345
7.36857
7.32423
7.23099
7.11461
6.99011
6.87468
6.76953
6.66999
6.55683
6.41903
6.24873
6.05335
5.83938
5.61655
5.38577
5.14933
4.90544
4.65511
4.39649
4.12713
3.84038
3.52884
3.1803
2.78621
2.31077
1.78779
1.015
0.601309
15.719
16.5089
17.2057
17.8716
18.3852
18.834
19.1047
19.1498
19.2317
19.2787
19.5521
20.1784
20.914
21.8724
22.6464
23.2269
23.7308
24.0263
23.8719
23.7911
23.9879
24.6799
25.686
26.8743
27.9548
28.883
29.9649
31.0014
31.7861
32.1222
31.9948
31.2197
29.7297
27.4118
24.3972
20.8296
17.1241
13.7757
11.1243
9.25009
8.07606
7.49411
7.3692
7.5896
8.06475
8.70208
9.33687
9.80821
10.2345
10.4004
10.4987
10.4896
10.4189
10.2702
10.0565
9.79683
9.4674
9.14055
8.80987
8.52239
8.2588
8.04843
7.86661
7.71743
7.58175
7.46384
7.36654
7.30315
7.29515
7.30937
7.32855
7.36329
7.37329
7.32236
7.22569
7.10851
6.98559
6.873
6.76931
6.66769
6.54937
6.40612
6.2321
6.03575
5.82357
5.60426
5.37741
5.14455
4.90405
4.65754
4.40352
4.13907
3.85738
3.5516
3.20923
2.81916
2.34285
1.81135
1.02398
0.593326
15.72
16.5095
17.2078
17.8787
18.3962
18.8454
19.1133
19.1441
19.2046
19.2263
19.4839
20.1206
20.8613
21.8398
22.645
23.2682
23.7525
24.01
23.8078
23.6955
23.841
24.4818
25.4473
26.5902
27.604
28.5278
29.6312
30.668
31.4346
31.7563
31.6032
30.7908
29.2551
26.8877
23.8176
20.1894
16.4456
13.1188
10.5429
8.76832
7.69567
7.20791
7.16565
7.45419
7.99309
8.69413
9.37537
9.86531
10.2733
10.4051
10.4902
10.4826
10.4157
10.267
10.0498
9.78316
9.44289
9.10806
8.772
8.4825
8.2187
8.00964
7.83071
7.68759
7.55991
7.44981
7.35752
7.29166
7.28887
7.31439
7.33723
7.36874
7.37136
7.31469
7.21586
7.09923
6.97909
6.86967
6.76672
6.66205
6.53846
6.39049
6.21398
6.01809
5.80888
5.59365
5.37058
5.14081
4.90334
4.66048
4.41079
4.15109
3.87502
3.57632
3.24049
2.8525
2.37198
1.82857
1.02961
0.57843
15.72
16.51
17.2103
17.8867
18.4081
18.8579
19.1231
19.1383
19.1746
19.1694
19.4099
20.0583
20.808
21.8024
22.6476
23.3382
23.7651
23.9149
23.7265
23.5828
23.6661
24.2541
25.1867
26.2808
27.2356
28.1655
29.2879
30.3234
31.0706
31.3776
31.198
30.3473
28.7649
26.3459
23.2182
19.5277
15.7508
12.458
9.9717
8.30708
7.34089
6.94786
6.98598
7.33693
7.93993
8.70336
9.41807
9.91023
10.2929
10.3991
10.4808
10.469
10.4026
10.2529
10.0323
9.75789
9.40776
9.06631
8.72615
8.4351
8.17194
7.96581
7.79053
7.65326
7.53467
7.43628
7.35451
7.28801
7.27899
7.30642
7.33898
7.36812
7.36398
7.30218
7.20164
7.08658
6.97013
6.86386
6.76078
6.65235
6.52377
6.37205
6.1945
6.00061
5.79548
5.58461
5.36496
5.1377
4.90286
4.66341
4.41792
4.16332
3.89419
3.60379
3.27339
2.88392
2.39516
1.83776
1.03098
0.560332
15.7193
16.5103
17.2128
17.8946
18.4203
18.8705
19.1333
19.1327
19.1436
19.1103
19.333
19.9904
20.7596
21.7547
22.6625
23.4208
23.7768
23.7957
23.6322
23.4537
23.4719
24.0127
24.9169
25.9585
26.8593
27.7988
28.9341
29.9643
30.6921
30.9846
30.7781
29.8899
28.2617
25.7913
22.605
18.8516
15.0477
11.8035
9.42001
7.87081
7.00996
6.70692
6.81965
7.22656
7.89443
8.71507
9.44583
9.93864
10.294
10.3812
10.4659
10.4482
10.3757
10.2256
10.0029
9.71916
9.36118
9.01596
8.6743
8.38316
8.12161
7.91875
7.74806
7.61597
7.50477
7.41566
7.3435
7.28444
7.27273
7.29631
7.33334
7.36068
7.35112
7.28468
7.18317
7.07053
6.95831
6.85482
6.75086
6.63838
6.5053
6.35089
6.17365
5.98311
5.78289
5.5763
5.35942
5.13411
4.90151
4.66511
4.42381
4.17533
3.91489
3.6331
3.30521
2.91005
2.40972
1.83785
1.02773
0.542031
15.7186
16.5104
17.2156
17.9033
18.4334
18.8842
19.1443
19.1272
19.1094
19.0461
19.2497
19.9152
20.7114
21.701
22.6845
23.4949
23.767
23.6734
23.5266
23.3006
23.2554
23.7525
24.6274
25.6135
26.4701
27.4253
28.5716
29.593
30.3016
30.58
30.3461
29.42
27.7454
25.2227
21.9769
18.1616
14.3419
11.1647
8.90115
7.47724
6.72458
6.5075
6.68481
7.14343
7.87199
8.73426
9.46838
9.96969
10.2935
10.3676
10.4455
10.4247
10.3465
10.1919
9.96377
9.66859
9.30426
8.95739
8.61684
8.32737
8.06851
7.86855
7.70292
7.57766
7.47466
7.39429
7.33029
7.27884
7.26636
7.28439
7.32082
7.3475
7.33362
7.26291
7.16089
7.05137
6.94381
6.84264
6.73712
6.62045
6.48339
6.32724
6.15169
5.96573
5.77084
5.5681
5.35329
5.12936
4.89859
4.66511
4.42883
4.18819
3.93786
3.66302
3.33344
2.92868
2.41448
1.82921
1.02011
0.525311
15.7164
16.5099
17.2184
17.912
18.4466
18.898
19.1554
19.1219
19.0737
18.9792
19.1642
19.8367
20.6674
21.6644
22.7118
23.5437
23.7341
23.5532
23.4113
23.1235
23.0269
23.4878
24.3304
25.2576
26.0762
27.0464
28.1988
29.2066
29.8985
30.1615
29.9009
28.9376
27.2178
24.6441
21.3393
17.4643
13.6407
10.5511
8.42191
7.12745
6.48014
6.34246
6.56848
7.07871
7.85895
8.75046
9.49022
10.0079
10.296
10.3567
10.4168
10.3969
10.3116
10.1549
9.91584
9.6088
9.23974
8.89281
8.55557
8.27021
8.01533
7.81821
7.65657
7.53714
7.44084
7.36892
7.31574
7.27337
7.26004
7.27216
7.30455
7.32904
7.311
7.23713
7.13545
7.02978
6.92704
6.82776
6.72034
6.59952
6.45894
6.30187
6.129
5.94835
5.7587
5.55915
5.34579
5.12254
4.89313
4.6629
4.43305
4.20202
3.96195
3.69079
3.35541
2.93803
2.40899
1.81256
1.00857
0.510074
15.7132
16.509
17.2217
17.9213
18.4604
18.913
19.1674
19.1165
19.034
18.9062
19.0741
19.7535
20.6142
21.6189
22.7433
23.5687
23.6754
23.43
23.2766
22.917
22.7794
23.2073
24.0134
24.8816
25.6724
26.6605
27.8166
28.8065
29.4858
29.7325
29.4453
28.4451
26.6798
24.0551
20.6925
16.7629
12.9542
9.97632
7.9997
6.84298
6.30096
6.23214
6.48894
7.04993
7.86997
8.78482
9.5386
10.0407
10.2957
10.3484
10.3835
10.3651
10.2723
10.1115
9.85965
9.54155
9.16878
8.82268
8.48948
8.20974
7.96123
7.76849
7.61056
7.49653
7.40737
7.34292
7.29773
7.26223
7.24359
7.25752
7.28651
7.30565
7.28423
7.20877
7.10777
7.00644
6.9087
6.81106
6.70157
6.5767
6.4329
6.27563
6.10635
5.93137
5.74639
5.5493
5.33664
5.11334
4.88513
4.65939
4.43785
4.21755
3.98619
3.71461
3.36977
2.93747
2.39402
1.78949
0.994055
0.495554
15.7086
16.5077
17.225
17.9308
18.4741
18.9279
19.1793
19.1112
18.9929
18.8303
18.9826
19.6655
20.5611
21.5878
22.7767
23.5776
23.5886
23.3033
23.1203
22.6922
22.5248
22.9233
23.6884
24.497
25.2654
26.2682
27.4234
28.3929
29.0614
29.2912
28.9779
27.9417
26.1325
23.4591
20.0413
16.063
12.2881
9.44657
7.63467
6.61716
6.17582
6.15565
6.43156
7.04141
7.89347
8.84133
9.57727
10.0579
10.2913
10.3355
10.3493
10.3297
10.2251
10.0597
9.79595
9.46894
9.09399
8.74909
8.41939
8.14565
7.90485
7.71773
7.56344
7.45468
7.37475
7.32025
7.28116
7.24965
7.21796
7.23955
7.26496
7.27796
7.25482
7.17888
7.07868
6.98196
6.8892
6.79321
6.68194
6.55322
6.40653
6.24953
6.08427
5.91454
5.73354
5.5382
5.32516
5.10106
4.87459
4.65501
4.44332
4.23378
4.00843
3.73259
3.37519
2.92681
2.37071
1.76136
0.977426
0.480835
15.704
16.5062
17.2288
17.941
18.4885
18.9433
19.1918
19.1055
18.9475
18.7478
18.8843
19.569
20.4958
21.5703
22.8195
23.5624
23.4765
23.1636
22.9329
22.4458
22.2521
22.6219
23.3432
24.0955
24.8497
25.8678
27.02
27.9698
28.6277
28.841
28.502
27.4301
25.5782
22.8574
19.3881
15.3718
11.6575
8.97889
7.34514
6.46966
6.11437
6.09457
6.40504
7.0669
7.95982
8.91458
9.60395
10.0734
10.2857
10.3173
10.3194
10.2872
10.1731
10.0016
9.72536
9.39158
9.01578
8.67196
8.34504
8.07475
7.84209
7.66326
7.51695
7.41382
7.34157
7.29479
7.25984
7.23339
7.20033
7.21802
7.24037
7.24934
7.22579
7.14971
7.04958
6.95731
6.86939
6.77513
6.6624
6.53009
6.38074
6.22441
6.06336
5.89806
5.72026
5.52571
5.311
5.0859
4.86258
4.65114
4.45011
4.25026
4.0276
3.74376
3.37124
2.90685
2.34073
1.72972
0.959496
0.465644
15.6991
16.5046
17.2328
17.9515
18.5029
18.9582
19.2044
19.0995
18.9006
18.6622
18.7843
19.4698
20.4311
21.576
22.8539
23.5136
23.3551
23.0135
22.7214
22.1905
21.9735
22.3158
22.9909
23.6888
24.4315
25.4604
26.605
27.5365
28.1836
28.3797
28.0157
26.9094
25.0174
22.2527
18.7365
14.693
11.0651
8.5729
7.11993
6.3775
6.07504
6.03382
6.40509
7.12121
8.04533
8.97914
9.62066
10.089
10.2775
10.293
10.2908
10.2411
10.1224
9.93874
9.65049
9.31329
8.93842
8.59876
8.27504
8.00579
7.77772
7.60661
7.46928
7.37533
7.31044
7.26663
7.23315
7.21011
7.18421
7.19565
7.21596
7.22142
7.19717
7.12062
7.02046
6.93264
6.84937
6.75705
6.64344
6.50804
6.35644
6.20089
6.04346
5.88162
5.70623