/*--------------------------------*- C++ -*----------------------------------*\
| =========                 |                                                 |
| \\      /  F ield         | OpenFOAM: The Open Source CFD Toolbox           |
|  \\    /   O peration     | Version:  4.1                                   |
|   \\  /    A nd           | Web:      www.OpenFOAM.org                      |
|    \\/     M anipulation  |                                                 |
\*---------------------------------------------------------------------------*/
FoamFile
{
    version     2.0;
    format      ascii;
    class       surfaceScalarField;
    location    "19";
    object      phi;
}
// * * * * * * * * * * * * * * * * * * * * * * * * * * * * * * * * * * * * * //

dimensions      [0 3 -1 0 0 0 0];

internalField   nonuniform List<scalar> 
52920
(
1766.29
-69.1133
1832.26
-65.4132
1898.65
-67.3238
1966.95
-67.457
2035.03
-67.3795
2102.4
-67.8928
2170.34
-68.4636
2240.94
-69.0873
2309.8
-70.087
2380.93
-70.7613
2447.21
-71.7753
2524.21
-73.7602
2599.18
-73.4391
2670.46
-73.5582
2750.99
-74.8715
2824.92
-79.4836
2898.84
-76.1068
2964.99
-63.3352
3022.53
-58.0594
3075.4
-51.0052
3114.79
-37.684
3150.9
-37.4959
3204.85
-56.1128
3283.77
-77.5455
3370.36
-87.0197
3450.49
-80.1849
3516.35
-66.4087
3576.14
-60.295
3643.13
-67.619
3722.18
-78.2279
3811.11
-87.6364
3910.4
-98.9945
4025.45
-113.343
4151.38
-124.954
4285.63
-132.092
4421.86
-135.565
4559.67
-136.464
4696.27
-134.445
4828.48
-129.806
4954.74
-123.377
5073.99
-116.245
5186.11
-109.123
5291.52
-102.434
5390.69
-96.4753
5484.55
-91.4183
5575.42
-87.4298
5665.27
-84.5667
5747.9
-82.1759
5832.96
-81.2817
5913.45
-80.5338
5997.28
-80.8464
6078.17
-81.245
6163.45
-82.541
6246.7
-83.8619
6334.49
-85.8722
6421.05
-87.7047
6512.28
-89.7432
6602.44
-91.3699
6696.12
-92.9063
6788.63
-93.9893
6883.9
-94.8794
6977.86
-95.3402
7073.32
-95.5537
7167.33
-95.372
7261.87
-94.875
7354.67
-93.9565
7446.84
-92.679
7536.89
-91.0235
7625.51
-89.1426
7711.95
-87.1436
7796.65
-85.2224
7879.64
-83.5034
7961.23
-82.0824
8041.89
-81.0274
8121.82
-80.3451
8201.56
-80.0098
8281.22
-79.964
8361.24
-80.1466
8441.49
-80.518
8522.52
-81.084
8604.09
-81.8088
8686.74
-82.6606
8770.13
-83.5617
8854.61
-84.4503
8939.73
-85.2674
9025.81
-86.0037
9112.36
-86.6661
9199.75
-87.2906
9287.59
-87.9247
9376.31
-88.6114
9465.65
-89.3982
9556.07
-90.3038
9647.38
-91.3519
9740
-92.5107
9833.75
-93.7823
9928.86
-95.0123
10025.2
-96.3801
10122.3
-97.038
10223.9
-101.567
-96.0021
1894.88
-145.527
1969.81
-140.219
2045.49
-144.408
2123.87
-144.723
2202.73
-145.587
2280.57
-146.998
2359.24
-148.404
2442.04
-151.014
2522.86
-152.549
2607.21
-155.096
2686.73
-156.825
2779.57
-162.289
2871.84
-163.096
2958.61
-161.714
3057.11
-166.181
3147.53
-174.153
3236.22
-165.798
3317.34
-141.721
3390
-132.346
3460
-120.72
3518.21
-95.9062
3575.76
-97.0311
3652.96
-135.992
3752.89
-175.962
3855.14
-189.692
3947.11
-171.725
4024.35
-144.055
4098.71
-135.156
4183.24
-152.415
4281.6
-175.32
4390.88
-194.864
4511.47
-218.525
4646.75
-246.006
4790.58
-267.044
4939.83
-278.568
5088.77
-283.388
5237.2
-283.177
5382.77
-277.435
5522.69
-266.767
5655.74
-253.122
5781.22
-238.283
5899.24
-223.696
6010.37
-210.152
6115.16
-198.119
6214.55
-187.973
6310.74
-179.811
6405.51
-173.75
6493.3
-169.187
6582.93
-167.023
6668
-165.477
6755.67
-165.603
6840.08
-165.982
6927.93
-167.77
7013.11
-169.596
7101.67
-172.56
7188.09
-175.101
7277.89
-178.046
7365.6
-180.121
7455.59
-182.089
7543.5
-183.199
7633.12
-184.025
7720.72
-184.137
7809.08
-183.905
7895.55
-183.033
7982.13
-181.694
8066.78
-179.648
8150.7
-177.001
8232.5
-173.679
8312.88
-169.92
8391.07
-165.895
8467.41
-161.935
8541.8
-158.245
8614.38
-155.005
8685.47
-152.319
8755.1
-150.234
8823.69
-148.698
8891.23
-147.622
8958.06
-146.909
9023.99
-146.524
9089.5
-146.462
9154.34
-146.7
9219.03
-147.185
9283.26
-147.786
9347.41
-148.397
9411.07
-148.904
9474.57
-149.28
9537.47
-149.524
9600.12
-149.709
9662.15
-149.9
9723.97
-150.195
9785.31
-150.658
9846.59
-151.355
9907.61
-152.311
9968.82
-153.518
10030
-154.921
10091.6
-156.443
10153.1
-157.851
10215.2
-158.996
10275.6
-161.876
-162.136
2047.91
-230.87
2134.8
-226.351
2223.1
-233.451
2314.4
-235.253
2406.67
-237.134
2498.48
-239.068
2591.34
-241.535
2687.97
-245.801
2782.71
-248.392
2880.43
-252.275
2973.64
-255.268
3078.42
-264.492
3182.29
-266.044
3280.96
-263.038
3389.72
-270.273
3491.02
-280.839
3589.76
-266.942
3680.67
-230.115
3764.33
-216.121
3845.13
-199.29
3913.53
-162.247
3979.15
-163.681
4059.99
-218.601
4159.4
-274.014
4261.44
-291.867
4355.66
-265.955
4436.56
-225.485
4513.26
-212.338
4597.35
-237.198
4691.68
-269.154
4791.31
-293.67
4894.65
-322.094
5005.09
-355.264
5118.49
-379.924
5233.26
-391.455
5344.92
-394.47
5453.76
-390.706
5557.95
-379.587
5655.39
-361.983
5745.49
-340.497
5828
-317.953
5903.35
-296.19
5972.24
-276.209
6035.28
-258.593
6093.32
-243.708
6148.4
-231.525
6202.14
-221.861
6248.54
-215.493
6296.42
-210.791
6338.68
-208.066
6382.47
-205.978
6421.14
-205.231
6461.35
-204.744
6496.26
-205.426
6532.27
-206.301
6563.56
-208.015
6596.51
-209.227
6625.73
-211.05
6656.66
-212.116
6685.14
-213.693
6716
-214.468
6745.71
-215.732
6777.88
-216.26
6810.01
-217.014
6844.74
-216.904
6880.1
-216.592
6917.62
-215.228
6955.81
-213.218
6995.32
-210.184
7035
-206.579
7074.8
-202.513
7114.13
-198.332
7152.6
-194.222
7190.06
-190.36
7226.15
-186.969
7260.98
-183.978
7294.26
-181.42
7326.14
-179.068
7356.2
-177.046
7384.85
-175.273
7411.71
-173.968
7437.36
-172.933
7461.46
-172.213
7484.51
-171.472
7506.06
-170.731
7526.56
-169.745
7545.51
-168.694
7563.37
-167.475
7579.67
-166.372
7594.94
-165.34
7608.83
-164.672
7621.93
-164.322
7634.04
-164.519
7645.83
-165.18
7657.17
-166.332
7668.85
-168.006
7680.31
-169.373
7693.73
-172.3
7698.42
-166.615
-183.67
2199.6
-323.15
2296.2
-322.904
2394.03
-332.497
2494.13
-334.406
2594.42
-336.899
2693.32
-339.164
2792
-341.487
2892.81
-345.878
2990.54
-347.748
3089.59
-351.3
3182.92
-353.547
3285.37
-363.109
3385.23
-363.862
3477.96
-357.139
3577.81
-363.896
3669.45
-376.243
3758.15
-356.049
3838.33
-308.081
3910.01
-288.675
3975.57
-264.218
4022.74
-209.286
4058.62
-200.981
4102.18
-264.843
4164.16
-335.086
4238.59
-367.074
4315.29
-342.359
4378.31
-289.032
4427.96
-262.818
4476.27
-285.928
4528.14
-320.809
4574.55
-338.741
4610.94
-357.9
4644.37
-386.147
4675.26
-408.791
4703.98
-416.718
4726.06
-414.704
4742.11
-404.03
4751.31
-384.885
4753.18
-359.335
4748.69
-330.939
4738.49
-302.382
4723.35
-275.535
4704.05
-251.312
4680.93
-230.178
4654.61
-212.489
4627.46
-197.686
4600.8
-185.317
4566.25
-179.509
4535.38
-172.849
4498.74
-171.201
4466.18
-167.959
4428.79
-168.497
4395.85
-166.751
4357.83
-168.557
4323.84
-168.616
4285.96
-172.104
4253.68
-173.985
4219.87
-179.311
4192.81
-183.409
4167.03
-190.417
4149.77
-196.254
4136.18
-204.394
4131.42
-211.446
4131.76
-219.596
4140.71
-226.296
4155.1
-232.921
4176.69
-237.59
4202.9
-241.042
4234.23
-242.263
4268.62
-242.039
4305.71
-240.304
4344.35
-237.644
4383.82
-234.314
4423.74
-230.688
4463.48
-227.169
4503.11
-223.804
4542.14
-220.636
4580.66
-217.451
4617.97
-214.463
4654.59
-211.63
4689.94
-209.356
4724.79
-207.462
4758.64
-206.014
4792.16
-204.596
4824.68
-203.18
4856.81
-201.465
4887.87
-199.643
4918.48
-197.665
4948.12
-195.874
4977.54
-194.343
5006.45
-193.433
5035.76
-193.236
5065.41
-194.024
5096.4
-195.828
5128.82
-198.63
5163.53
-202.434
5200.58
-206.339
5240.62
-212.123
5281.08
-207.018
-228.283
2325.28
-418.208
2423.94
-420.8
2521.16
-430.218
2618.17
-430.795
2713.18
-431.255
2804.65
-430.668
2893.61
-430.625
2982.42
-432.796
3066.09
-432.549
3148.76
-433.484
3223.22
-433.221
3303.95
-441.705
3379.22
-438.415
3443.35
-424.17
3510.37
-426.959
3567.23
-439.221
3622.01
-413.665
3668.32
-351.599
3703.9
-324.144
3729.13
-286.543
3726.53
-203.74
3698.19
-173.524
3664.13
-232.736
3646.63
-315.68
3657.68
-378.249
3691.08
-375.752
3714.13
-312.913
3712.21
-261.7
3700.33
-275.362
3691.29
-311.262
3670.21
-316.783
3627.23
-316.007
3575.22
-332.853
3519.39
-352.838
3461.25
-355.77
3397.03
-349.821
3331.71
-336.476
3268.2
-317.438
3207.94
-294.665
3151.88
-269.336
3098.62
-243.245
3046.75
-217.672
2995.21
-193.712
2942.74
-172.18
2889.05
-153.673
2837.38
-138.361
2789.6
-125.555
2731.57
-120.868
2682.74
-115.386
2628.11
-116.876
2584.82
-117.501
2538.83
-123.352
2506.54
-127.739
2472.73
-136.392
2452.89
-144.319
2433.78
-156.108
2430.11
-167.083
2429.14
-181.585
2442.39
-195.273
2459.64
-211.4
2490.15
-226.325
2524.9
-242.541
2569.89
-257.042
2618.38
-271.329
2674.16
-283.124
2731.84
-293.341
2793.2
-300.309
2854.38
-304.536
2916.18
-305.434
2976.34
-303.94
3035.21
-300.527
3092.26
-296.046
3147.66
-290.993
3201.89
-285.945
3255.05
-281.443
3307.96
-277.53
3360.6
-274.15
3413.57
-270.961
3466.45
-268.113
3520.23
-265.761
3574.5
-264.289
3630.37
-263.566
3687.28
-263.446
3745.96
-263.4
3805.53
-263.186
3866.57
-262.534
3928.18
-261.585
3991
-260.444
4054.37
-259.495
4119.1
-258.983
4184.81
-259.313
4252.39
-260.704
4321.65
-263.421
4393.45
-267.52
4467.64
-272.925
4544.72
-279.41
4624.56
-286.254
4706.43
-293.906
4794.66
-295.283
-310.063
2391.94
-502.216
2477.17
-506.039
2558.78
-512.927
2638.7
-509.83
2714.99
-507.041
2785.49
-502.252
2850.62
-497.144
2912.49
-493.736
2965.98
-488.032
3015.17
-482.668
3052.23
-475.943
3092.62
-478.133
3124.27
-468.454
3139.74
-441.683
3153.79
-434.542
3156.04
-446.463
3161.23
-418.934
3161.96
-349.754
3152.72
-314.78
3132.63
-264.593
3076.46
-146.654
2977.44
-76.2632
2849.89
-109.971
2723.14
-188.622
2637.42
-294.622
2607.14
-345.996
2581.95
-289.651
2521.44
-203.661
2442.9
-198.504
2382.91
-251.629
2330.73
-263.078
2262.69
-248.011
2188.48
-254.195
2121.79
-282.76
2072.14
-299.025
2037.04
-311.282
2026.15
-320.28
2040.63
-324.11
2073.45
-319.028
2115.93
-302.553
2158.92
-276.74
2197.01
-246.215
2227.56
-214.654
2249.04
-184.707
2262.05
-158.237
2271.25
-136.36
2280.43
-119.417
2274.1
-111.554
2275.18
-105.941
2266.85
-107.547
2268.36
-111.197
2264.51
-119.981
2273.53
-129.771
2279.47
-143.59
2298.88
-158.806
2317.65
-177.083
2350.4
-196.026
2383.56
-216.96
2428.12
-237.743
2473.63
-259.532
2528.88
-280.333
2585.06
-301.015
2647.92
-319.737
2711.09
-336.809
2778.25
-350.718
2844.34
-361.488
2911.11
-367.918
2974.97
-370.165
3036.83
-368.092
3094.7
-362.965
3149.25
-355.815
3200.37
-347.883
3248.61
-339.884
3294.87
-332.631
3339.73
-326.704
3384.31
-322.239
3428.94
-318.857
3474.39
-316.135
3520.42
-314.112
3568.12
-313.037
3617.22
-313.277
3668.83
-314.691
3722.41
-316.841
3778.59
-319.044
3836.39
-320.814
3896.26
-321.885
3957.24
-322.367
4019.84
-322.531
4083.36
-322.811
4148.51
-323.634
4214.85
-325.439
4283.18
-328.567
4353.23
-333.272
4425.74
-339.632
4500.49
-347.505
4577.93
-356.52
4657.76
-365.973
4739.62
-375.518
4826.02
-381.607
-393.675
2357.79
-569.881
2425.94
-573.386
2487.66
-575.091
2544.54
-566.044
2593.76
-555.509
2632.33
-540.627
2660.31
-525.198
2680.39
-511.346
2687.99
-496.987
2688.39
-482.327
2673.3
-467.794
2661.14
-463.504
2639.95
-446.539
2599.98
-406.051
2557.29
-386.235
2504.16
-402.365
2465.78
-385.05
2433.31
-312.709
2398.13
-279.671
2359.9
-221.555
2283.26
-64.6208
2152.21
52.6769
1967.35
70.2597
1747.59
36.106
1559.39
-106.572
1456.54
-242.808
1383.89
-218.858
1272
-94.3578
1115.33
-47.7696
987.661
-121.208
941.513
-213.215
959.551
-269.365
1007.95
-299.239
1076.69
-351.257
1184.3
-401.663
1322.39
-448.668
1481.01
-476.18
1640.01
-478.441
1783.68
-457.879
1907.04
-419.988
2008.7
-372.385
2090.02
-321.564
2153.19
-271.946
2200.24
-226.557
2234.31
-187.455
2261.22
-155.791
2285.42
-131.898
2293.53
-119.215
2306.83
-111.003
2309.97
-110.997
2320.28
-114.631
2324.03
-124.43
2337.91
-137.255
2347.63
-154.883
2368.56
-175.706
2388.15
-199.757
2420.06
-225.194
2452.29
-252.385
2495.2
-279.639
2539.57
-307.459
2593.59
-334.19
2649.3
-359.944
2711.92
-383.09
2775.53
-403.458
2843.37
-419.642
2910.63
-431.322
2978.75
-437.396
3044.19
-437.817
3107.54
-432.831
3166.78
-423.925
3222.41
-412.833
3274.24
-401.101
3322.78
-389.766
3368.88
-379.821
3413.14
-372.145
3456.75
-366.766
3500.06
-363.137
3543.78
-360.525
3587.69
-358.883
3632.82
-358.645
3678.98
-360.196
3727.3
-363.376
3777.31
-367.476
3829.62
-371.591
3883.28
-374.998
3938.68
-377.426
3994.89
-378.985
4052.4
-380.087
4110.52
-381.253
4169.96
-383.06
4230.3
-386.016
4292.35
-390.564
4355.88
-396.982
4421.68
-405.372
4489.58
-415.543
4560.16
-427.02
4633.11
-439.026
4708.48
-450.83
4786.68
-459.855
-472.381
2259.16
-617.331
2302.67
-616.899
2333.16
-606.656
2352.76
-584.683
2359.28
-561.382
2350.42
-532.757
2327.55
-503.993
2295.22
-477.469
2250.1
-454.799
2199.69
-431.973
2134.78
-411.489
2078.81
-402.066
2019.02
-384.966
1941.92
-333.202
1864.51
-299.832
1778.46
-326.516
1724.2
-331.832
1689.43
-274.032
1660.45
-249.385
1637.37
-193.405
1574.27
1.97991
1457.21
166.164
1281.42
235.05
1052.97
265.238
832.335
107.914
673.161
-87.2356
516.562
-74.4002
329.824
79.3777
146.981
122.261
101.895
-74.3855
221.833
-328.687
426.169
-476.387
639.099
-506.354
844.222
-553.866
1060.98
-611.618
1271.05
-656.348
1467.56
-668.414
1641.54
-645.467
1787.42
-596.224
1906.83
-531.007
2001.79
-458.534
2075.22
-385.86
2130.29
-317.557
2169.74
-256.954
2197.16
-206.121
2218.72
-165.779
2238.71
-136.539
2243.79
-120.768
2254.86
-111.547
2256.84
-111.55
2266.48
-116.565
2270.14
-128.317
2283.94
-144.213
2293.64
-165.658
2314.3
-191.493
2333.66
-220.979
2365.27
-253.012
2397.69
-286.574
2441.12
-320.849
2486.75
-355.202
2542.42
-388.46
2600.36
-419.732
2665.38
-447.745
2731.66
-471.66
2802.17
-490.401
2872.23
-503.155
2943.14
-508.982
3011.36
-507.619
3077.37
-499.507
3139.07
-486.65
3196.94
-471.322
3250.77
-455.558
3301.03
-440.548
3348.49
-427.585
3393.84
-417.714
3438.26
-411.138
3482.12
-406.892
3526.03
-403.998
3569.7
-402.346
3614.13
-402.502
3659.23
-405.017
3706.17
-409.694
3754.55
-415.554
3804.99
-421.397
3856.53
-426.27
3909.53
-429.831
3963.05
-432.234
4017.57
-434.019
4072.41
-435.827
4128.27
-438.368
4184.77
-442.247
4242.73
-448.003
4301.97
-455.969
4363.34
-466.277
4426.73
-478.711
4492.81
-492.709
4561.31
-507.365
4632.52
-521.742
4705.84
-533.078
-547.27
2090.97
-635.359
2093.98
-619.004
2076.68
-589.902
2046.35
-553.51
2003.82
-517.809
1948.18
-476.948
1881.82
-437.917
1810.2
-402.301
1729.62
-376.637
1649.83
-351.383
1559.33
-333.297
1488.59
-326.892
1421.97
-316.193
1339.64
-258.649
1257.18
-206.189
1160.21
-246.499
1109.79
-291.218
1091.29
-247.41
1082.99
-241.759
1082.02
-182.307
1031.45
62.3009
921.461
272.385
766.514
382.861
605.677
438.467
469.123
245.606
252.805
129.693
-127.936
303.253
-333.791
281.561
-178.489
-41.7305
59.8394
-307.6
254.274
-518.773
450.945
-677.13
661.164
-714.854
869.889
-763.728
1087.62
-826.688
1294.11
-863.275
1483.57
-856.536
1650.12
-808.891
1789.54
-732.255
1903.25
-640.042
1992.73
-543.075
2060.88
-448.926
2111.09
-362.665
2146.25
-287.542
2170
-225.525
2188.45
-177.155
2205.77
-142.816
2208.8
-123.684
2218.02
-112.984
2218.64
-112.611
2227.05
-118.316
2229.78
-131.733
2242.68
-150.862
2251.65
-176.316
2271.75
-207.768
2290.9
-243.444
2322.66
-282.313
2355.73
-322.983
2400.13
-364.493
2447.07
-405.735
2504
-445.427
2563.05
-482.002
2628.79
-514.335
2695.45
-541.334
2766.03
-562.129
2836.04
-575.717
2906.87
-581.204
2975.05
-578.033
3040.98
-566.872
3102.53
-549.96
3160.12
-530.382
3213.56
-510.452
3263.24
-491.654
3309.91
-475.426
3354.28
-463.351
3397.65
-455.536
3440.41
-450.71
3483.03
-447.403
3525.15
-445.434
3567.76
-445.704
3610.83
-448.953
3655.67
-455.003
3701.92
-462.531
3750.18
-470.006
3799.46
-476.169
3850.07
-480.66
3901
-483.656
3952.73
-485.869
4004.57
-488.045
4057.22
-491.061
4110.29
-495.605
4164.64
-502.341
4220.1
-511.655
4277.61
-523.743
4337.1
-538.363
4399.35
-554.903
4464.12
-572.257
4531.85
-589.417
4601.56
-602.847
-619.315
1834.06
-599.824
1784.97
-569.87
1722.75
-528.942
1656.7
-486.195
1586.83
-446.91
1510.46
-401.835
1428.82
-358.814
1346.41
-317.376
1257.14
-292.583
1173.43
-268.32
1080.55
-256.262
1019.58
-256.373
968.464
-261.062
897.505
-196.191
819.227
-115.446
707.751
-158.185
660.155
-248.747
659.737
-240.997
665.832
-245.89
673.808
-178.658
637.98
105.897
541.549
364.788
406.656
505.108
310.298
540.198
150.895
399.107
-195.749
472.68
-445.716
544.664
-380.673
207.719
-180.491
-250.144
12.0189
-499.446
213.576
-718.451
420.427
-887.163
640.808
-933.2
858.735
-981.685
1079.07
-1043.44
1285.64
-1069.25
1473.59
-1042.06
1637.83
-967.902
1774.62
-863.002
1885.53
-743.716
1972.17
-621.68
2037.69
-505.61
2085.61
-401.034
2118.83
-311.297
2140.95
-238.178
2158.05
-181.989
2174.23
-143.153
2176.54
-121.891
2185.08
-110.692
2185.3
-110.951
2193.25
-118.359
2195.69
-134.149
2208.35
-156.501
2217.2
-186.114
2237.28
-222.775
2256.51
-264.293
2288.41
-310.226
2321.82
-357.851
2366.52
-406.783
2413.59
-454.651
2470.04
-500.28
2527.79
-541.403
2591.31
-577.301
2655.05
-606.799
2722.33
-629.474
2789.12
-644.092
2857.17
-649.765
2923.17
-645.466
2987.45
-631.678
3047.69
-611.107
3104.23
-587.408
3156.71
-563.431
3205.36
-540.652
3250.75
-520.928
3293.7
-506.283
3335.62
-497.187
3376.93
-491.709
3418
-487.834
3458.27
-485.335
3498.76
-485.447
3539.54
-489.317
3582.08
-496.766
3626.08
-506.107
3672.17
-515.324
3719.23
-522.852
3767.53
-528.231
3815.99
-531.743
3865.07
-534.249
3914.03
-536.666
3963.61
-539.997
4013.4
-545.062
4064.29
-552.627
4116.14
-563.19
4169.95
-577.013
4225.73
-593.873
4284.39
-613.104
4345.75
-633.407
4410.35
-653.676
4477.08
-669.439
-688.965
1485.87
-543.91
1426.23
-509.051
1356.79
-460.415
1287.06
-415.062
1216.63
-374.608
1141.94
-326.932
1064.2
-281.276
987.791
-235.016
903.856
-212.446
828.132
-191.286
741.276
-191.15
696.958
-203.454
664.484
-224.277
604.201
-153.044
521.907
-9.919
382.253
-48.6031
328.656
-211.981
339.262
-237.378
359
-267.84
374.585
-174.797
343.834
150.55
246.793
456.478
120.298
623.091
37.6697
639.259
-204.152
644.266
-492.838
762.99
-517.785
570.488
-363.301
53.3948
-201.661
-414.544
-23.3083
-673.797
182.622
-921.239
391.516
-1098.53
617.125
-1157.9
843.163
-1208.78
1067
-1265.58
1274.22
-1277.09
1461.16
-1228.27
1623.6
-1128.12
1758.08
-994.981
1866.27
-848.159
1950.04
-701.489
2012.74
-564.18
2057.99
-442.139
2088.78
-338.416
2108.84
-254.717
2124.3
-191.213
2139.21
-147.774
2140.85
-123.85
2148.94
-111.55
2149.13
-111.761
2157.08
-119.911
2159.67
-137.508
2172.35
-163.052
2180.96
-196.612
2200.5
-238.621
2219.02
-286.413
2250.3
-339.282
2283.26
-394.326
2327.35
-450.315
2372.96
-503.946
2426.41
-553.894
2479.24
-597.515
2536.03
-635.021
2591.81
-665.621
2650.76
-689.615
2709.75
-705.671
2771.34
-712.767
2832.57
-708.978
2893.74
-694.31
2952.16
-671.355
3007.79
-644.578
3059.91
-617.081
3108.29
-590.535
3153.17
-567.077
3195.39
-549.866
3236.62
-539.557
3277.32
-533.583
3317.64
-529.048
3356.83
-525.622
3395.88
-525.208
3435.01
-529.441
3475.92
-538.264
3518.42
-549.456
3563.12
-560.453
3608.79
-569.243
3655.62
-575.343
3702.41
-579.106
3749.63
-581.629
3796.47
-583.96
3843.69
-587.301
3890.86
-592.562
3938.89
-600.677
3987.68
-612.236
4038.32
-627.631
4090.91
-646.651
4146.48
-668.632
4204.95
-692.015
4267.03
-715.709
4331.5
-733.986
-757.334
1209.25
-482.55
1143.83
-443.427
1070.31
-388.691
1000.28
-343.118
933.482
-306.035
865.326
-260.911
797.047
-217.103
733.388
-167.794
661.971
-149.636
600.732
-132.342
522.271
-140.191
491.699
-157.897
472.061
-193.559
419.283
-116.964
324.199
105.501
148.046
85.9319
99.2069
-177.439
115.614
-243.167
144.667
-296.075
157.522
-161.88
115.215
208.22
3.49166
564.339
-90.5831
707.022
-232.743
788.408
-504.727
913.922
-611.986
868.08
-520.923
473.65
-368.014
-105.648
-231.589
-556.613
-47.452
-857.975
159.049
-1127.6
369.417
-1312.4
597.653
-1386.2
828.699
-1441.16
1055.01
-1490.15
1262.95
-1485.52
1449.18
-1413.24
1610.11
-1285.08
1742.57
-1122.59
1848.22
-947.569
1929.1
-775.052
1988.83
-615.448
2031.23
-475.022
2059.44
-356.911
2077.3
-262.673
2091.01
-192.132
2104.6
-145.161
2105.46
-120.053
2113.01
-107.95
2112.95
-109.342
2120.57
-119.384
2122.74
-139.394
2134.69
-167.691
2142.04
-204.757
2160.15
-251.376
2177.41
-305.086
2208.03
-365.72
2240.5
-428.159
2283.13
-490.4
2324.75
-547.474
2370.67
-598.136
2412.02
-640.602
2454.15
-676.521
2493.31
-706.514
2535.46
-731.714
2579.06
-750.807
2628.18
-762.281
2680.56
-762.732
2736.48
-750.633
2792.56
-728.247
2848.04
-700.393
2901.29
-670.686
2951.21
-640.623
2997.34
-613.147
3040.53
-592.88
3082.78
-581.394
3124.68
-575.045
3166.07
-569.691
3205.86
-564.956
3245.02
-563.514
3283.95
-567.896
3324.71
-578.152
3367.23
-591.481
3412.14
-604.473
3458.01
-614.648
3504.93
-621.403
3551.56
-625.286
3598.34
-627.597
3644.4
-629.62
3690.51
-632.682
3736.18
-637.864
3782.39
-646.224
3829.02
-658.533
3877.3
-675.318
3927.41
-696.467
3980.57
-721.303
4036.82
-748.061
4097.09
-775.608
4160.12
-796.878
-825.343
966.324
-420.153
901.761
-377.202
832.972
-321.386
772.439
-280.338
718.737
-249.221
664.93
-207.187
612.324
-164.729
566.806
-113.899
512.755
-101.037
468.791
-87.2005
395.459
-99.743
369.847
-117.546
360.414
-176.638
324.713
-125.22
211.352
271.74
-7.45146
257.372
-37.5007
-169.116
-23.2319
-231.346
14.2987
-337.371
12.0582
-118.523
-64.0295
302.928
-153.16
646.816
-268.787
817.775
-486.553
1015.11
-671.361
1101.45
-651.093
849.451
-524.261
348.911
-387.325
-240.686
-248.857
-696.124
-63.9721
-1039.36
139.986
-1328.85
352.63
-1526.43
582.575
-1615.26
816.476
-1675.71
1043.76
-1716.03
1251.89
-1694.11
1437.38
-1598.14
1596.77
-1442.66
1727.22
-1251
1830.47
-1047.55
1908.7
-849.81
1965.73
-668.848
2005.51
-511.173
2031.25
-379.527
2046.88
-275.351
2058.67
-198.268
2070.65
-147.605
2070.41
-120.594
2077.05
-107.918
2076.37
-109.488
2083.31
-120.176
2084.65
-141.64
2095.34
-172.284
2100.88
-212.431
2117.38
-264.184
2133.8
-325.39
2164.5
-394.323
2196.17
-463.529
2234.79
-528.552
2266.7
-583.261
2296.31
-627.931
2315
-662.791
2330.03
-692.511
2339.92
-719.626
2353.45
-746.476
2371.47
-771.549
2400.25
-792.511
2438.6
-803.493
2486.8
-800.338
2540.42
-783.795
2597.39
-758.965
2654.62
-729.555
2709.37
-696.977
2759.92
-665.103
2807.01
-641.455
2853.25
-628.926
2899.41
-622.522
2944.91
-616.224
2988.12
-609.43
3029.91
-606.167
3070.99
-610.143
3113.91
-621.768
3158.77
-637.333
3206.22
-652.421
3254.59
-663.838
3303.81
-670.954
3352.36
-674.488
3400.63
-676.079
3447.69
-677.195
3494.29
-679.391
3539.89
-683.86
3585.5
-691.869
3631.02
-704.361
3677.78
-722.088
3726.13
-745.046
3777.51
-772.656
3832.13
-802.865
3891.24
-834.689
3953.53
-859.251
-894.553
771.361
-363.055
716.098
-321.465
660.439
-268.429
616.12
-233.226
579.275
-209.679
540.388
-172.095
501.835
-132.177
471.341
-80.0198
431.291
-72.5431
398.779
-59.9247
320.834
-61.7816
290.522
-64.5537
290.435
-153.288
259.018
-132.738
134.758
440.352
-88.2895
411.127
-71.17
-214.823
-78.6725
-200.033
-51.1709
-363.317
-89.2402
-34.2428
-180.496
413.843
-264.509
728.991
-450.154
1001.3
-675.574
1245.2
-752.82
1177.74
-667.402
762.167
-530.704
206.772
-404.786
-370.882
-260.619
-845.345
-77.1616
-1223.68
124.536
-1531.56
338.685
-1744.27
569.535
-1847.13
805.05
-1913.18
1032.69
-1942.95
1240.55
-1902.98
1425.3
-1782.21
1583.32
-1597.45
1711.79
-1375.36
1812.65
-1142.69
1888.23
-918.3
1942.51
-714.532
1979.58
-538.253
2002.73
-392.247
2016.02
-277.844
2025.79
-194.507
2036.18
-141.216
2034.83
-113.985
2040.61
-102.169
2039.28
-105.276
2045.36
-117.767
2045.38
-141.07
2054.11
-173.261
2057.26
-216.162
2072.47
-273.711
2089.09
-343.442
2120.18
-421.153
2148.6
-493.693
2176.82
-554.331
2188.57
-597.473
2188.69
-626.471
2170.16
-646.471
2143.87
-665.64
2111.5
-689.326
2085.34
-720.324
2068.63
-756.613
2070.14
-794.475
2089.74
-824.647
2127.72
-838.757
2178.41
-835.396
2238.39
-819.317
2302.62
-794.149
2365.93
-760.476
2424.51
-723.644
2478.82
-695.68
2532.42
-682.172
2586.43
-676.195
2639.63
-668.722
2689.54
-658.951
2736.88
-652.65
2782.69
-655.529
2830.25
-668.413
2879.92
-686.542
2932.36
-703.929
2985.56
-716.585
3039.28
-723.755
3091.77
-726.52
3143.39
-726.837
3193.09
-726.497
3241.65
-727.18
3288.43
-730.281
3334.49
-737.231
3379.72
-749.255
3425.64
-767.387
3472.75
-791.875
3522.87
-822.277
3576.46
-856.284
3635.2
-893.064
3697.62
-921.547
-966.532
630.173
-314.577
589.603
-278.66
550.55
-231.515
522.409
-201.898
499.296
-181.923
470.377
-143.242
440.072
-101.132
417.829
-47.4926
385.413
-45.2321
356.248
-28.944
262.306
-9.96503
229.626
-8.01563
228.711
-142.267
161.584
-128.743
65.8715
589.591
-91.4263
486.168
-56.0096
-269.475
-72.4599
-135.115
-101.07
-338.409
-163.58
59.124
-257.607
520.196
-404.437
870.755
-633.109
1227.38
-792.412
1410.07
-788.133
1175.64
-682.985
658.924
-546.627
73.7071
-420.317
-494.695
-271.58
-993.95
-88.9365
-1402.89
113.12
-1730.78
327.12
-1958.56
558.28
-2076.91
794.01
-2148.81
1021.74
-2169.06
1229.41
-2110.67
1413.38
-1965.55
1569.96
-1752.4
1696.34
-1499.98
1794.64
-1238.17
1867.38
-988.201
1918.74
-762.999
1952.92
-569.612
1973.29
-410.312
1984.01
-286.372
1991.54
-197.199
2000.08
-140.938
1997.42
-112.59
2002.14
-100.802
1999.98
-104.135
2004.86
-116.719
2002.95
-140.238
2009.13
-173.252
2010.14
-219.522
2025.49
-285.256
2043.41
-365.518
2073.21
-448.795
2091.88
-516.445
2098.84
-560.719
2076.87
-579.975
2034.02
-583.731
1967.02
-583.574
1891.78
-591.439
1812.97
-614.285
1745.32
-654.011
1692.74
-707.192
1665.43
-768.746
1663.58
-825.552
1687.59
-864.383
1731.37
-881.397
1791.36
-881.073
1861.21
-865.885
1932.88
-833.972
1999.54
-791.966
2061.11
-758.98
2122.62
-745.214
2185.79
-740.911
2248.4
-732.548
2306.62
-718.688
2360.73
-707.778
2412.18
-708.377
2465.18
-722.215
2520.51
-743.041
2578.85
-762.822
2637.81
-776.507
2696.93
-783.247
2754.23
-784.591
2810.08
-782.922
2863.31
-780.352
2914.75
-778.741
2963.65
-779.652
3011.08
-784.72
3056.97
-795.511
3103.02
-813.463
3150.03
-839.182
3200.28
-872.523
3254.51
-910.741
3314.96
-953.492
3379.85
-986.551
-1044.38
540.528
-283.514
517.463
-254.867
491.664
-209.235
473.259
-180.128
457.012
-162.404
432.265
-123.87
405.579
-81.7789
387.117
-26.854
358.388
-29.8221
326.075
-4.71065
215.901
46.5995
188.255
52.3792
174.017
-96.8465
47.282
-30.9749
46.6285
627.495
-47.4021
478.713
11.6582
-356.614
-18.6784
-72.5812
-156.703
-196.376
-231.885
160.246
-350.462
652.229
-553.415
1073.52
-769.18
1443.43
-853.424
1498.62
-801.135
1122.86
-692.189
548.175
-561.749
-61.506
-432.125
-628.032
-280.428
-1150.36
-98.9541
-1585.61
103.133
-1934.19
316.591
-2175.35
548.137
-2309.61
783.482
-2386.17
1011.08
-2396.32
1218.62
-2319.29
1401.79
-2148.16
1556.76
-1904.52
1680.82
-1620.41
1776.3
-1328.26
1845.94
-1050.86
1894.07
-802.4
1925.08
-590.219
1942.38
-416.581
1950.23
-282.827
1955.28
-188.132
1961.86
-130.288
1957.81
-102.66
1961.51
-92.5574
1958.37
-97.5417
1961.57
-110.991
1956.93
-134.668
1960.38
-168.397
1960.49
-220.042
1977.75
-296.693
1996.05
-385.866
2018.57
-467.278
2016.79
-517.458
1990.42
-532.168
1925.08
-518.198
1835.8
-492.926
1724.35
-475.201
1611.09
-477.693
1500.13
-506.17
1404.81
-558.946
1326.12
-631.001
1273.9
-717.313
1247.78
-801.607
1249.04
-866.424
1273.37
-907.12
1320.11
-928.558
1383.63
-930.152
1453.4
-904.324
1518.9
-857.743
1579.65
-820.029
1642.93
-808.452
1711.16
-809.131
1780.42
-801.324
1844.57
-782.636
1902.88
-765.273
1957.13
-762.296
2012.87
-777.051
2071.57
-801.374
2134.09
-824.431
2197.7
-839.725
2261.74
-846.366
2324
-846.446
2384.85
-842.882
2443
-838.127
2499.24
-834.173
2552.68
-832.72
2604.35
-835.641
2654.13
-844.92
2703.95
-862.6
2754.84
-889.774
2809.55
-926.697
2869.03
-970.047
2936.27
-1020.35
3008.76
-1058.91
-1132.29
502.886
-259.395
484.308
-233.658
461.93
-189.259
446.353
-160.888
432.458
-142.831
408.955
-100.498
383.54
-54.703
366.393
1.2977
338.583
-6.7764
298.977
37.4503
184.642
111.386
168.668
93.7345
138.625
-62.0165
-13.9956
79.1685
-3.57857
651.494
-79.8474
502.773
-130.008
-316.217
-77.8761
-100.058
-192.466
-86.4057
-287.592
273.127
-449.012
820.089
-677.539
1297.86
-852.692
1615.86
-884.693
1534.58
-808.062
1047.8
-695.895
438.11
-574.049
-179.44
-442.614
-756.793
-287.815
-1304.26
-106.821
-1763.12
94.1046
-2132.06
307.837
-2388.53
539.488
-2539.39
774.182
-2620.14
1001.27
-2621.51
1208.51
-2526.04
1390.67
-2329.42
1543.74
-2055.84
1665.16
-1739.98
1757.54
-1417.77
1823.79
-1114.3
1868.43
-844.298
1895.98
-615.199
1909.89
-428.63
1914.51
-285.888
1916.72
-186.11
1921.02
-126.438
1915.36
-98.7655
1917.83
-89.511
1913.38
-94.2952
1914.23
-106.026
1906.42
-128.091
1908.07
-163.657
1909.41
-223.885
1928.82
-311.969
1942.32
-403.992
1947.87
-470.345
1915.67
-490.216
1851.92
-467.672
1749.16
-421.194
1631.42
-375.273
1502.71
-351.829
1382.11
-358.369
1266.31
-395.228
1162.96
-457.25
1068.32
-540.391
992.287
-643.176
934.388
-747.226
898.407
-832.384
884.431
-896.023
897.588
-943.918
934.566
-969.663
982.944
-955.08
1029.15
-906.202
1074.03
-867.165
1128.01
-864.463
1193.39
-876.52
1262.81
-872.321
1326.47
-848.314
1382.08
-822.167
1432.23
-814.269
1485.01
-830.815
1543.39
-861.245
1608.66
-890.395
1677.51
-909.799
1748.76
-918.102
1819.55
-918.231
1889.98
-913.619
1958.33
-907.263
2025.23
-901.247
2089.44
-897.512
2151.83
-898.108
2212.06
-905.616
2272.15
-922.725
2333.18
-951.171
2398.35
-991.879
2468.86
-1040.84
2548.62
-1100.09
2634.06
-1144.5
-1234.62
477.628
-238.832
461.844
-216.979
441.799
-173.267
428.232
-143.778
416.029
-127.13
393.442
-84.6925
369.329
-39.1292
353.291
17.84
325.21
6.13081
283.897
68.5385
179.596
160.14
167.035
137.68
119.284
10.516
-42.3468
224.815
-110.124
743.095
-186.61
534.203
-162.861
-357.428
-86.6822
-163.952
-209.708
40.1962
-343.63
424.583
-544.631
1029.43
-768.92
1522.37
-904.094
1751.87
-905.156
1539.46
-814.189
956.128
-702.764
324.781
-585.757
-300.3
-450.805
-895.391
-295.154
-1464.44
-114.307
-1945.39
85.4559
-2333.13
299.954
-2605.92
531.272
-2771.79
765.223
-2856
991.714
-2847.77
1198.51
-2733.72
1379.52
-2509.63
1530.45
-2203.88
1648.9
-1854.8
1737.77
-1500.95
1800.22
-1169.16
1840.97
-875.378
1864.7
-627.334
1874.86
-426.502
1875.92
-274.393