/*--------------------------------*- C++ -*----------------------------------*\
| =========                 |                                                 |
| \\      /  F ield         | OpenFOAM: The Open Source CFD Toolbox           |
|  \\    /   O peration     | Version:  4.1                                   |
|   \\  /    A nd           | Web:      www.OpenFOAM.org                      |
|    \\/     M anipulation  |                                                 |
\*---------------------------------------------------------------------------*/
FoamFile
{
    version     2.0;
    format      ascii;
    class       volVectorField;
    location    "19";
    object      U;
}
// * * * * * * * * * * * * * * * * * * * * * * * * * * * * * * * * * * * * * //

dimensions      [0 1 -1 0 0 0 0];

internalField   nonuniform List<vector> 
26785
(
(2.69528e-16 -0.000623066 14.1537)
(2.53475e-16 0.00100867 14.1461)
(3.00889e-16 0.000457237 14.1326)
(-5.09918e-15 0.000370556 14.1256)
(3.43285e-16 0.000400487 14.1303)
(-5.47147e-16 0.000257093 14.1292)
(-6.40247e-16 0.000137714 14.1248)
(-1.31611e-15 0.000101397 14.1381)
(-1.94784e-15 -9.38674e-05 14.1509)
(4.90704e-15 -0.000198328 14.165)
(-2.17408e-15 -0.000511861 14.1692)
(-5.90882e-16 -0.00110138 14.1915)
(-6.39558e-16 -0.000941876 14.2409)
(-5.58944e-16 -0.000879419 14.2518)
(-5.07852e-16 -0.00104778 14.2891)
(-4.47992e-16 -0.00240809 14.3357)
(-5.18241e-16 -0.00091918 14.3587)
(-9.3538e-16 0.00361622 14.3848)
(-2.46244e-15 0.00523798 14.3496)
(-7.30729e-15 0.00770143 14.2739)
(2.26483e-15 0.0124554 14.1773)
(4.82224e-16 0.0124793 14.0373)
(-8.49497e-16 0.00596766 13.9285)
(-2.35502e-15 -0.00147102 13.9257)
(-3.16351e-15 -0.00483579 14.0042)
(-2.77942e-15 -0.00275536 14.0831)
(-2.87667e-15 0.00167044 14.101)
(-2.69456e-15 0.00366987 14.069)
(-1.43272e-15 0.00111814 14.0476)
(1.19575e-14 -0.00263867 14.0706)
(-9.41701e-15 -0.00597662 14.132)
(1.00009e-16 -0.00990188 14.2239)
(-1.55029e-14 -0.0148857 14.3616)
(-1.0446e-14 -0.0189624 14.5456)
(5.06002e-15 -0.0214086 14.7598)
(-5.73104e-15 -0.0224238 14.9861)
(-5.52981e-15 -0.0223471 15.2112)
(-5.2268e-15 -0.0211159 15.4285)
(-4.90307e-15 -0.0189047 15.6296)
(-4.85904e-15 -0.0160699 15.8067)
(-4.14828e-15 -0.0130424 15.9569)
(-3.8553e-15 -0.010122 16.0796)
(-3.37321e-15 -0.00746688 16.1766)
(-3.66761e-15 -0.00518755 16.2508)
(-2.71898e-15 -0.00332964 16.3053)
(-1.9062e-15 -0.00192463 16.345)
(-5.69705e-15 -0.00100192 16.3779)
(-4.49199e-15 -0.000269268 16.4007)
(-4.03086e-15 -7.87751e-05 16.4149)
(-4.32132e-15 4.35706e-05 16.425)
(-6.12158e-15 -0.000194588 16.4334)
(-2.89962e-15 -0.000445874 16.442)
(-2.81664e-15 -0.00097974 16.4528)
(-2.79914e-15 -0.00149099 16.4665)
(-2.68668e-15 -0.00221415 16.4836)
(-2.54586e-15 -0.0028448 16.5044)
(-2.69222e-15 -0.00352672 16.5294)
(-2.68815e-15 -0.00403911 16.5582)
(-2.58173e-15 -0.00451135 16.5895)
(-2.75791e-15 -0.00481167 16.6229)
(-2.74165e-15 -0.00504462 16.6575)
(-2.69312e-15 -0.00512129 16.6931)
(-2.56544e-15 -0.00511521 16.7279)
(-2.72721e-15 -0.00496841 16.7621)
(-2.71515e-15 -0.00471388 16.7944)
(-2.65976e-15 -0.00431066 16.8246)
(-2.6008e-15 -0.00378677 16.8514)
(-2.53788e-15 -0.00313465 16.8745)
(-2.49547e-15 -0.00241039 16.8931)
(-2.39147e-15 -0.00165554 16.9073)
(-2.55051e-15 -0.000948539 16.9168)
(-2.55187e-15 -0.000335315 16.9224)
(-2.5163e-15 0.000150977 16.9245)
(-2.45759e-15 0.000487312 16.9241)
(-2.45399e-15 0.000670597 16.922)
(-2.20279e-15 0.000712661 16.919)
(-2.10907e-15 0.000639239 16.9158)
(-2.0507e-15 0.000475021 16.9129)
(-1.98442e-15 0.000236074 16.9107)
(-1.93685e-15 -7.73134e-05 16.9096)
(-1.83815e-15 -0.00045133 16.9098)
(-1.97905e-15 -0.000872627 16.9116)
(-1.97959e-15 -0.00131131 16.9152)
(-1.87086e-15 -0.00174393 16.9205)
(-2.11636e-16 -0.00214834 16.9273)
(-2.00143e-15 -0.00252122 16.9355)
(-1.90111e-15 -0.00286573 16.9449)
(-1.60754e-15 -0.00319622 16.9553)
(-6.25357e-16 -0.00353095 16.9668)
(-2.36693e-15 -0.00388717 16.9792)
(-1.85981e-15 -0.00428304 16.9928)
(-1.86912e-15 -0.00472652 17.0076)
(-1.78042e-15 -0.00522707 17.0239)
(-1.7158e-15 -0.00577128 17.0419)
(-1.63308e-15 -0.00636687 17.0617)
(-8.56319e-16 -0.00693169 17.0835)
(-1.61245e-15 -0.00758905 17.1067)
(-1.54247e-15 -0.00787489 17.1329)
(-1.50064e-15 -0.0097913 17.1558)
(-1.42985e-15 -0.00839108 17.1996)
(4.23886e-16 0.00130103 15.1725)
(-5.02316e-18 0.00543912 15.1914)
(-6.8228e-17 0.00376991 15.2093)
(2.81204e-16 0.00391591 15.2351)
(7.40254e-15 0.00402866 15.2759)
(-6.9892e-16 0.00373406 15.3098)
(6.69899e-15 0.00345383 15.3377)
(-3.85192e-16 0.00275024 15.3882)
(1.55753e-15 0.00212179 15.4387)
(2.34955e-15 0.0012106 15.4915)
(3.3806e-16 0.000333786 15.5355)
(2.57021e-16 -0.00231785 15.6036)
(9.80463e-17 -0.00241933 15.7074)
(8.3807e-16 -0.0020386 15.7678)
(3.03158e-16 -0.0038694 15.8555)
(1.05964e-15 -0.00802499 15.9535)
(6.61925e-15 -0.00289776 16.0172)
(-4.56541e-15 0.0114868 16.0757)
(-2.55457e-15 0.0170545 16.0721)
(2.02622e-15 0.0238017 16.0331)
(-1.27926e-15 0.037544 15.9784)
(-8.40744e-15 0.0367468 15.8897)
(-2.11361e-15 0.0153063 15.8438)
(3.14476e-15 -0.00724365 15.9013)
(7.1548e-16 -0.0156068 16.0179)
(5.49908e-16 -0.00643385 16.1096)
(2.58084e-16 0.00869389 16.1302)
(1.77523e-16 0.0141246 16.11)
(1.71334e-15 0.00516923 16.1149)
(1.32278e-14 -0.006856 16.171)
(1.19355e-14 -0.0171383 16.2687)
(-1.83197e-15 -0.0297209 16.4009)
(-2.10126e-15 -0.0447085 16.578)
(-1.03358e-15 -0.056148 16.7931)
(-3.89133e-15 -0.0622411 17.0272)
(-3.3201e-15 -0.0643532 17.2633)
(-1.08072e-15 -0.0635094 17.4902)
(-1.14652e-15 -0.0595194 17.7033)
(-7.02797e-16 -0.0527858 17.8954)
(-3.27186e-16 -0.0444198 18.0605)
(-2.49647e-16 -0.0355099 18.1967)
(-2.10407e-15 -0.0268625 18.3044)
(1.37688e-15 -0.0189191 18.3863)
(4.50493e-15 -0.0119441 18.4454)
(1.457e-15 -0.0061119 18.4851)
(2.24097e-15 -0.00149009 18.51)
(3.63959e-15 0.00183751 18.5277)
(9.32905e-16 0.00439972 18.5352)
(3.44457e-15 0.00553724 18.5342)
(6.4926e-16 0.00625584 18.5287)
(-6.01487e-16 0.00594545 18.521)
(2.18337e-15 0.005384 18.5125)
(1.77989e-15 0.00395861 18.5049)
(3.84176e-15 0.00243001 18.4985)
(1.22617e-15 0.000240145 18.4936)
(1.61664e-15 -0.00176489 18.4903)
(3.82438e-15 -0.00396954 18.4889)
(1.10856e-15 -0.0056964 18.4891)
(1.33796e-15 -0.00731565 18.4895)
(1.74035e-15 -0.00842537 18.4902)
(1.69511e-15 -0.00932289 18.4904)
(1.64222e-15 -0.00976578 18.4902)
(2.05154e-15 -0.00995952 18.4884)
(2.28268e-15 -0.00974469 18.4854)
(2.26123e-15 -0.00922361 18.4803)
(2.38319e-15 -0.00827598 18.4732)
(2.43237e-15 -0.00697688 18.4633)
(2.59206e-15 -0.00529935 18.4503)
(2.27517e-15 -0.0033947 18.4338)
(2.24569e-15 -0.00137182 18.4135)
(2.3305e-15 0.000571529 18.3892)
(2.1906e-15 0.00231292 18.3613)
(2.21778e-15 0.00374948 18.3299)
(2.207e-15 0.00482306 18.2957)
(2.47676e-15 0.00551281 18.259)
(2.38545e-15 0.0058533 18.2205)
(2.39724e-15 0.00589666 18.1807)
(2.08778e-15 0.00570491 18.1398)
(9.73572e-16 0.0053055 18.0981)
(3.21634e-15 0.00470841 18.0559)
(2.98605e-15 0.003936 18.0134)
(2.03481e-15 0.00302624 17.9709)
(1.61752e-15 0.00205193 17.9286)
(3.14678e-15 0.00107662 17.8866)
(3.58545e-15 0.000159094 17.8449)
(2.31519e-15 -0.000684361 17.8032)
(2.16595e-15 -0.00145717 17.7616)
(2.672e-15 -0.00219317 17.72)
(2.37607e-15 -0.00293212 17.6783)
(2.08569e-15 -0.00371912 17.6366)
(2.18102e-15 -0.00459276 17.5949)
(2.27308e-15 -0.00557796 17.5535)
(2.24378e-15 -0.00669054 17.5125)
(2.87284e-15 -0.00790924 17.4721)
(2.0057e-15 -0.00922339 17.4326)
(1.93575e-15 -0.0105218 17.394)
(1.81484e-15 -0.0118404 17.3566)
(1.82053e-15 -0.0126327 17.3193)
(1.78576e-15 -0.0157519 17.2861)
(1.67734e-15 -0.0144493 17.2386)
(3.83514e-16 0.00562595 16.3805)
(5.21141e-16 0.0104862 16.4404)
(3.40392e-15 0.00755054 16.5061)
(2.6386e-15 0.00750288 16.5806)
(2.91976e-15 0.00730576 16.6688)
(9.01976e-16 0.00688545 16.7505)
(-1.40589e-15 0.00625089 16.8266)
(3.92075e-15 0.00458029 16.9209)
(2.34216e-15 0.00385629 17.0119)
(2.66166e-15 0.0022189 17.1016)
(2.51104e-15 0.00105775 17.1795)
(2.36856e-15 -0.00379368 17.276)
(2.38871e-15 -0.0044022 17.3996)
(2.31313e-15 -0.00277195 17.4816)
(3.40665e-15 -0.00668496 17.5849)
(2.52326e-15 -0.0127889 17.694)
(3.65955e-15 -0.00427631 17.7686)
(-5.78288e-16 0.0181007 17.8318)
(3.91357e-16 0.0266333 17.8374)
(-8.68186e-15 0.0363939 17.8118)
(4.13968e-16 0.0576412 17.7668)
(-4.97405e-15 0.0559374 17.6822)
(4.46868e-15 0.0220955 17.6249)
(4.33756e-15 -0.011824 17.6495)
(3.8985e-15 -0.0222754 17.7258)
(3.15426e-15 -0.00569777 17.7877)
(2.48679e-15 0.018687 17.7904)
(2.58002e-15 0.0258405 17.753)
(2.38665e-15 0.010151 17.7311)
(2.65087e-15 -0.00989139 17.7499)
(5.51652e-15 -0.0264706 17.7962)
(3.02422e-15 -0.0461803 17.8532)
(-4.72479e-15 -0.0685323 17.9272)
(2.54827e-15 -0.0852588 18.0189)
(9.0356e-16 -0.0938759 18.1173)
(1.29375e-15 -0.0971209 18.211)
(1.81114e-15 -0.096251 18.2917)
(2.68841e-15 -0.090809 18.3564)
(3.19226e-15 -0.0811148 18.4002)
(3.4992e-15 -0.0687076 18.419)
(3.68258e-15 -0.0552636 18.4128)
(3.79319e-15 -0.042072 18.383)
(3.96697e-15 -0.0298939 18.3328)
(4.1138e-15 -0.0191978 18.265)
(4.19831e-15 -0.0102947 18.1828)
(4.23373e-15 -0.00322805 18.0904)
(4.27573e-15 0.00198596 17.9944)
(4.3933e-15 0.00546844 17.8912)
(4.42018e-15 0.00737564 17.7812)
(4.3333e-15 0.00817833 17.6679)
(4.30562e-15 0.00800457 17.5522)
(4.15621e-15 0.00713193 17.4347)
(4.07859e-15 0.00554632 17.3156)
(3.90162e-15 0.00348418 17.1947)
(4.11211e-15 0.000908918 17.0714)
(6.05859e-15 -0.00175734 16.9463)
(3.18071e-15 -0.00436392 16.8204)
(2.11453e-15 -0.00671055 16.6948)
(2.07761e-15 -0.00866545 16.5697)
(3.00536e-15 -0.0102873 16.4466)
(2.71969e-15 -0.0114246 16.3264)
(2.36604e-15 -0.0122779 16.2104)
(2.1733e-15 -0.0126638 16.0986)
(2.1036e-15 -0.01275 15.9923)
(1.7291e-15 -0.0123205 15.8913)
(1.5065e-15 -0.011483 15.7964)
(1.57704e-15 -0.0100652 15.7066)
(1.48969e-15 -0.00816754 15.6222)
(1.37617e-15 -0.00580114 15.5419)
(1.27977e-15 -0.00318296 15.465)
(1.19119e-15 -0.000501814 15.3899)
(1.48314e-15 0.00205151 15.3161)
(3.28026e-15 0.00433931 15.2424)
(2.17072e-15 0.00626686 15.1681)
(1.49056e-16 0.00774612 15.0928)
(6.6855e-16 0.00882338 15.0162)
(6.38404e-16 0.00952787 14.9382)
(6.30602e-16 0.00997071 14.8587)
(5.96265e-16 0.010135 14.7775)
(5.47934e-16 0.0100566 14.6946)
(5.78126e-16 0.00968882 14.6101)
(2.87239e-16 0.00911938 14.5242)
(-2.0722e-15 0.00839572 14.4373)
(2.84292e-16 0.00766511 14.3494)
(2.46955e-16 0.00697291 14.2608)
(-1.30541e-17 0.00640555 14.1713)
(-1.50154e-16 0.00591622 14.0811)
(-2.99542e-16 0.00550884 13.99)
(-4.37444e-16 0.00507969 13.8981)
(-8.25111e-16 0.00460509 13.8054)
(-1.04179e-15 0.00397958 13.7121)
(-1.30617e-15 0.00319334 13.6185)
(-1.46713e-15 0.00217622 13.5249)
(-1.50448e-15 0.000957385 13.4316)
(-1.82112e-15 -0.000435777 13.3394)
(-1.99508e-15 -0.0020055 13.2482)
(-2.20737e-15 -0.00333811 13.1595)
(-2.47992e-15 -0.00503934 13.0705)
(-2.56042e-15 -0.00484029 12.9944)
(-2.69701e-15 -0.00998998 12.8693)
(7.11821e-16 0.0123552 17.5855)
(-2.71385e-16 0.0156756 17.6712)
(2.82032e-15 0.0109942 17.7655)
(4.28394e-15 0.0106309 17.864)
(1.672e-15 0.0100763 17.9683)
(-1.52456e-15 0.00946202 18.0593)
(3.18789e-15 0.00860401 18.137)
(3.29483e-15 0.00639495 18.2226)
(4.00441e-15 0.00557153 18.297)
(2.50363e-15 0.00356101 18.3624)
(2.3143e-15 0.00209602 18.4093)
(2.87341e-15 -0.0043783 18.4655)
(2.86458e-15 -0.00532498 18.5399)
(3.36926e-15 -0.00238385 18.5671)
(3.65374e-15 -0.00778688 18.6039)
(4.57605e-15 -0.0162822 18.6375)
(6.1275e-15 -0.00468054 18.6378)
(9.62919e-15 0.0253023 18.6318)
(-4.45902e-15 0.0368933 18.5663)
(6.74983e-15 0.050159 18.4612)
(4.38423e-15 0.0806351 18.3229)
(4.93908e-15 0.0807036 18.1152)
(4.80544e-15 0.0360182 17.8969)
(4.7038e-15 -0.0108225 17.7424)
(4.73628e-15 -0.0291076 17.6728)
(4.8633e-15 -0.0105903 17.6505)
(4.59944e-15 0.0221594 17.5971)
(4.43833e-15 0.0339005 17.4789)
(4.20575e-15 0.0143373 17.3352)
(5.35234e-15 -0.0118612 17.2122)
(5.22893e-15 -0.0300162 17.0948)
(5.11956e-15 -0.0502719 16.942)
(4.10788e-15 -0.0754428 16.7646)
(5.69512e-15 -0.0966599 16.5883)
(8.14776e-15 -0.10946 16.415)
(1.07416e-15 -0.116107 16.2348)
(4.52367e-15 -0.116718 16.0385)
(6.47987e-15 -0.11068 15.825)
(6.4961e-15 -0.0987483 15.5948)
(6.03385e-15 -0.0832253 15.3493)
(5.95066e-15 -0.0664124 15.0921)
(6.97645e-15 -0.0499923 14.8254)
(3.35725e-15 -0.0349786 14.5523)
(6.23239e-15 -0.0219935 14.2748)
(2.22113e-15 -0.0114437 13.9948)
(1.51133e-15 -0.00319342 13.7152)
(4.16837e-15 0.00306681 13.4441)
(-9.16325e-16 0.00588328 13.172)
(2.6984e-15 0.00796184 12.9004)
(-8.96359e-16 0.00762899 12.6314)
(-8.82647e-16 0.00733516 12.3684)
(4.46536e-16 0.00545518 12.1104)
(-4.32075e-15 0.0040876 11.8599)
(5.23356e-17 0.00140189 11.6142)
(-4.44971e-15 -0.000834729 11.3741)
(-5.705e-15 -0.0041844 11.1392)
(-8.87881e-15 -0.00678409 10.9125)
(-5.37073e-15 -0.010384 10.6962)
(-6.84839e-15 -0.0132013 10.4916)
(-8.32209e-15 -0.0168689 10.3018)
(-8.67971e-15 -0.0197745 10.1285)
(-7.76019e-15 -0.0234241 9.97412)
(-8.2536e-15 -0.0264043 9.83804)
(-8.37041e-15 -0.0297421 9.72177)
(-8.48736e-15 -0.0322856 9.62398)
(-8.3083e-15 -0.0347024 9.54475)
(-8.55985e-15 -0.0360954 9.48154)
(-9.01525e-15 -0.0368264 9.43338)
(-9.07991e-15 -0.0364409 9.39708)
(-9.16398e-15 -0.0353406 9.3707)
(-8.67333e-15 -0.0335493 9.35101)
(-8.43311e-15 -0.0313695 9.33641)
(-1.0818e-14 -0.028963 9.32452)
(-9.00678e-15 -0.0265156 9.31414)
(-9.3294e-15 -0.0242498 9.3041)
(-7.8842e-15 -0.0221554 9.29395)
(-8.11728e-15 -0.0202728 9.28324)
(-7.95474e-15 -0.0184514 9.27158)
(-7.82867e-15 -0.0168135 9.25841)
(-7.7453e-15 -0.0153203 9.24354)
(-7.71596e-15 -0.014188 9.22698)
(-7.54785e-15 -0.0132854 9.20896)
(-7.21292e-15 -0.0126524 9.18982)
(-8.83692e-15 -0.012024 9.16973)
(-8.80673e-15 -0.0113986 9.14877)
(-7.89458e-15 -0.0105823 9.12686)
(-7.71727e-15 -0.00970597 9.104)
(-7.56782e-15 -0.00871245 9.08012)
(-7.91805e-15 -0.00782375 9.05537)
(-7.76353e-15 -0.00704422 9.02993)
(-4.82079e-15 -0.00660692 9.00428)
(-7.04168e-15 -0.00652214 8.9789)
(-7.25982e-15 -0.00696823 8.9546)
(-6.71178e-15 -0.00792719 8.93212)
(-6.71911e-15 -0.00938831 8.91245)
(-7.56709e-15 -0.0114043 8.89644)
(-5.58304e-15 -0.0132617 8.88406)
(-4.69897e-15 -0.0166017 8.87792)
(-5.22896e-15 -0.0119534 8.87348)
(-4.46094e-15 -0.0263832 8.87466)
(1.00979e-15 0.0209495 18.6034)
(1.35622e-15 0.0211674 18.6722)
(6.77901e-16 0.0147183 18.7345)
(3.35266e-15 0.0139863 18.7857)
(3.54195e-15 0.0132062 18.8288)
(1.85532e-15 0.0127098 18.8481)
(2.75711e-15 0.0118516 18.8441)
(2.38606e-15 0.00938465 18.8377)
(2.46073e-15 0.00838218 18.8128)
(2.92085e-15 0.00603213 18.7714)
(2.4767e-15 0.00412083 18.7044)
(1.1761e-15 -0.00386566 18.636)
(6.31009e-15 -0.00516362 18.5782)
(7.77298e-15 -0.000758693 18.4624)
(2.62336e-15 -0.00721477 18.3397)
(2.39599e-15 -0.0191744 18.2003)
(6.60432e-15 -0.00606231 18.0333)
(4.35929e-15 0.030553 17.8824)
(3.6823e-15 0.0445008 17.6699)
(3.32371e-15 0.06264 17.4043)
(3.49233e-15 0.106444 17.0914)
(4.42972e-15 0.114286 16.6628)
(4.47747e-15 0.0633802 16.1584)
(4.8341e-15 0.00111385 15.68)
(4.92352e-15 -0.0369379 15.3346)
(6.7903e-15 -0.0282487 15.1485)
(1.90298e-15 0.0104823 14.9973)
(1.21193e-15 0.0321113 14.7547)
(3.85096e-15 0.0128197 14.4337)
(3.45788e-15 -0.0170118 14.1296)
(2.8898e-15 -0.0305215 13.8379)
(2.33217e-15 -0.0455261 13.4705)
(-9.50567e-18 -0.0720091 13.0455)
(-4.9967e-15 -0.0970088 12.6225)
(8.61393e-15 -0.109329 12.2121)
(4.7201e-15 -0.112669 11.8009)
(8.74333e-16 -0.107324 11.3903)
(1.69289e-15 -0.0940467 10.9918)
(1.00162e-15 -0.0753598 10.6164)
(4.4013e-16 -0.0545319 10.2668)
(-4.39267e-16 -0.0342031 9.93945)
(-8.85118e-16 -0.0158999 9.62744)
(-3.63923e-15 -0.000388968 9.32641)
(-5.76071e-15 0.0119987 9.03255)
(-6.85907e-15 0.0211181 8.74343)
(-7.92699e-15 0.0274436 8.46038)
(-9.13087e-15 0.0320226 8.19589)
(-1.05325e-14 0.0308987 7.93318)
(-1.14406e-14 0.0304459 7.67375)
(-7.72814e-15 0.0257385 7.42336)
(-1.53675e-14 0.0224763 7.1887)
(-1.51155e-14 0.0163934 6.97108)
(-1.61583e-14 0.0124584 6.77547)
(-1.81725e-14 0.00612269 6.60075)
(-1.87514e-14 0.00134965 6.44772)
(-2.15853e-14 -0.00585364 6.31687)
(-1.49763e-14 -0.011708 6.21036)
(-1.55853e-14 -0.020086 6.12924)
(-2.1288e-14 -0.027411 6.07139)
(-1.47236e-14 -0.0367395 6.03753)
(-1.411e-14 -0.0449745 6.02567)
(-1.27378e-14 -0.0545884 6.03524)
(-1.22971e-14 -0.0630069 6.06179)
(-1.09218e-14 -0.0717592 6.10403)
(-9.17103e-15 -0.0789244 6.15789)
(-1.12701e-14 -0.0854633 6.2211)
(-1.06893e-14 -0.0899678 6.28914)
(-9.18509e-15 -0.0929627 6.35973)
(-9.08159e-15 -0.0938091 6.42921)
(-4.01026e-15 -0.0931803 6.49594)
(-7.83462e-15 -0.0911896 6.55785)
(-8.13176e-15 -0.0883704 6.61511)
(-5.75339e-15 -0.0849855 6.6674)
(-1.29078e-15 -0.0813877 6.71554)
(-7.27128e-15 -0.0779251 6.76029)
(-8.11464e-15 -0.0746415 6.80282)
(-1.09986e-14 -0.0715468 6.84401)
(-5.31335e-15 -0.0684513 6.88446)
(-6.1469e-15 -0.0655022 6.92439)
(-5.45021e-15 -0.0627449 6.96435)
(-4.90606e-15 -0.0604791 7.00492)
(-1.42867e-15 -0.0585926 7.0468)
(-5.33368e-15 -0.0570663 7.09047)
(-5.28399e-15 -0.0555568 7.13606)
(-5.44563e-15 -0.0539764 7.18337)
(-5.09387e-15 -0.0521187 7.23206)
(-4.60222e-15 -0.0501147 7.28178)
(-4.03951e-15 -0.0479846 7.33225)
(-3.53581e-15 -0.0459989 7.38344)
(-2.57638e-15 -0.044271 7.43544)
(-1.86395e-15 -0.0430816 7.48863)
(-1.44474e-15 -0.0425389 7.54344)
(-1.25056e-15 -0.0428353 7.60044)
(-5.01438e-16 -0.0439979 7.66023)
(-1.62414e-16 -0.0459922 7.7232)
(1.00603e-15 -0.0487153 7.79021)
(1.47739e-15 -0.0516418 7.85942)
(1.16765e-15 -0.0554666 7.93656)
(1.0394e-15 -0.0530398 8.00113)
(1.74496e-15 -0.0649327 8.12086)
(1.39364e-15 0.0292927 19.2016)
(1.74803e-15 0.0268543 19.147)
(2.43534e-15 0.0196345 19.0791)
(2.71847e-15 0.0187712 18.9995)
(2.43805e-15 0.017632 18.9096)
(3.01249e-15 0.0170585 18.7916)
(8.84471e-15 0.0159356 18.6419)
(2.5806e-15 0.013069 18.4791)
(2.85162e-15 0.0113509 18.2873)
(3.65594e-15 0.00856964 18.0692)
(3.82432e-15 0.00608555 17.815)
(4.09521e-15 -0.00328196 17.5477)
(3.73258e-15 -0.00492203 17.2867)
(3.56314e-15 0.00212955 16.9566)
(3.29889e-15 -0.00455988 16.6038)
(2.46595e-15 -0.0214179 16.2208)
(2.899e-15 -0.00992922 15.8289)
(2.20073e-15 0.0317387 15.5096)
(7.09793e-16 0.0486317 15.1395)
(1.75325e-15 0.072457 14.7134)
(4.31683e-15 0.13456 14.2461)
(4.41684e-15 0.159367 13.6184)
(5.08315e-15 0.11255 12.8243)
(6.20952e-15 0.0381866 11.9532)
(4.99102e-15 -0.0332069 11.2109)
(4.72622e-15 -0.054555 10.773)
(4.88249e-15 -0.0169901 10.5119)
(5.16227e-15 0.0207665 10.1626)
(8.71162e-15 0.00556959 9.66789)
(-3.99636e-15 -0.0347829 9.20212)
(-3.0217e-15 -0.0484263 8.85616)
(-8.05909e-15 -0.0515276 8.48823)
(-8.55831e-15 -0.0672971 8.0557)
(-1.24208e-15 -0.0874279 7.64323)
(3.80655e-15 -0.0922703 7.31115)
(2.08433e-15 -0.0874548 7.04421)
(-1.17602e-15 -0.0766286 6.85381)
(2.70175e-16 -0.0634591 6.75453)
(-1.68567e-15 -0.0495624 6.73661)
(-3.39897e-15 -0.0342734 6.76543)
(-7.90894e-15 -0.0179636 6.80612)
(-1.48682e-14 -0.00182511 6.83455)
(-9.43247e-15 0.013099 6.84033)
(-1.3481e-14 0.0260692 6.81899)
(-1.2649e-14 0.0365936 6.77122)
(-1.32172e-14 0.0444703 6.70326)
(-1.44502e-14 0.0503907 6.63215)
(-1.51914e-14 0.0504012 6.54821)
(-1.55801e-14 0.0502737 6.45049)
(-1.5052e-14 0.0454017 6.35115)
(-1.48862e-14 0.0406832 6.2553)
(-1.40299e-14 0.0328285 6.16832)
(-1.25591e-14 0.0257972 6.09443)
(-1.1063e-14 0.0163296 6.03599)
(-9.47322e-15 0.00711065 5.99358)
(-7.82284e-15 -0.00426708 5.96858)
(-5.77244e-15 -0.0152712 5.96172)
(-4.0921e-15 -0.0280449 5.97307)
(-3.50933e-15 -0.0402047 5.99903)
(-2.00992e-15 -0.0533998 6.03959)
(-4.10405e-16 -0.0655775 6.09236)
(1.50039e-15 -0.078019 6.1567)
(2.70702e-15 -0.0889807 6.22861)
(4.02368e-15 -0.0991828 6.30714)
(2.46233e-15 -0.107284 6.38899)
(2.91082e-15 -0.113691 6.47227)
(2.0396e-15 -0.11739 6.5532)
(1.49706e-15 -0.118671 6.62991)
(2.12439e-15 -0.11729 6.69942)
(-9.42147e-16 -0.114075 6.76061)
(4.8443e-15 -0.109548 6.81232)
(2.79818e-15 -0.104459 6.8556)
(2.85951e-15 -0.0992094 6.89121)
(2.97141e-15 -0.0942852 6.92084)
(3.97885e-15 -0.0900535 6.94627)
(3.96108e-15 -0.0865594 6.96953)
(3.5942e-15 -0.0836284 6.99219)
(-3.17547e-17 -0.0809804 7.01533)
(4.68435e-15 -0.0786703 7.03946)
(4.7064e-15 -0.0768358 7.06541)
(5.55583e-15 -0.0757352 7.0939)
(9.21421e-15 -0.0752647 7.12574)
(3.81565e-15 -0.0752109 7.16137)
(3.83794e-15 -0.075142 7.20076)
(2.8109e-15 -0.074801 7.24347)
(3.23178e-15 -0.0740025 7.2889)
(4.25451e-15 -0.0728431 7.33646)
(4.40783e-15 -0.0714603 7.38569)
(4.44204e-15 -0.0701505 7.43637)
(4.05733e-15 -0.0691553 7.48847)
(3.57025e-15 -0.0687758 7.54218)
(3.624e-15 -0.0692114 7.59781)
(3.40837e-15 -0.0706436 7.65575)
(3.13993e-15 -0.0731159 7.71645)
(2.53999e-15 -0.0765538 7.78009)
(1.41561e-15 -0.0807223 7.84744)
(1.25477e-15 -0.0851709 7.91653)
(9.2263e-16 -0.0897441 7.99328)
(5.32437e-16 -0.0913454 8.05545)
(-9.0312e-16 -0.0985553 8.17457)
(1.78643e-15 0.0364823 18.9922)
(1.09698e-15 0.031044 18.8146)
(2.53558e-15 0.0231371 18.6186)
(9.43485e-15 0.0217996 18.4005)
(1.65856e-15 0.0201141 18.1551)
(2.50708e-15 0.0197134 17.8612)
(3.58791e-15 0.0188361 17.512)
(4.2106e-15 0.0162387 17.1299)
(3.37082e-15 0.0140177 16.7041)
(2.33581e-15 0.0112983 16.2453)
(2.58598e-15 0.00838202 15.7464)
(2.66574e-15 -0.00200102 15.2348)
(2.83491e-15 -0.00430261 14.7416)
(2.92014e-15 0.00635306 14.1876)
(3.00199e-15 0.00195584 13.6106)
(5.91382e-15 -0.022518 12.9972)
(-6.89925e-17 -0.0177541 12.4193)
(2.48264e-15 0.0261663 12.0105)
(3.02059e-15 0.044013 11.5843)
(6.09045e-15 0.073726 11.1213)
(1.79098e-14 0.162025 10.6585)
(1.2406e-15 0.217793 10.0177)
(3.05271e-15 0.193239 9.13481)
(4.99002e-15 0.123058 8.00177)
(4.89033e-15 0.0102752 6.87648)
(5.7093e-15 -0.0647914 6.13428)
(3.44549e-15 -0.0415686 5.7382)
(1.2888e-15 0.0150222 5.32028)
(1.04384e-14 0.0163924 4.69677)
(3.66741e-14 -0.0247932 3.95811)
(-1.19857e-14 -0.0494284 3.53585)
(-1.47495e-15 -0.0550006 3.47527)
(-4.74629e-15 -0.0755378 3.54609)
(-3.45613e-15 -0.109734 3.65539)
(-2.09926e-15 -0.125298 3.90159)
(-4.29834e-17 -0.134132 4.28173)
(-3.80856e-16 -0.139613 4.74143)
(-3.22007e-15 -0.139202 5.21199)
(-5.31791e-15 -0.129696 5.63622)
(-6.82854e-15 -0.110162 5.98422)
(-9.64153e-15 -0.0836945 6.25149)
(-1.01451e-14 -0.0545465 6.44269)
(-2.15578e-14 -0.0257426 6.56771)
(-1.30247e-14 0.000712645 6.63631)
(-9.9489e-15 0.0235172 6.65938)
(-1.05405e-14 0.0419687 6.64979)
(-9.82803e-15 0.0560487 6.6265)
(-9.059e-15 0.0630108 6.58434)
(-2.02837e-15 0.0673858 6.524)
(-3.03736e-15 0.0661957 6.45704)
(1.53168e-16 0.0628692 6.38787)
(1.66638e-15 0.0555681 6.32155)
(3.2233e-15 0.0468235 6.26241)
(3.95329e-15 0.0350387 6.21316)
(4.6603e-15 0.0216987 6.17529)
(5.50482e-15 0.00628189 6.15087)
(6.04995e-15 -0.00967526 6.14151)
(7.44306e-15 -0.0266889 6.1482)
(6.56343e-15 -0.0433828 6.16861)
(7.24971e-15 -0.0603253 6.20354)
(8.26019e-15 -0.0762683 6.25139)
(8.32993e-15 -0.091599 6.31181)
(7.72008e-15 -0.105147 6.38112)
(7.60143e-15 -0.117013 6.45821)
(6.88868e-15 -0.126212 6.53971)
(6.63158e-15 -0.132696 6.62352)
(5.4402e-15 -0.135684 6.70574)
(3.75056e-15 -0.135259 6.78414)
(-1.2745e-15 -0.131494 6.85548)
(2.22096e-15 -0.125403 6.91822)
(2.81365e-15 -0.117978 6.971)
(2.46244e-15 -0.110205 7.0146)
(2.68327e-15 -0.102687 7.04966)
(2.28977e-15 -0.0960455 7.07779)
(1.46818e-15 -0.0907636 7.10081)
(2.07709e-15 -0.0868661 7.12089)
(3.10917e-15 -0.0839995 7.1397)
(3.45121e-15 -0.0817363 7.15831)
(3.21038e-15 -0.0800594 7.1772)
(2.00111e-15 -0.0791941 7.19715)
(1.8856e-15 -0.079396 7.21895)
(2.05404e-15 -0.0805441 7.24353)
(2.23845e-15 -0.0822262 7.27141)
(3.46545e-16 -0.0838743 7.30264)
(-9.34487e-16 -0.0850621 7.33679)
(-7.73367e-16 -0.0856009 7.37324)
(-1.64681e-15 -0.0855744 7.41141)
(-1.95785e-15 -0.0852273 7.45084)
(-2.40562e-15 -0.084904 7.4913)
(-4.00344e-15 -0.0849613 7.5328)
(-5.28722e-15 -0.0857366 7.57556)
(-5.51395e-15 -0.0875066 7.6199)
(-7.19953e-15 -0.0904559 7.66629)
(-6.55387e-15 -0.0946403 7.71524)
(-7.46828e-15 -0.0999396 7.76706)
(-7.88977e-15 -0.106031 7.82263)
(-8.27393e-15 -0.112429 7.88015)
(-7.77493e-15 -0.118587 7.94558)
(-9.17387e-15 -0.122923 7.9974)
(-9.72631e-15 -0.129389 8.10059)
(2.30745e-15 0.0421409 18.2788)
(2.30575e-15 0.0327318 17.9526)
(2.409e-15 0.0242578 17.5754)
(4.72611e-15 0.0228497 17.1431)
(3.14009e-15 0.0215985 16.6558)
(3.44537e-15 0.0228052 16.1015)
(2.79189e-15 0.0234245 15.4802)
(4.07803e-15 0.0222024 14.8276)
(4.28867e-15 0.0193613 14.1405)
(2.08967e-15 0.0165138 13.4429)
(1.80104e-15 0.0124673 12.7278)
(1.94921e-15 0.000141216 12.0304)
(1.77937e-15 -0.0050942 11.3911)
(1.09574e-15 0.00986506 10.7239)
(-6.1229e-16 0.0103424 10.0525)
(3.20435e-15 -0.0246202 9.33328)
(4.35576e-15 -0.0339081 8.69574)
(2.17235e-15 0.00754821 8.36092)
(1.49157e-15 0.0234594 8.03775)
(3.59662e-16 0.0564127 7.68124)
(1.22949e-15 0.176085 7.36909)
(5.91579e-16 0.269427 6.88248)
(1.54717e-15 0.286725 6.14962)
(3.9055e-15 0.257335 5.07637)
(3.55218e-15 0.112229 3.92585)
(5.34224e-15 -0.041128 3.07147)
(-2.03026e-16 -0.05217 2.39028)
(4.2733e-15 0.048674 1.66777)
(5.85568e-15 0.0992091 0.996398)
(4.01517e-15 -0.0094097 0.30162)
(-1.30549e-14 -0.165517 0.444808)
(-1.56554e-14 -0.232505 1.16764)
(-9.5598e-15 -0.237071 1.91856)
(6.75791e-15 -0.255872 2.59057)
(2.89969e-15 -0.277228 3.3138)
(-4.1747e-15 -0.295256 4.01903)
(-4.02241e-15 -0.295623 4.65767)
(-7.06536e-15 -0.27446 5.20654)
(-7.94749e-15 -0.236726 5.65156)
(-6.9432e-15 -0.189261 5.99265)
(-7.94147e-15 -0.138278 6.24128)
(-1.74046e-15 -0.0884636 6.40898)
(-1.89165e-15 -0.0426315 6.50929)
(-7.87351e-15 -0.00266587 6.55456)
(-6.75224e-15 0.0303344 6.55724)
(-5.14001e-15 0.056079 6.53127)
(-3.81907e-15 0.0747737 6.49594)
(-3.78884e-15 0.0842438 6.44531)
(-4.64667e-15 0.0892486 6.37943)
(8.95063e-15 0.0876917 6.30963)
(6.48496e-16 0.0828546 6.23999)
(4.21625e-15 0.0734109 6.17468)
(3.33519e-15 0.0614783 6.11739)
(3.6914e-15 0.0460791 6.06997)
(4.73021e-15 0.0282312 6.03356)
(6.43231e-15 0.00828624 6.0102)
(8.91248e-15 -0.0126677 6.00181)
(5.63426e-17 -0.034349 6.00993)
(6.04266e-15 -0.0558695 6.03281)
(-1.38743e-17 -0.0772068 6.07154)
(5.37588e-15 -0.0974246 6.12456)
(3.66002e-15 -0.116314 6.19121)
(1.45545e-15 -0.132908 6.26751)
(-1.22428e-16 -0.146903 6.35193)
(-1.66245e-15 -0.157472 6.44088)
(-2.86135e-15 -0.164272 6.53211)
(-4.34548e-15 -0.166624 6.6217)
(-5.87276e-15 -0.164467 6.7073)
(-6.64293e-15 -0.158101 6.78553)
(-7.09368e-15 -0.148821 6.85466)
(-7.31316e-15 -0.138073 6.91324)
(-7.84571e-15 -0.12713 6.96202)
(-8.14746e-15 -0.116776 7.00158)
(-8.17887e-15 -0.107801 7.03343)
(-8.0383e-15 -0.100851 7.05944)
(-8.58825e-15 -0.0959687 7.08189)
(-6.86941e-15 -0.0925916 7.1025)
(-6.94365e-15 -0.090095 7.12226)
(-8.53376e-15 -0.0884075 7.14146)
(-8.58438e-15 -0.0878654 7.16082)
(-9.32652e-15 -0.0887852 7.18122)
(-1.03299e-14 -0.0910196 7.20374)
(-1.03927e-14 -0.093958 7.22908)
(-9.99185e-15 -0.0968442 7.25734)
(-1.17741e-14 -0.0990812 7.2881)
(-1.26127e-14 -0.100453 7.32073)
(-1.20663e-14 -0.101056 7.3546)
(-1.23955e-14 -0.101231 7.38925)
(-1.19372e-14 -0.101396 7.42449)
(-1.19176e-14 -0.102011 7.46032)
(-1.28324e-14 -0.103469 7.497)
(-1.057e-14 -0.106117 7.53491)
(-1.21196e-14 -0.110166 7.57458)
(-1.18465e-14 -0.11569 7.61661)
(-1.47649e-14 -0.12254 7.66145)
(-1.35623e-14 -0.130323 7.71006)
(-1.17711e-14 -0.138484 7.76087)
(-1.13145e-14 -0.146271 7.8197)
(-1.07002e-14 -0.152327 7.86609)
(-9.98907e-15 -0.159437 7.95982)
(2.67953e-15 0.0438549 17.0539)
(2.398e-15 0.0326874 16.4865)
(3.01345e-15 0.0259907 15.8169)
(3.65758e-15 0.0258179 15.0831)
(-1.77565e-15 0.0255965 14.3119)
(6.62513e-16 0.028627 13.5057)
(8.08171e-15 0.0308026 12.6669)
(3.09057e-16 0.03101 11.8368)
(6.22417e-16 0.0263316 11.0044)
(3.63444e-16 0.0221968 10.2028)
(-9.72418e-16 0.0150993 9.41785)
(-2.29893e-16 -0.000204617 8.69822)
(-1.0354e-15 -0.0121796 8.08268)
(-4.49087e-16 0.0066987 7.47692)
(-1.96617e-16 0.0177177 6.87894)
(-1.32362e-15 -0.0280637 6.17251)
(1.74547e-16 -0.0590783 5.55494)
(-3.36371e-15 -0.0271721 5.38298)
(1.32594e-15 -0.0170751 5.23578)
(7.26092e-17 0.0189502 5.01453)
(-3.24028e-15 0.17373 4.85317)
(1.16673e-16 0.305473 4.4903)
(8.3298e-15 0.359814 3.82954)
(-1.59693e-14 0.376947 2.96789)
(-1.54694e-14 0.237363 2.28653)
(4.82998e-15 0.0865279 1.73243)
(1.38392e-14 0.104807 0.277061)
(-1.58868e-14 0.145186 -1.47152)
(-4.0788e-15 0.0223054 -1.09491)
(-7.56841e-15 -0.195027 -0.144468)
(-2.06113e-14 -0.342599 0.568058)
(-9.12619e-15 -0.426319 1.26694)
(-6.99252e-15 -0.416084 1.99843)
(-6.63437e-15 -0.414831 2.68207)
(7.44762e-15 -0.428265 3.41398)
(-9.37994e-15 -0.432001 4.10958)
(-1.08496e-14 -0.411813 4.72435)
(-9.82395e-15 -0.368107 5.24596)
(-8.12472e-15 -0.308327 5.66757)
(-5.79176e-15 -0.240842 5.98956)
(-4.4076e-15 -0.172329 6.22087)
(-4.29982e-15 -0.107573 6.372)
(-1.47869e-15 -0.0494959 6.45717)
(-5.32641e-17 4.35885e-05 6.48943)
(-7.33571e-16 0.0400578 6.48122)
(-2.10253e-17 0.0705498 6.44629)
(-2.53271e-17 0.0918328 6.40383)
(-3.35563e-18 0.102517 6.34779)
(-8.58579e-17 0.107375 6.27763)
(-1.01648e-16 0.104992 6.20454)
(-3.15531e-17 0.0986221 6.13266)
(4.78212e-16 0.0873208 6.06577)
(1.2215e-15 0.0728101 6.00745)
(2.12799e-15 0.0545054 5.95927)
(2.99771e-15 0.0329281 5.92259)
(3.14029e-15 0.0090211 5.89962)
(2.73845e-15 -0.0164577 5.89253)
(2.33287e-15 -0.042623 5.90299)
(2.60176e-16 -0.0688733 5.92927)
(-2.5603e-15 -0.0946391 5.97217)
(-4.6552e-15 -0.119136 6.02964)
(-6.50272e-15 -0.141567 6.10037)
(-7.78273e-15 -0.161137 6.17996)
(-8.69463e-15 -0.177207 6.26666)
(-9.87194e-15 -0.189125 6.35703)
(-1.02725e-14 -0.196305 6.44913)
(-1.09114e-14 -0.198136 6.5394)
(-1.18579e-14 -0.194388 6.62571)
(-1.19938e-14 -0.185526 6.70467)
(-1.08302e-14 -0.173128 6.7744)
(-8.15658e-15 -0.159134 6.83336)
(-1.39253e-14 -0.145098 6.88227)
(-1.32204e-14 -0.131963 6.92161)
(-1.52358e-14 -0.120668 6.95277)
(-7.15114e-15 -0.112096 6.97768)
(-1.22613e-14 -0.106308 6.99883)
(-1.17928e-14 -0.102475 7.01806)
(-1.25118e-14 -0.099712 7.03624)
(-1.62354e-14 -0.0978977 7.05345)
(-1.14602e-14 -0.0975331 7.07031)
(-1.16262e-14 -0.0990547 7.08777)
(-1.22019e-14 -0.102304 7.10713)