/*--------------------------------*- C++ -*----------------------------------*\
| =========                 |                                                 |
| \\      /  F ield         | OpenFOAM: The Open Source CFD Toolbox           |
|  \\    /   O peration     | Version:  4.1                                   |
|   \\  /    A nd           | Web:      www.OpenFOAM.org                      |
|    \\/     M anipulation  |                                                 |
\*---------------------------------------------------------------------------*/
FoamFile
{
    version     2.0;
    format      ascii;
    class       volScalarField;
    location    "25";
    object      p;
}
// * * * * * * * * * * * * * * * * * * * * * * * * * * * * * * * * * * * * * //

dimensions      [0 2 -2 0 0 0 0];

internalField   nonuniform List<scalar> 
26785
(
33.6719
34.0651
34.1863
34.3613
34.4458
35.4919
36.3543
37.7768
38.6469
39.6281
40.185
40.8417
41.3108
41.9088
42.093
42.2298
42.2582
42.428
42.6474
43.0383
43.2718
43.4525
43.3618
43.2435
42.9655
42.8142
42.6954
42.723
42.7305
42.769
42.6664
42.4823
42.0829
41.5639
40.8938
40.1443
39.294
38.3492
37.3069
36.1708
34.9606
33.6511
32.2641
30.7854
29.246
27.6382
26.1239
24.8445
23.2043
21.8199
20.2695
19.0776
17.8283
16.9416
16.0417
15.4197
14.8065
14.4273
14.0754
13.8461
13.5899
13.3864
13.1492
12.9269
12.646
12.3484
11.9827
11.5973
11.1575
10.7142
10.238
9.76928
9.27928
8.79993
8.30452
7.81658
7.3131
6.81562
6.30802
5.81019
5.31017
4.82376
4.34312
3.87912
3.43007
3.00429
2.60649
2.24061
1.91252
1.61824
1.36265
1.13506
0.940952
0.766599
0.620191
0.486943
0.377476
0.268743
0.177556
0.0401665
33.6423
34.0604
34.1883
34.36
34.4476
35.495
36.3616
37.7842
38.6545
39.6325
40.187
40.8408
41.3074
41.9029
42.0849
42.2204
42.2491
42.4209
42.6442
43.0398
43.2776
43.46
43.3683
43.2465
42.965
42.8108
42.6912
42.7191
42.7282
42.7686
42.6682
42.4857
42.0877
41.5693
40.8998
40.1502
39.2999
38.3544
37.3118
36.1749
34.964
33.6533
32.2653
30.7854
29.2447
27.6356
26.1202
24.8387
23.1952
21.8086
20.2566
19.0639
17.8149
16.9283
16.029
15.4079
14.797
14.4203
14.0722
13.8443
13.5897
13.3867
13.1516
12.9297
12.6498
12.3509
11.9847
11.597
11.1565
10.7112
10.2347
9.76449
9.27495
8.7948
8.30031
7.81181
7.30925
6.81116
6.30438
5.80606
5.30687
4.82004
4.33999
3.87534
3.42641
2.99978
2.60198
2.23559
1.90788
1.61362
1.35866
1.13129
0.937681
0.763366
0.617131
0.483629
0.374839
0.26574
0.190179
0.0166048
33.5912
34.0557
34.1914
34.3557
34.4461
35.4984
36.3722
37.7978
38.6693
39.6437
40.1939
40.8437
41.3057
41.8966
42.0736
42.2058
42.2339
42.4084
42.6381
43.0423
43.2882
43.4749
43.3819
43.254
42.9665
42.8074
42.6865
42.7154
42.7274
42.7717
42.675
42.4956
42.0999
41.5828
40.9141
40.1643
39.3137
38.3671
37.3238
36.1855
34.9732
33.6604
32.2705
30.7883
29.2455
27.6349
26.1179
24.8321
23.1843
21.7933
20.2395
19.0447
17.7971
16.9101
16.012
15.3918
14.7842
14.4109
14.0682
13.8416
13.5884
13.3857
13.1533
12.9319
12.6531
12.352
11.9847
11.5937
11.1523
10.7043
10.2277
9.75589
9.2673
8.78656
8.29365
7.80481
7.30377
6.80523
6.29985
5.80127
5.30358
4.81661
4.33768
3.87242
3.42382
2.9962
2.59859
2.23179
1.90493
1.61107
1.35734
1.13054
0.937837
0.763647
0.617681
0.483609
0.375338
0.264536
0.205435
0.0076055
33.5223
34.0534
34.1955
34.3488
34.4439
35.506
36.3905
37.8212
38.6929
39.6608
40.2037
40.8471
41.3022
41.8859
42.0554
42.1821
42.2096
42.3882
42.6281
43.0453
43.3034
43.4955
43.4
43.2623
42.9657
42.799
42.6764
42.7066
42.7231
42.7725
42.6813
42.5057
42.1129
41.597
40.9293
40.1787
39.3272
38.3787
37.3338
36.1935
34.979
33.6639
32.2715
30.787
29.2417
27.6299
26.1117
24.8189
23.1686
21.7706
20.2171
19.0183
17.7743
16.8857
15.9909
15.3713
14.7693
14.3998
14.0644
13.8387
13.5871
13.3853
13.1567
12.9366
12.6591
12.3557
11.9865
11.5921
11.1489
10.6988
10.2215
9.74898
9.2611
8.78073
8.28906
7.80063
7.30053
6.80214
6.29751
5.79921
5.30237
4.81572
4.3372
3.87165
3.42256
2.99424
2.59616
2.22938
1.90285
1.60986
1.35681
1.13087
0.93837
0.764489
0.618052
0.483958
0.374473
0.265156
0.197324
0.022594
33.4445
34.0582
34.201
34.3397
34.4402
35.515
36.4127
37.8493
38.7206
39.6802
40.214
40.8502
41.2977
41.8733
42.035
42.1563
42.1842
42.3684
42.62
43.0508
43.3215
43.5179
43.4188
43.2693
42.9627
42.7878
42.6636
42.6951
42.7162
42.7704
42.6842
42.5116
42.1214
41.6061
40.9389
40.1869
39.3342
38.3833
37.3367
36.1942
34.9775
33.6601
32.2659
30.7798
29.2327
27.6208
26.1018
24.8024
23.1492
21.7446
20.19
18.9873
17.7457
16.8559
15.9644
15.3472
14.7513
14.3879
14.0607
13.8365
13.5864
13.3865
13.1618
12.9439
12.6672
12.3619
11.9894
11.5914
11.145
10.6926
10.2136
9.74039
9.25235
8.77271
8.28151
7.79381
7.29392
6.79605
6.29164
5.794
5.29754
4.81158
4.33299
3.86732
3.41728
2.98838
2.58952
2.22289
1.89653
1.60449
1.35198
1.12694
0.934586
0.761107
0.614332
0.480614
0.369868
0.262923
0.18004
0.0413267
33.3663
34.0681
34.2045
34.3278
34.4365
35.5264
36.4393
37.8804
38.7496
39.6976
40.2214
40.8498
41.2908
41.8585
42.014
42.1304
42.1607
42.351
42.6151
43.0588
43.3409
43.5394
43.4344
43.2712
42.9535
42.77
42.6446
42.6784
42.7051
42.7653
42.685
42.5161
42.1288
41.6142
40.9475
40.1939
39.3392
38.3852
37.3359
36.1906
34.971
33.6508
32.2538
30.765
29.215
27.601
26.079
24.7718
23.1126
21.7005
20.1427
18.9366
17.697
16.8081
15.9214
15.3109
14.7234
14.3691
14.053
13.8344
13.5872
13.3907
13.1698
12.9549
12.6789
12.3722
11.9957
11.5937
11.1428
10.6874
10.2053
9.73108
9.24223
8.76349
8.27263
7.78612
7.28653
6.78977
6.28567
5.78926
5.29319
4.80826
4.32941
3.86361
3.4121
2.98234
2.58214
2.21538
1.88878
1.59749
1.34524
1.12087
0.928426
0.755153
0.607918
0.474441
0.362747
0.257422
0.166325
0.0520546
33.3052
34.0856
34.2054
34.313
34.4308
35.536
36.4641
37.908
38.7746
39.7108
40.2256
40.8476
41.2842
41.8455
41.9967
42.11
42.1434
42.3399
42.6149
43.0693
43.3608
43.5603
43.4482
43.2709
42.9419
42.7506
42.6244
42.6617
42.6948
42.762
42.6881
42.5237
42.1394
41.6257
40.959
40.203
39.3451
38.3867
37.3335
36.1843
34.9607
33.6367
32.236
30.7434
29.1894
27.5726
26.0468
24.7316
23.0646
21.6454
20.0832
18.8749
17.6372
16.7516
15.8706
15.2695
14.6927
14.3477
14.0429
13.8322
13.589
13.3964
13.1795
12.9678
12.6925
12.3843
12.0037
11.5974
11.1415
10.6819
10.1959
9.71967
9.22971
8.75155
8.26125
7.77602
7.27726
6.78185
6.27875
5.78385
5.2888
4.80504
4.32617
3.85987
3.40669
2.97542
2.57369
2.20642
1.8797
1.58907
1.33733
1.1136
0.92126
0.748062
0.600452
0.466978
0.354659
0.250583
0.156276
0.0561015
33.2704
34.1055
34.2014
34.2958
34.4247
35.5447
36.4876
37.9315
38.794
39.7173
40.2245
40.8416
41.276
41.8329
41.9809
42.0916
42.1281
42.3306
42.6159
43.082
43.3826
43.583
43.461
43.2674
42.9239
42.7238
42.5973
42.6404
42.6826
42.7601
42.695
42.5367
42.1559
41.6424
40.9741
40.2136
39.3497
38.3845
37.3253
36.1707
34.942
33.613
32.2073
30.7094
29.1497
27.5279
25.9964
24.672
22.9958
21.569
20.0026
18.793
17.5588
16.6785
15.8065
15.2159
14.6558
14.3224
14.0291
13.8282
13.5911
13.4039
13.1926
12.9849
12.711
12.4018
12.0175
11.607
11.1455
10.6806
10.1892
9.70983
9.21814
8.74019
8.25061
7.76687
7.26953
6.77597
6.2745
5.7816
5.28803
4.80556
4.32659
3.85921
3.40362
2.97003
2.56616
2.19794
1.87089
1.58073
1.32932
1.10593
0.913291
0.739672
0.591236
0.45732
0.344422
0.241476
0.146718
0.0567051
33.2607
34.1211
34.192
34.2772
34.4171
35.5507
36.507
37.9498
38.8084
39.7201
40.2214
40.836
41.2695
41.8228
41.9677
42.0763
42.115
42.3233
42.6184
43.0967
43.4067
43.6084
43.4748
43.2621
42.902
42.6926
42.5666
42.6175
42.671
42.7608
42.7057
42.554
42.1763
41.662
40.9905
40.2237
39.3526
38.3794
37.3136
36.1531
34.9186
33.5835
32.1714
30.6663
29.0992
27.4711
25.9332
24.5995
22.9139
21.4798
19.9095
18.6994
17.4693
16.5956
15.7339
15.1545
14.6138
14.2965
14.0134
13.8216
13.5909
13.4101
13.2063
13.0032
12.7307
12.4202
12.0328
11.6185
11.1515
10.6801
10.1825
9.69887
9.20491
8.72669
8.23776
7.75548
7.25988
6.76849
6.26934
5.779
5.28763
4.80671
4.32776
3.85896
3.40063
2.96428
2.55823
2.18911
1.86207
1.57262
1.32181
1.09875
0.905796
0.731517
0.582086
0.447473
0.334097
0.23225
0.138124
0.0563781
33.2614
34.1205
34.1772
34.2602
34.4122
35.5587
36.5275
37.9678
38.8206
39.7202
40.2159
40.8291
41.2621
41.8123
41.9532
42.0584
42.0987
42.3129
42.6191
43.113
43.4348
43.6379
43.4889
43.2524
42.8718
42.6516
42.5278
42.5898
42.6583
42.7638
42.7206
42.5765
42.2014
41.6848
41.008
40.2324
39.3516
38.368
37.2935
36.1249
34.8821
33.538
32.1161
30.6007
29.0236
27.387
25.8408
24.4973
22.8024
21.3614
19.7883
18.5793
17.356
16.4916
15.6434
15.0796
14.5618
14.2655
13.9944
13.8102
13.5902
13.4194
13.2254
13.0279
12.7562
12.4438
12.0537
11.6361
11.1636
10.6852
10.1808
9.69234
9.19564
8.71666
8.22808
7.74714
7.2535
6.7647
6.26843
5.7813
5.29271
4.81361
4.33453
3.86383
3.40207
2.96235
2.55368
2.1834
1.85612
1.56705
1.3163
1.0929
0.898783
0.722999
0.571767
0.435843
0.321717
0.220848
0.128465
0.0547901
33.2714
34.1037
34.1579
34.2447
34.4076
35.5666
36.5473
37.9849
38.8317
39.7198
40.2103
40.8233
41.256
41.8026
41.9388
42.0406
42.0824
42.3033
42.6219
43.1329
43.4677
43.6719
43.5048
43.241
42.8374
42.6064
42.4861
42.5615
42.647
42.7696
42.7389
42.6022
42.2291
41.7092
41.0258
40.24
39.3479
38.352
37.2668
36.0878
34.8346
33.4791
32.0453
30.5175
28.929
27.2835
25.7292
24.3765
22.6735
21.2271
19.6519
18.4457
17.2304
16.3761
15.5435
15
14.5056
14.2311
13.9739
13.7945
13.5874
13.4301
13.2469
13.0544
12.7821
12.4669
12.0746
11.6539
11.1759
10.6905
10.1796
9.68655
9.18702
8.70671
8.21788
7.7378
7.24599
6.75983
6.26691
5.78357
5.29856
4.82168
4.34244
3.86957
3.40417
2.96085
2.54972
2.17846
1.85117
1.56258
1.31184
1.08787
0.892328
0.7147
0.561461
0.424051
0.309239
0.209493
0.11923
0.0531934
33.3011
34.0845
34.1398
34.2318
34.4051
35.5769
36.5693
38.0028
38.8414
39.7167
40.2021
40.8157
41.2483
41.7919
41.9226
42.0198
42.0631
42.2913
42.6241
43.156
43.5057
43.7103
43.5204
43.2241
42.7936
42.5507
42.4366
42.5292
42.6359
42.7787
42.7619
42.6327
42.2604
41.7346
41.0416
40.2413
39.3335
38.321
37.2217
36.0295
34.7628
33.3927
31.9437
30.401
28.7996
27.1444
25.5822
24.2214
22.512
21.0619
19.4872
18.2859
17.0823
16.2406
15.4298
14.9109
14.4427
14.1898
13.9498
13.7793
13.5872
13.4478
13.2768
13.0895
12.816
12.4977
12.1028
11.6774
11.1927
10.7008
10.1848
9.68799
9.18585
8.70378
8.21407
7.73438
7.24441
6.76122
6.27199
5.79296
5.31196
4.83762
4.35795
3.88226
3.41268
2.96528
2.55127
2.17884
1.85109
1.56239
1.31079
1.08522
0.887148
0.70668
0.550524
0.411034
0.295161
0.196487
0.108815
0.0513147
33.3326
34.0582
34.1173
34.2167
34.4006
35.5864
36.5908
38.0202
38.8504
39.7134
40.1939
40.8092
41.2421
41.7821
41.9069
41.9997
42.0447
42.281
42.6291
43.183
43.5482
43.7523
43.5366
43.2043
42.7451
42.4911
42.3855
42.4975
42.6273
42.7913
42.7881
42.6647
42.2911
41.7566
41.0511
40.2334
39.3076
38.2773
37.1632
35.9569
34.675
33.288
31.822
30.2636
28.6496
26.9864
25.4184
24.0516
22.3379
20.8865
19.3136
18.1185
16.9276
16.0994
15.3127
14.8205
14.3796
14.1465
13.9206
13.7656
13.5885
13.4671
13.3074
13.1262
12.8521
12.5311
12.1315
11.6984
11.2059
10.7087
10.1897
9.69056
9.18634
8.70232
8.21113
7.73122
7.24278
6.76254
6.27723
5.80272
5.32614
4.85458
4.37445
3.89556
3.42182
2.97042
2.55375
2.1805
1.8526
1.56382
1.31133
1.08384
0.882937
0.69927
0.540014
0.398318
0.281419
0.183998
0.0984912
0.0502813
33.3553
34.0293
34.0952
34.2033
34.3987
35.5993
36.615
38.0383
38.8574
39.7069
40.1829
40.8007
41.2344
41.7716
41.8897
41.9772
42.0239
42.2687
42.6335
43.2128
43.5951
43.7971
43.5503
43.1773
42.6862
42.4213
42.3275
42.4629
42.6192
42.806
42.8157
42.6954
42.3172
41.7694
41.0473
40.2083
39.2619
38.2118
37.0808
35.8572
34.5562
33.1491
31.6643
30.09
28.4645
26.7947
25.2224
23.8517
22.1359
20.6849
19.1167
17.9302
16.7549
15.9432
15.1845
14.7241
14.3135
14.1011
13.8881
13.7534
13.5988
13.4917
13.3453
13.1723
12.8987
12.5749
12.1671
11.7232
11.2227
10.722
10.202
9.70188
9.19614
8.71018
8.21735
7.73688
7.24976
6.7725
6.29129
5.82141
5.34919
4.88052
4.39984
3.91724
3.43885
2.98324
2.56354
2.18925
1.86075
1.57108
1.31665
1.08606
0.881029
0.693126
0.529718
0.385137
0.266607
0.170206
0.0864932
0.049412
33.3701
34.0014
34.0716
34.1881
34.3949
35.6111
36.6383
38.0553
38.8632
39.7001
40.1721
40.7937
41.2286
41.7624
41.8735
41.956
42.0046
42.2585
42.6411
43.2464
43.6459
43.8443
43.5632
43.1466
42.6227
42.3484
42.269
42.4293
42.6124
42.82
42.8393
42.7183
42.3332
41.7706
41.0312
40.1707
39.2037
38.1337
36.9846
35.7414
34.4195
32.9917
31.4887
29.8998
28.2649
26.5909
25.0169
23.6441
21.9282
20.4795
18.9169
17.7398
16.5796
15.7854
15.0572
14.6286
14.2467
14.0554
13.856
13.7389
13.6131
13.5143
13.3853
13.2185
12.9476
12.6189
12.1997
11.7437
11.2359
10.7328
10.2129
9.71275
9.20615
8.71857
8.22439
7.74325
7.25709
6.78257
6.3056
5.84036
5.37263
4.90696
4.42586
3.93945
3.45646
2.99691
2.57458
2.19957
1.87086
1.58024
1.32372
1.08975
0.880271
0.687944
0.520294
0.372774
0.252678
0.1573
0.0745832
0.0493069
33.3731
33.9736
34.0476
34.1734
34.3932
35.6256
36.6631
38.0716
38.8661
39.6897
40.1585
40.785
41.2216
41.7527
41.856
41.9327
41.9831
42.2463
42.6477
43.2821
43.7004
43.8931
43.5732
43.1097
42.5508
42.268
42.2066
42.3933
42.6034
42.829
42.8547
42.7307
42.3378
41.7586
40.999
40.1136
39.1225
38.029
36.8575
35.5912
34.2464
32.7976
31.2771
29.6756
28.0331
26.3569
24.783
23.4102
21.6961
20.2516
18.6972
17.5317
16.3888
15.6162
14.924
14.5271
14.1749
14.0069
13.8288
13.7284
13.633
13.5464
13.4352
13.2725
13.0068
12.6695
12.2378
11.7701
11.256
10.7509
10.2313
9.73185
9.22533
8.73688
8.24209
7.7607
7.27547
6.80348
6.33059
5.86996
5.40644
4.94364
4.46218
3.97159
3.48332
3.01978
2.59464
2.21845
1.88893
1.59649
1.33641
1.09792
0.882568
0.68472
0.511862
0.360668
0.238471
0.143701
0.0616598
0.0488457
33.3719
33.9481
34.0217
34.1564
34.3892
35.6384
36.6862
38.0862
38.8674
39.6791
40.1456
40.7782
41.2169
41.7444
41.8396
41.911
41.9636
42.2367
42.6577
43.321
43.7574
43.9423
43.5808
43.0693
42.4759
42.187
42.1453
42.3565
42.5899
42.8292
42.8604
42.7348
42.3349
41.7376
40.9548
40.0422
39.0261
37.9084
36.7132
35.4234
34.0565
32.5885
31.0527
29.4405
27.7927
26.1168
24.5453
23.1739
21.4633
20.0243
18.4784
17.3247
16.1989
15.4499
14.7936
14.4245
14.102
13.9573
13.8027
13.723
13.6497
13.5828
13.4817
13.3255
13.0633
12.7151
12.2714
11.7926
11.2729
10.7655
10.2463
9.74799
9.24268
8.75439
8.25989
7.77891
7.29457
6.82471
6.35572
5.89954
5.44016
4.98019
4.49848
4.00365
3.51008
3.04293
2.61562
2.23856
1.90874
1.6146
1.35073
1.10754
0.886144
0.682422
0.50453
0.349618
0.225516
0.131508
0.0498019
0.0486916
33.3632
33.9221
33.9953
34.1397
34.3871
35.6533
36.7097
38.099
38.8649
39.6647
40.13
40.7697
41.211
41.736
41.8222
41.8876
41.9421
42.2251
42.6665
43.3607
43.8161
43.9911
43.5851
43.025
42.3976
42.1032
42.0823
42.3155
42.5698
42.8223
42.861
42.7344
42.3234
41.7005
40.8879
39.9443
38.9004
37.7547
36.5324
35.218
33.8299
32.3445
30.7951
29.1745
27.5234
25.8497
24.2823
22.9142
21.2091
19.7772
18.2425
17.1017
15.9969
15.2757
14.6574
14.3164
14.0276
13.9066
13.7786
13.7321
13.6707
13.6338
13.532
13.3897
13.125
12.7672
12.3115
11.8227
11.2973
10.7871
10.2679
9.77148
9.26848
8.78164
8.28876
7.80934
7.32664
6.85883
6.39333
5.94146
5.48583
5.02838
4.54628
4.04689
3.54727
3.0765
2.64717
2.26888
1.93797
1.64129
1.37187
1.12242
0.893588
0.682623
0.498719
0.339473
0.21276
0.119255
0.037941
0.0481514
33.3512
33.8969
33.9674
34.121
34.3826
35.6661
36.731
38.1096
38.8608
39.6503
40.1155
40.7634
41.2075
41.7289
41.8061
41.8664
41.923
42.2164
42.6787
43.4023
43.8752
44.0373
43.5858
42.9792
42.3195
42.0213
42.0204
42.2716
42.5448
42.8123
42.8608
42.7302
42.3017
41.6478
40.8032
39.8301
38.7592
37.5851
36.3361
34.9991
33.5926
32.0923
30.5316
28.9041
27.2514
25.5818
24.0205
22.6566
20.9582
19.5345
18.0105
16.8824
15.7985
15.1058
14.5232
14.2105
13.9536
13.8532
13.7512
13.7456
13.6943
13.6825
13.5766
13.4521
13.1773
12.815
12.3466
11.85
11.3183
10.8048
10.2854
9.79034
9.28983
8.80521
8.31494
7.83816
7.35785
6.89212
6.43002
5.98247
5.53072
5.07565
4.59308
4.08893
3.58348
3.10984
2.67959
2.30079
1.96931
1.67009
1.39469
1.13826
0.901826
0.683263
0.493413
0.330208
0.201167
0.108521
0.027746
0.0483584
33.3315
33.871
33.94
34.1032
34.38
35.6804
36.7516
38.1172
38.8522
39.632
40.0987
40.7555
41.2028
41.7215
41.7886
41.8432
41.9018
42.2049
42.6888
43.4425
43.9328
44.0814
43.5862
42.9356
42.2443
41.9404
41.9589
42.226
42.52
42.8055
42.86
42.7171
42.2613
41.5693
40.6903
39.6864
38.5848
37.3783
36.1016
34.7436
33.321
31.8083
30.238
28.6056
26.9532
25.2895
23.7361
22.3783
20.6888
19.2747
17.7638
16.6502
15.5899
14.9285
14.3853
14.105
13.8795
13.8012
13.7281
13.7623
13.7373
13.7361
13.6329
13.5196
13.2322
12.8689
12.3868
11.8857
11.3467
10.8307
10.3112
9.81791
9.3205
8.83903
8.35244
7.87945
7.40278
6.93928
6.47988
6.03635
5.58824
5.13511
4.65174
4.1427
3.63119
3.15519
2.72479
2.34547
2.01193
1.70872
1.42516
1.15937
0.91388
0.686546
0.489621
0.322431
0.190606
0.0983417
0.0182968
0.0489821
33.3089
33.8455
33.9113
34.0831
34.3749
35.6921
36.7694
38.1222
38.8421
39.614
40.0834
40.7498
41.2004
41.7151
41.7722
41.8223
41.8831
42.1961
42.701
43.4807
43.9844
44.1156
43.58
42.8893
42.1683
41.8619
41.8999
42.1805
42.4972
42.8014
42.8555
42.6931
42.2042
41.4729
40.5624
39.5294
38.3959
37.1577
35.856
34.4806
33.0451
31.522
29.9436
28.3071
26.6563
25.0005
23.4566
22.1058
20.4261
19.0223
17.5237
16.4248
15.3868
14.7548
14.2509
14.0029
13.8031
13.7503
13.7078
13.7739
13.7867
13.778
13.6926
13.5744
13.2824
12.9142
12.4193
11.9145
11.3665
10.8498
10.329
9.83898
9.34563
8.86843
8.38651
7.9182
7.44588
6.9847
6.52752
6.08773
5.64338
5.19181
4.70727
4.19341
3.67697
3.20009
2.77131
2.39256
2.05658
1.74848
1.45594
1.17974
0.925116
0.689234
0.485685
0.315503
0.181738
0.090084
0.0109326
0.0509784
33.2814
33.8199
33.8832
34.0636
34.3713
35.7047
36.7856
38.1234
38.827
39.5922
40.0662
40.7427
41.1964
41.7079
41.7537
41.7989
41.8615
42.1835
42.708
43.5107
44.0233
44.1365
43.5717
42.8444
42.0973
41.789
41.8444
42.1368
42.4812
42.8015
42.8435
42.6538
42.1237
41.351
40.4084
39.3415
38.1708
36.8989
35.5738
34.1841
32.7384
31.2068
29.6216
27.9826
26.3353
24.6892
23.1572
21.8155
20.1479
18.7559
17.272
16.1894
15.1764
14.5746
14.1143
13.9003
13.7284
13.7056
13.7
13.7918
13.8443
13.824
13.7666
13.6284
13.3456
12.9628
12.4605
11.949
11.3931
10.8759
10.3527
9.86731
9.37858
8.90712
8.43133
7.96912
7.50259
7.04449
6.58879
6.15238
5.7115
5.26083
4.77442
4.25668
3.73643
3.25924
2.83278
2.45428
2.11294
1.79726
1.4932
1.20443
0.939559
0.694825
0.484253
0.311311
0.175486
0.0838088
0.00519216
0.0538069
33.2533
33.7944
33.8532
34.0414
34.3647
35.7143
36.7986
38.122
38.8107
39.5711
40.0509
40.7376
41.1947
41.7014
41.7357
41.7775
41.8419
42.1735
42.7154
43.5292
44.0439
44.1367
43.5547
42.7955
42.0292
41.7208
41.7902
42.0939
42.471
42.802
42.8232
42.6018
42.0273
41.2171
40.2448
39.1422
37.9338
36.6315
35.2873
33.8871
32.4336
30.8948
29.3033
27.6623
26.0195
24.3848
22.8664
21.5341
19.8797
18.4998
17.0298
15.9628
14.9741
14.401
13.9803
13.7975
13.6539
13.6607
13.6965
13.8076
13.8895
13.8692
13.8317
13.6719
13.4029
12.9981
12.4967
11.9719
11.4149
10.8946
10.3697
9.88778
9.40267
8.93744
8.46841
8.01313
7.55329
7.09932
6.64536
6.21235
5.77518
5.32459
4.83558
4.3155
3.79444
3.31846
2.89541
2.51733
2.16925
1.84416
1.52784
1.22636
0.951695
0.699214
0.482968
0.308213
0.171305
0.0800189
0.00174031
0.0578453
33.2198
33.7688
33.8241
34.0201
34.3595
35.724
36.8089
38.1156
38.7891
39.5462
40.0338
40.7307
41.1909
41.6934
41.715
41.7537
41.8202
42.1589
42.714
43.5287
44.0447
44.1369
43.5397
42.7615
41.9765
41.6588
41.7396
42.0576
42.4732
42.8016
42.7919
42.5298
41.9059
41.0592
40.0527
38.9074
37.6587
36.327
34.9669
33.5594
32.1007
30.5559
28.959
27.3175
25.6813
24.0603
22.558
21.2379
19.5996
18.2333
16.7798
15.7293
14.7683
14.2263
13.8452
13.6956
13.5843
13.6246
13.7079
13.8365
13.93
13.9324
13.8905
13.7284
13.4611
13.0363
12.5372
11.9944
11.4451
10.9173
10.3961
9.91616
9.43572
8.97778
8.51571
8.06763
7.61506
7.16664
6.71438
6.2843
5.8507
5.39957
4.90728
4.38763
3.86857
3.39362
2.9733
2.5939
2.23516
1.89759
1.5673
1.25215
0.967249
0.707556
0.48586
0.309238
0.170856
0.0793099
0.000329141
0.06249
33.1856
33.7435
33.7934
33.9961
34.3514
35.7305
36.8157
38.1066
38.7664
39.5222
40.0187
40.7255
41.1894
41.6873
41.697
41.7356
41.8042
42.144
42.7046
43.5157
44.011
44.1314
43.5232
42.7381
41.9309
41.5968
41.6914
42.0286
42.484
42.7952
42.7515
42.4407
41.7713
40.8927
39.8499
38.6607
37.3749
36.0195
34.6481
33.2365
31.7741
30.2234
28.6211
26.9796
25.351
23.7454
22.261
20.9536
19.3323
17.9801
16.542
15.5068
14.5721
14.0621
13.714
13.5945
13.5135
13.5907
13.7179
13.8682
13.9573
13.9943
13.9262
13.7862
13.5012
13.0695
12.5612
12.0054
11.4643
10.9244
10.4122
9.93044
9.45827
9.00951
8.55405
8.11264
7.66673
7.22482
6.77556
6.34785
5.91752
5.4656
4.9702
4.45425
3.94083
3.4674
3.04971
2.66798
2.29644
1.94493
1.60138
1.27358
0.979531
0.714568
0.489074
0.311109
0.172135
0.0808055
0.000598802
0.0678628
33.1465
33.7181
33.7633
33.9728
34.3445
35.7364
36.8188
38.0921
38.7386
39.4947
40.0018
40.7179
41.1858
41.6812
41.6785
41.7181
41.7876
42.1152
42.6613
43.481
43.9526
44.1166
43.513
42.7279
41.8861
41.5384
41.6537
42.0175
42.5079
42.779
42.6979
42.3268
41.6147
40.7007
39.6124
38.3752
37.0534
35.6769
34.2978
32.8853
31.4209
29.8652
28.258
26.6183
24.9997
23.4122
21.9484
20.6574
19.0569
17.7208
16.3006
15.2819
14.3763
13.9027
13.5867
13.4964
13.4499
13.5694
13.7356
13.9085
13.9883
14.0592
13.9631
13.8497
13.5354
13.1117
12.5805
12.0277
11.4858
10.9364
10.433
9.94746
9.48726
9.04872
8.60083
8.16588
7.7274
7.29326
6.84792
6.4226
5.99388
5.54183
5.04437
4.536
4.02968
3.55548
3.13842
2.75159
2.36316
1.99607
1.63949
1.29902
0.99619
0.727146
0.497855
0.317936
0.177937
0.085968
0.00279718
0.0736508
33.11
33.6935
33.7311
33.9463
34.3343
35.7388
36.8185
38.0754
38.7104
39.4684
39.9871
40.7117
41.1869
41.6787
41.6608
41.7011
41.7769
42.088
42.5776
43.4174
43.8787
44.0723
43.499
42.7107
41.8284
41.4808
41.6246
42.0212
42.5345
42.7531
42.6348
42.2002
41.4525
40.5012
39.3643
38.0821
36.7297
35.338
33.9552
32.5439
31.078
29.5165
27.9041
26.2666
24.6591
23.0912
21.6494
20.3758
18.7976
17.4779
16.0742
15.072
14.1927
13.7563
13.467
13.3987
13.3888
13.5504
13.7482
13.9457
14.0138
14.0976
13.9957
13.8897
13.5521
13.1372
12.5798
12.0444
11.4892
10.9415
10.439
9.954
9.50212
9.07225
8.63202
8.20303
7.77379
7.34838
6.90811
6.48615
6.05746
5.60673
5.10946
4.61241
4.11405
3.63737
3.22042
2.82684
2.41984
2.0382
1.67064
1.31863
1.0095
0.738531
0.506184
0.324929
0.18502
0.0924632
0.00558822
0.0797638
33.0702
33.6689
33.6989
33.9201
34.325
35.7398
36.8137
38.053
38.6776
39.4392
39.9708
40.7028
41.186
41.6702
41.6365
41.6781
41.7592
42.0607
42.4632
43.3272
43.815
44.0154
43.4868
42.6852
41.7699
41.435
41.6121
42.0494
42.5613
42.7182
42.5524
42.0517
41.2678
40.2696
39.0777
37.7507
36.3706
34.9668
33.5837
32.1765
30.7099
29.1428
27.5259
25.893
24.2997
22.7545
21.338
20.0837
18.5342
17.2337
15.8494
14.8667
14.0155
13.6171
13.3582
13.3099
13.3413
13.5431
13.7697
13.9878
14.055
14.1189
14.0393
13.9088
13.5736
13.1506
12.5791
12.0635
11.4857
10.9567
10.4446
9.97183
9.52388
9.10214
8.66934
8.24653
7.82915
7.41234
6.97703
6.55881
6.12999
5.68239
5.18806
4.70472
4.21154
3.72898
3.31028
2.90673
2.47899
2.0843
1.70634
1.34282
1.02932
0.756902
0.520135
0.33732
0.196939
0.102238
0.00967577
0.0858946
33.0313
33.6446
33.6644
33.891
34.3127
35.7376
36.806
38.0293
38.6455
39.4119
39.9571
40.6974
41.1812
41.6685
41.6171
41.6546
41.7293
42.0099
42.3505
43.2101
43.7579
43.9522
43.4576
42.6415
41.7067
41.3967
41.6093
42.0919
42.578
42.6726
42.4514
41.8958
41.0767
40.0271
38.7824
37.4168
36.0151
34.6046
33.2245
31.8223
30.3543
28.7804
27.1587
25.5312
23.9535
22.432
21.0415
19.8087
18.2897
17.0085
15.6426
14.6805
13.856
13.4881
13.2607
13.2287
13.2986
13.5336
13.7813
14.0112
14.0857
14.1186
14.0652
13.8961
13.5856
13.1368
12.5742
12.0598
11.4641
10.9559
10.4302
9.97573
9.53031
9.11357
8.6884
8.27449
7.87078
7.46095
7.03021
6.61448
6.1882
5.74534
5.25751
4.78953
4.29851
3.80883
3.3884
2.97304
2.52559
2.12122
1.73457
1.36116
1.04626
0.773226
0.532132
0.348857
0.208482
0.111228
0.0129593
0.0913606
32.989
33.6207
33.6299
33.8622
34.3013
35.7338
36.7939
38.0008
38.6099
39.3823
39.9415
40.6901
41.1656
41.6736
41.605
41.6255
41.6823
41.9335
42.2304
43.0741
43.6778
43.8958
43.4149
42.5941
41.6605
41.3803
41.6252
42.1542
42.5816
42.6112
42.3213
41.7216
40.8584
39.7463
38.4474
37.0461
35.6264
34.2124
32.8385
31.4436
29.9745
28.3936
26.7684
25.1497
23.5911
22.0969
20.7366
19.5273
18.0455
16.7867
15.444
14.5052
13.7113
13.3707
13.1772
13.1654
13.2713
13.5291
13.7973
14.0272
14.1113
14.1177
14.0792
13.8747
13.587
13.1072
12.5812
12.0458
11.4576
10.9512
10.4234
9.98013
9.54598
9.13215
8.712
8.31282
7.92264
7.51897
7.0923
6.67624
6.2574
5.81812
5.341
4.88742
4.39249
3.89501
3.47095
3.04046
2.57537
2.16363
1.76799
1.3865
1.07119
0.795954
0.550072
0.366026
0.223457
0.122372
0.0173799
0.0959481
32.9478
33.5963
33.5922
33.8301
34.287
35.7273
36.7799
37.9722
38.5762
39.3556
39.9294
40.6825
41.1593
41.678
41.6064
41.6054
41.6377
41.8559
42.107
42.9278
43.5724
43.8407
43.3487
42.5429
41.6261
41.3778
41.6526
42.2191
42.5644
42.5369
42.1795
41.5454
40.6316
39.456
38.1095
36.6796
35.2475
33.8347
32.4695
31.0816
29.6095
28.0201
26.3918
24.7832
23.2448
21.7783
20.4486
19.2662
17.8229
16.5863
15.2672
14.352
13.5866
13.2693
13.1033
13.1113
13.2432
13.5131
13.8026
14.0245
14.1198
14.1026
14.0572
13.8434
13.5573
13.0549
12.5702
12.0024
11.4459
10.9245
10.4145
9.95823
9.54144
9.14139
8.71282
8.33396
7.95673
7.56164
7.13946
6.7214
6.31461
5.87563
5.41373
4.97265
4.46954
3.96646
3.53804
3.09115
2.61332
2.1969
1.79257
1.40639
1.09218
0.813697
0.564892
0.380972
0.235165
0.131057
0.0204736
0.0984391
32.9071
33.5716
33.5528
33.7976
34.2731
35.7187
36.7617
37.9394
38.5396
39.3267
39.9134
40.6684
41.164
41.677
41.6148
41.5957
41.6023
41.7752
41.9852
42.7782
43.4605
43.7845
43.262
42.5001
41.6229
41.4036
41.7057
42.2834
42.5241
42.4447
42.0205
41.3448
40.3676
39.1254
37.7338
36.2788
34.8379
33.4295
32.0759
30.6967
29.2214
27.6235
25.9947
24.4006
22.8861
21.4511
20.1568
19.0029
17.6045
16.3935
15.104
14.2151
13.4796
13.1847
13.0439
13.0721
13.2227
13.5057
13.811
14.0232
14.122
14.0895
14.0137
13.8169
13.5037
13.0171
12.5506
11.9557
11.437
10.8904
10.4213
9.94599
9.53194
9.16683
8.72639
8.36609
7.99394
7.61069
7.19616
6.77933
6.38614
5.94286
5.5003
5.06594
4.54883
4.0437
3.6079
3.14199
2.65728
2.23677
1.82186
1.43483
1.12103
0.836102
0.586134
0.401221
0.248538
0.141658
0.0251128
0.099209
32.8689
33.5453
33.5092
33.7617
34.2567
35.7081
36.7425
37.9074
38.506
39.3024
39.8982
40.6582
41.1769
41.6867
41.6267
41.5997
41.5814
41.7013
41.8767
42.635
43.3435
43.7158
43.1716
42.4603
41.6234
41.4387
41.7673
42.324
42.4678
42.3413
41.8582
41.1338
40.0911
38.7895
37.3611
35.8874
34.4425
33.0426
31.7023
30.3304
28.8492
27.242
25.6142
24.0362
22.5463
21.1425
19.883
18.7624
17.4085
16.2232
14.9627
14.0996
13.3905
13.1133
12.9914
13.0339
13.1932
13.4924
13.8006
14.0137
14.0988
14.0581
13.9478
13.7688
13.425
12.9818
12.4978
11.9098
11.409
10.8393
10.3967
9.9356
9.49205
9.16618
8.74011
8.39068
8.00835
7.63461
7.23164
6.82283
6.44002
5.99463
5.57549
5.14158
4.60869
4.10669
3.66116
3.17601
2.69145
2.26717
1.84119
1.45798
1.14414
0.851392
0.603882
0.417537
0.256707
0.149049
0.0278727
0.0974943
32.8299
33.5176
33.4637
33.7251
34.2401
35.695
36.7193
37.871
38.4687
39.2752
39.8809
40.6459
41.1846
41.7054
41.642
41.6124
41.5732
41.6325
41.7706
42.5203
43.2311
43.64
43.0954
42.416
41.619
41.4862
41.8413
42.3449
42.4043
42.2127
41.6785
40.8927
39.7748
38.4144
36.9525
35.4633
34.0179
32.6298
31.3055
29.9422
28.4546
26.839
25.2164
23.6597
22.1982
20.8291
19.6114
18.5239
17.2186
16.0624
14.8335
13.9973
13.3164
13.0548
12.9505
13.0051
13.1701
13.4867
13.7925
14.0143
14.0718
14.0217
13.8857
13.7085
13.3453
12.9441
12.4338
11.8867
11.367
10.8162
10.3717
9.94717
9.46322
9.14882
8.77512
8.42435
8.03675
7.66567
7.27167
6.87925
6.49617
6.05496
5.66086
5.21966
4.66987
4.1761
3.71711
3.21199
2.73404
2.30456
1.86622
1.49046
1.174
0.871745
0.628439
0.43722
0.26641
0.157262
0.0316664
0.0961071
32.794
33.4886
33.4145
33.6858
34.2215
35.6805
36.696
37.8362
38.4332
39.2501
39.8692
40.6375
41.1924
41.7329
41.6661
41.6279
41.5723
41.5771
41.669
42.4378
43.1262
43.5543
43.0237
42.3634
41.5972
41.5247
41.9078
42.3436
42.335
42.0714
41.5004
40.645
39.452
38.041
36.5528
35.0537
33.6119
32.2391
30.9318
29.5746
28.0774
26.4534
24.8389
23.3051
21.8719
20.5359
19.3598
18.3091
17.0495
15.9216
14.7211
13.9084
13.2505
13.0017
12.9125
12.9764
13.1433
13.4739
13.7726
14.0042
14.0284
13.967
13.8132
13.6244
13.2507
12.8786
12.3553
11.8489
11.3028
10.7908
10.3217
9.92906
9.45711
9.11205
8.78434
8.43053
8.05548
7.68204
7.2929
6.92071
6.53098
6.10049
5.72768
5.27363
4.71107
4.22931
3.75464
3.23294
2.76652
2.33026
1.88213
1.51602
1.19405
0.885058
0.647373
0.449645
0.271452
0.15951
0.0309969
0.093971
32.7592
33.4578
33.363
33.6452
34.2017
35.6625
36.6676
37.7967
38.3902
39.2198
39.8555
40.6284
41.196
41.762
41.7003
41.6517
41.5743
41.5323
41.5782
42.355
43.0547
43.4617
42.9483
42.3081
41.5826
41.5716
41.977
42.3302
42.2569
41.9158
41.3021
40.3618
39.0905
37.6309
36.1191
34.6129
33.1781
31.8243
30.5362
29.1857
27.6788
26.0493
24.4489
22.9437
21.5417
20.2418
19.1125
18.0999
16.8852
15.7867
14.6163
13.826
13.1909
12.9575
12.8843
12.9563
13.1222
13.4613
13.7593
13.9949
13.9871
13.9207
13.7449
13.5322
13.1534
12.7968
12.2782
11.8013
11.2484
10.7737
10.2803
9.89456
9.48196
9.07408
8.7985
8.44292
8.08601
7.70941
7.32497
6.97182
6.57588
6.15903
5.79672
5.32511
4.75418
4.28379
3.79109
3.25862
2.80484
2.36001
1.90688
1.54847
1.21882
0.907238
0.671014
0.464052
0.281114
0.162724
0.0286909
0.0915424
32.7321
33.4264
33.3087
33.6026
34.1802
35.6435
36.6388
37.7596
38.3491
39.1892
39.8433
40.6237
41.2008
41.7888
41.7387
41.6862
41.5714
41.4938
41.4985
42.2526
42.9891
43.3701
42.8685
42.2575
41.5666
41.6116
42.0343
42.3017
42.1767
41.7633
41.0943
40.0685
38.7281
37.2285
35.699
34.1899
32.7658
31.4339
30.165
28.8177
27.2983
25.6652
24.0826
22.6069
21.2347
19.9685
18.884