/*--------------------------------*- C++ -*----------------------------------*\
| =========                 |                                                 |
| \\      /  F ield         | OpenFOAM: The Open Source CFD Toolbox           |
|  \\    /   O peration     | Version:  4.1                                   |
|   \\  /    A nd           | Web:      www.OpenFOAM.org                      |
|    \\/     M anipulation  |                                                 |
\*---------------------------------------------------------------------------*/
FoamFile
{
    version     2.0;
    format      ascii;
    class       surfaceScalarField;
    location    "25";
    object      phi;
}
// * * * * * * * * * * * * * * * * * * * * * * * * * * * * * * * * * * * * * //

dimensions      [0 3 -1 0 0 0 0];

internalField   nonuniform List<scalar> 
52920
(
2457.6
-92.1558
2550.95
-85.6123
2640.33
-86.2553
2734.97
-86.1262
2817.07
-86.6623
2913.27
-87.0311
2997.21
-89.7773
3097.29
-93.3904
3188.13
-97.5606
3291.93
-101.688
3387.59
-105.684
3494.46
-109.578
3594.48
-111.687
3707.11
-112.93
3816.11
-113.143
3930.24
-114.333
4046
-114.218
4156.33
-113.24
4267.25
-110.318
4374.91
-106.956
4481.97
-103.81
4585.49
-102.016
4690.2
-100.247
4791.65
-98.7434
4894.18
-96.4486
4991.59
-94.642
5090.36
-93.4059
5188.41
-93.4194
5287.36
-94.0457
5389.24
-95.6318
5491.85
-97.8057
5598.43
-100.87
5705.95
-104.708
5819.06
-109.587
5933.88
-114.788
6057.23
-120.665
6182.57
-126.858
6316.18
-133.432
6453.27
-140.222
6599
-146.973
6748.83
-154.126
6906.2
-160.88
7067.47
-167.162
7235.42
-172.295
7405.29
-176.694
7581.19
-179.987
7761.8
-181.712
7930.77
-182.275
8103.46
-180.094
8269.63
-177.319
8433.36
-172.673
8591.84
-168.057
8745.14
-162.484
8894.64
-157.644
9038.72
-152.756
9180.36
-148.922
9317.91
-145.612
9454.27
-143.352
9588.33
-141.699
9722.57
-140.822
9855.52
-140.44
9989.58
-140.35
10122.7
-140.501
10257.5
-140.626
10390.9
-140.789
10526.4
-140.66
10659.8
-140.487
10795.4
-139.953
10928
-139.455
11062.8
-138.611
11194.5
-137.905
11328.3
-136.884
11458.6
-136.102
11591
-135.027
11720.1
-134.231
11851.3
-133.162
11979.1
-132.385
12108.8
-131.33
12235.4
-130.522
12363.6
-129.423
12488.6
-128.523
12615.1
-127.299
12738.3
-126.203
12862.4
-124.754
12983.2
-123.38
13104.4
-121.643
13222.1
-119.948
13339.8
-117.917
13453.8
-115.939
13567.4
-113.677
13677.2
-111.493
13786.3
-109.098
13891.8
-106.826
13996.3
-104.425
14097.4
-102.219
14197.6
-100.004
14294.9
-98.0562
14392.1
-96.958
14485.1
-93.4844
-94.5828
2591.94
-190.379
2692.7
-178.172
2789.43
-179.474
2892.97
-180.134
2983.62
-181.783
3091.11
-184.814
3186.04
-191.628
3299.03
-200.893
3402.06
-209.851
3518.8
-218.919
3626.3
-225.916
3745.41
-233.28
3856.64
-235.922
3980.49
-237.084
4100.11
-235.973
4224.66
-237.061
4350.81
-236.023
4470.61
-233.594
4590.89
-227.931
4707.01
-220.344
4822.37
-214.719
4933.46
-211.158
5045.78
-208.33
5154.3
-204.977
5264.02
-200.743
5368.21
-196.818
5473.78
-194.136
5578.19
-193.487
5683.13
-194.209
5790.26
-196.521
5897.31
-200.147
6007.06
-205.552
6116.4
-212.146
6229.6
-220.564
6342.57
-229.265
6461.73
-238.699
6580.19
-248.358
6703.75
-258.085
6827.21
-267.858
6955.28
-277.163
7083.2
-286.909
7214.34
-295.816
7345.26
-303.811
7479.09
-309.91
7611.58
-315.058
7747.65
-318.886
7886.77
-321.054
8012.65
-321.198
8142.17
-317.097
8264.91
-311.667
8385.87
-303.523
8501.95
-294.943
8613.6
-285.073
8721.86
-275.987
8825.17
-267.127
8926.27
-259.769
9023.43
-253.537
9119.4
-249.026
9213.04
-245.796
9306.76
-243.867
9399.15
-243.027
9492.66
-242.697
9585.3
-242.996
9679.9
-243.3
9773.31
-243.811
9869.32
-243.838
9963.64
-243.892
10060.9
-243.293
10155.7
-242.854
10253.6
-241.756
10348.9
-240.98
10447.4
-239.62
10543.2
-238.752
10642.1
-237.372
10738.6
-236.542
10838.2
-235.276
10935.3
-234.58
11035.7
-233.458
11133.8
-232.824
11235
-231.765
11334.1
-231.092
11436.1
-229.943
11536
-229.034
11638.6
-227.598
11739
-226.293
11841.6
-224.414
11942.2
-222.589
12044.5
-220.231
12144.6
-217.933
12246.1
-215.194
12345.5
-212.552
12445.9
-209.592
12544.3
-206.801
12643.5
-203.815
12741
-201.113
12839.2
-198.348
12936.2
-196.166
13033.6
-194.331
13134.3
-194.894
-190.96
2724.47
-294.24
2833.57
-279.521
2939.64
-282.323
3052.26
-284.41
3152.84
-286.93
3268.22
-291.173
3371.01
-299.703
3488.9
-311.563
3595.73
-322.273
3713.06
-333.131
3819.58
-341.391
3934.78
-350.285
4040.7
-352.881
4156.68
-353.286
4266.9
-350.816
4380.07
-351.218
4493.17
-348.807
4599.22
-343.545
4705.09
-333.946
4806.5
-321.959
4906.54
-311.917
5001.55
-304.91
5096.72
-298.784
5187.08
-292.439
5277.38
-284.551
5360.67
-276.884
5443.28
-270.864
5522.42
-267.571
5599.53
-266.066
5675.83
-266.205
5748.56
-267.814
5820.04
-270.82
5886.71
-275.612
5952.83
-282.419
6014.11
-290.186
6077.19
-298.344
6134.81
-307.289
6192.97
-315.594
6246.27
-324.31
6300.09
-332.129
6350.14
-341.725
6401.22
-350.998
6451.06
-360.745
6504.58
-369.1
6558.56
-377.866
6619.71
-385.563
6688.56
-391.702
6747.46
-397.209
6816.06
-395.354
6882.61
-392.39
6952.42
-384.704
7021.57
-376.049
7089.87
-364.854
7158.08
-354.154
7223.72
-343.417
7289.61
-334.399
7353.27
-326.988
7417.69
-321.812
7481.29
-318.609
7546.74
-317.258
7612.31
-317.673
7680.76
-318.843
7749.71
-321.034
7822.37
-323.139
7894.98
-325.582
7971.84
-327.141
8047.81
-328.692
8128.08
-329.109
8206.36
-329.645
8288.85
-329.088
8368.9
-328.861
8452.91
-327.692
8533.95
-327.084
8618.77
-325.674
8700.61
-324.918
8785.99
-323.496
8868.23
-322.752
8953.79
-321.383
9036.32
-320.569
9121.84
-319.136
9204.2
-318.116
9289.18
-316.406
9371.03
-314.912
9454.99
-312.655
9535.6
-310.446
9617.77
-307.42
9696.53
-304.348
9776.27
-300.521
9852.45
-296.693
9929.19
-292.257
10002.4
-287.924
10075.9
-283.194
10146.2
-278.73
10216.5
-274.097
10284
-269.945
10351.7
-265.863
10417.6
-262.878
10483
-259.425
10551.4
-263.839
-255.558
2825.17
-398.751
2935.98
-383.237
3041.73
-384.816
3150.85
-384.924
3245.38
-385.545
3350.28
-387.608
3439.13
-395.375
3538.14
-406.132
3622.18
-415.519
3712.4
-424.281
3788.55
-430.108
3870.55
-436.694
3941.28
-436.384
4020.41
-432.448
4091.88
-425.453
4164.55
-421.692
4235.87
-415.478
4299.62
-407.841
4363.83
-395.331
4424.25
-379.735
4483.58
-366.557
4537.35
-356.879
4590.89
-347.685
4638.89
-337.842
4686.34
-325.443
4725.12
-312.824
4761.68
-301.006
4792.79
-292.674
4820.03
-286.7
4844.65
-282.457
4863.33
-280.095
4878.77
-279.555
4887.25
-281.7
4894.5
-286.806
4896.25
-294.179
4901.28
-301.88
4901.64
-311.467
4905.3
-320.034
4906.88
-330.468
4914.1
-341.109
4923.37
-356.297
4941.83
-373.349
4967.71
-393.149
5007.2
-412.781
5056.15
-433.993
5121.85
-454.474
5203.62
-473.361
5279.07
-489.713
5369.94
-496.21
5461.26
-499
5557.98
-494.665
5654.93
-487.33
5751.24
-475.812
5847.65
-464.017
5941.13
-451.69
6034.98
-441.306
6126.41
-432.777
6218.86
-427.216
6310.65
-424.21
6404.66
-423.611
6498.98
-425.257
6596.46
-427.878
6694.41
-431.591
6796.04
-435.198
6897.12
-438.756
7002.02
-441.219
7105.08
-443.055
7211.62
-443.508
7314.85
-443.47
7421.18
-442.173
7523.55
-440.671
7628.57
-438.186
7728.96
-435.828
7831.71
-432.756
7929.76
-429.997
8029.86
-426.727
8125.03
-423.84
8221.95
-420.502
8314.02
-417.438
8407.43
-413.897
8495.79
-410.451
8585.02
-406.415
8669.14
-402.239
8753.52
-397.34
8832.45
-392.113
8910.99
-386.055
8983.92
-379.582
9055.8
-372.351
9121.83
-364.799
9186.3
-356.699
9244.97
-348.475
9301.71
-339.987
9352.82
-331.648
9401.9
-323.367
9445.88
-315.574
9488
-308.217
9525.89
-302.093
9562.39
-296.042
9594.79
-296.953
-289.241
2854.12
-489.819
2948.26
-470.151
3033.66
-466.979
3118.78
-461.91
3185.91
-457.357
3259.39
-452.057
3312.38
-453.781
3371.32
-457.141
3410.85
-460.634
3453.61
-463.032
3479.38
-465.548
3510.66
-469.442
3530.32
-468.669
3560.38
-462.704
3583.15
-454.178
3608.28
-448.392
3633.15
-440.519
3651.48
-431.615
3673.06
-417.521
3693.14
-400.613
3714.45
-384.413
3731.34
-372.163
3750.06
-359.882
3764.38
-347.835
3780.07
-331.64
3786.99
-314.66
3792.83
-297.977
3793.87
-285.961
3792.43
-277.234
3790.52
-270.548
3784.56
-266.414
3778.7
-264.225
3769.03
-266.869
3763.67
-274.422
3757.85
-286.719
3763.23
-300.936
3770.88
-319.031
3791.54
-337.942
3819.59
-360.929
3864.32
-386.314
3920.77
-418.209
3994.93
-452.629
4081.72
-488.978
4184.68
-523.456
4296.34
-557.189
4422.47
-588.064
4560.79
-614.426
4686.74
-635.628
4823.16
-644.03
4954.82
-646.586
5087.28
-639.87
5215.96
-628.903
5340.46
-612.697
5462.3
-596.162
5578.77
-579.207
5693.79
-565.042
5804.79
-553.61
5915.6
-546.226
6024.72
-542.362
6135.08
-541.737
6244.96
-544.034
6357.13
-547.645
6469.01
-552.444
6583.7
-556.995
6697.07
-561.22
6813.36
-563.898
6927.02
-565.488
7043.26
-565.256
7155.44
-564.119
7269.88
-561.443
7379.67
-558.272
7491.32
-553.964
7597.76
-549.608
7705.86
-544.472
7808.77
-539.551
7913.09
-534.102
8012.08
-528.963
8112.29
-523.365
8207.3
-517.934
8303.21
-511.992
8393.78
-505.988
8484.85
-499.307
8570.55
-492.278
8656.17
-484.389
8736.11
-475.891
8815.35
-466.409
8888.71
-456.217
8960.72
-445.126
9026.59
-433.456
9090.56
-421.148
9148.38
-408.533
9203.89
-395.649
9253.33
-382.835
9300.23
-370.19
9341.51
-358.096
9380.27
-346.705
9413.97
-336.623
9446.1
-327.789
9471.46
-322.74
-316.009
2749
-555.642
2818.9
-532.897
2877.48
-521.847
2933.09
-508.305
2966.94
-495.803
3004.22
-480.531
3016.49
-474.351
3032.73
-468.875
3026.59
-465.711
3024.3
-462.069
3004.95
-461.733
2995.45
-465.116
2977.5
-466.692
2976.97
-461.898
2973.18
-454.397
2977.03
-449.027
2984.81
-441.889
2988.6
-436.288
2999.34
-424.801
3010.79
-408.941
3026.04
-393.827
3038.29
-382.371
3055.03
-370.613
3068.56
-357.648
3085.54
-339.07
3093.81
-318.432
3103.34
-297.694
3110.05
-283.333
3117.02
-274.059
3127.22
-268.376
3136.92
-266.704
3151.4
-269.247
3165.98
-278.15
3189.87
-294.233
3217.12
-316.226
3260.67
-341.485
3310.68
-371.773
3378.27
-404.015
3455.93
-440.875
3550.43
-479.991
3653.21
-523.919
3766.81
-567.949
3883.82
-610.834
4006.89
-649.662
4129.52
-686.603
4259.32
-720.955
4396.18
-751.259
4518.21
-775.152
4649.26
-785.984
4775.81
-789.288
4903.59
-782.147
5028.6
-769.348
5150.16
-750.349
5269.9
-730.598
5384.78
-710.373
5498.76
-693.392
5608.99
-679.632
5719.31
-670.786
5828.12
-666.233
5938.24
-665.373
6048.02
-668.013
6160.08
-672.191
6271.93
-677.664
6386.53
-682.794
6499.83
-687.216
6615.94
-689.789
6729.36
-690.729
6845.23
-689.51
6956.97
-686.915
7070.78
-682.502
7179.87
-677.208
7290.67
-670.646
7396.2
-663.774
7503.25
-656.133
7605.08
-648.554
7708.23
-640.53
7806.06
-632.731
7905.07
-624.579
7998.94
-616.532
8093.74
-608.049
8183.3
-599.399
8273.46
-590.094
8358.41
-580.27
8443.44
-569.533
8522.96
-557.977
8601.98
-545.315
8675.34
-531.717
8747.58
-517.107
8813.91
-501.719
8878.6
-485.628
8937.38
-469.086
8994.1
-452.26
9044.96
-435.431
9093.5
-418.811
9136.57
-402.762
9177.24
-387.556
9212.91
-373.618
9246.89
-361.907
9275.06
-351.61
-344.127
2559.36
-600.616
2606.49
-572.217
2639.82
-551.325
2667.97
-527.033
2670.89
-504.197
2676.84
-475.484
2655.96
-459.603
2642.45
-444.803
2608.52
-437.922
2585.33
-433.037
2549.78
-437.837
2532.75
-449.213
2512.29
-461.806
2517.12
-466.86
2522.69
-467.928
2541.14
-470.088
2567.03
-469.142
2589.92
-467.058
2620.32
-456.849
2650.09
-440.481
2683.07
-423.035
2712.13
-409.503
2745.6
-396.051
2774.73
-381.32
2806.83
-359.649
2829.07
-334.431
2853.16
-311.302
2874.96
-296.227
2897.75
-287.789
2924.69
-284.164
2951.8
-285.38
2984.3
-291.304
3016.77
-304.974
3058.61
-328.093
3103.93
-359.33
3165.99
-396.561
3234.72
-439.797
3319.08
-485.158
3408.53
-532.325
3505.89
-577.851
3600.47
-623.97
3694.25
-667.129
3782.13
-708.051
3870.36
-746.318
3957.01
-785.539
4053.43
-825.432
4162.26
-863.416
4262.97
-895.856
4378.98
-913.589
4496.29
-922.166
4619.08
-917.532
4742.48
-904.978
4864.41
-884.241
4986.06
-861.699
5103.52
-838.181
5220.62
-818.219
5334.07
-802.038
5447.65
-791.598
5559.69
-786.366
5672.87
-785.538
5785.59
-788.827
5900.37
-793.996
6014.8
-800.469
6131.75
-806.389
6247.17
-811.28
6365.15
-813.772
6480.17
-814.169
6597.35
-811.908
6710.14
-807.892
6824.73
-801.736
6934.35
-794.466
7045.42
-785.757
7151.02
-776.644
7257.94
-766.688
7359.47
-756.779
7462.17
-746.414
7559.43
-736.285
7657.78
-725.808
7750.91
-715.407
7844.93
-704.549
7933.68
-693.439
8023.06
-681.597
8107.2
-669.095
8191.51
-655.548
8270.31
-640.95
8348.71
-625.092
8421.47
-608.051
8493.24
-589.847
8559.14
-570.651
8623.55
-550.642
8682.11
-530.028
8738.77
-509.096
8789.65
-488.098
8838.37
-467.375
8881.68
-447.277
8922.73
-428.219
8958.82
-410.468
8993.15
-395.745
9022.57
-381.383
-372.513
2332.44
-627.232
2359.76
-591.373
2371.7
-558.54
2378.84
-523.129
2360.7
-491.829
2350.66
-455.149
2317.35
-436.968
2300.54
-422.684
2269.53
-420.75
2258.34
-423.456
2239.62
-437.76
2245.06
-460.423
2247.85
-483.033
2277.43
-495.869
2307.01
-501.904
2349.74
-508.628
2399.04
-510.657
2443.14
-511.862
2491.9
-501.824
2536.79
-482.136
2582.52
-462.845
2622.49
-447.62
2665.45
-433.049
2702.74
-414.544
2741.79
-388.095
2769.81
-357.109
2798.93
-329.254
2825.06
-311.597
2851.32
-302.518
2880.66
-300.006
2908.82
-303.24
2940.93
-313.336
2972.28
-332.761
3013.83
-364.82
3060.93
-407.378
3126.12
-456.72
3196.43
-509.793
3275.48
-559.21
3348.15
-603.245
3414.61
-639.855
3466.01
-675.025
3509.48
-710.005
3547.16
-749.291
3591.97
-794.178
3646.45
-847.623
3723.56
-906.904
3824.9
-965.947
3927.27
-1017.08
4050.85
-1049.88
4179.19
-1068.21
4314.01
-1068.76
4449.41
-1057.39
4582.15
-1035.01
4713.41
-1009.24
4838.88
-981.756
4962.75
-958.011
5081.66
-938.431
5199.67
-925.351
5315.25
-918.394
5431.2
-916.337
5546.13
-919.017
5662.58
-924.009
5778.31
-930.509
5896.17
-936.389
6012.23
-940.87
6130.56
-942.663
6245.69
-941.848
6362.77
-938.039
6475.26
-932.063
6589.39
-923.66
6698.41
-913.843
6808.78
-902.478
6913.61
-890.521
7019.7
-877.747
7120.37
-864.926
7222.21
-851.75
7318.61
-838.794
7416.14
-825.621
7508.48
-812.544
7601.81
-799.1
7689.9
-785.372
7778.73
-770.938
7862.39
-755.734
7946.33
-739.421
8024.8
-721.898
8102.99
-702.97
8175.58
-682.675
8247.28
-661.087
8313.12
-638.345
8377.59
-614.705
8436.2
-590.349
8493.01
-565.629
8544.03
-540.794
8592.97
-516.237
8636.47
-492.33
8677.76
-469.566
8714.06
-448.07
8748.49
-430.257
8778.37
-411.947
-400.967
2097.16
-641.844
2110.96
-596.11
2111.41
-554.286
2112.49
-512.812
2092.72
-478.556
2089.48
-438.76
2068.23
-422.463
2071.04
-412.625
2062.73
-418.406
2077
-430.455
2082.91
-455.632
2111.57
-489.598
2134.11
-521.606
2180.36
-542.487
2223.6
-554.203
2277.8
-566.441
2336.18
-571.899
2387.45
-572.142
2441.49
-558.291
2490.09
-533.083
2538.43
-507.228
2580.16
-486.709
2624.22
-468.03
2662.15
-445.752
2701.3
-414.437
2728.66
-377.128
2756.32
-345.711
2780.25
-326.11
2803.39
-316.303
2828.59
-313.906
2851.78
-317.808
2879.3
-329.898
2908.33
-355.323
2951.47
-398.333
3002.44
-453.855
3068.2
-513.207
3128.58
-567.581
3181.26
-607.689
3210.23
-634.324
3220.67
-651.866
3213.68
-675.208
3207.73
-711.378
3213.39
-766.395
3246.65
-838.05
3307.67
-923.034
3403.95
-1012.95
3530.93
-1096.93
3660.04
-1166.34
3808.02
-1209.65
3957
-1232.34
4107.8
-1231.96
4255.07
-1216.12
4395.66
-1187.07
4531.81
-1153.86
4659.45
-1118.97
4783.65
-1088.8
4901.35
-1064.11
5017.08
-1047.26
5129.6
-1037.99
5241.96
-1034.89
5353.08
-1037.4
5465.51
-1042.91
5577.26
-1050.07
5691.16
-1056.5
5803.37
-1061.31
5917.98
-1062.91
6029.56
-1061.51
6143.25
-1056.66
6252.53
-1049.3
6363.62
-1039.21
6469.78
-1027.54
6577.49
-1014.16
6679.83
-1000.15
6783.63
-985.243
6882.21
-970.329
6982.14
-955.046
7076.85
-940.046
7172.89
-924.829
7263.95
-909.71
7356.22
-894.189
7443.45
-878.316
7531.66
-861.633
7614.86
-844.051
7698.57
-825.194
7776.96
-804.882
7855.27
-782.978
7928.07
-759.446
8000.16
-734.425
8066.47
-708.019
8131.56
-680.56
8190.82
-652.215
8248.41
-623.438
8300.21
-594.475
8350.01
-565.828
8394.36
-537.866
8436.52
-511.214
8473.62
-485.864
8508.81
-464.814
8539.53
-442.969
-429.586
1884.06
-651
1897.89
-600.407
1904.43
-555.062
1918.01
-513.638
1913.79
-481.12
1929.84
-443.934
1928.36
-433.123
1951.11
-430.197
1960.6
-442.668
1989.98
-461.904
2007.94
-492.867
2045.82
-533.275
2075.09
-569.375
2125.91
-592.751
2172.07
-604.771
2227.98
-617.523
2286.97
-622.4
2338.37
-623.604
2392.19
-607.925
2440.33
-577.822
2488
-548.683
2528.87
-525.417
2572
-504.728
2609.09
-477.557
2647.25
-440.102
2672.91
-395.553
2698.22
-357.751
2719.1
-334.001
2738.5
-322.042
2759.66
-319.709
2779.73
-325.698
2807.19
-345.298
2840.2
-382.853
2888.75
-439.036
2938.87
-500.96
2988.71
-552.836
3012.91
-585.287
3011.47
-594.176
2978
-592.459
2932.47
-596.692
2890.13
-629.6
2877.26
-696.997
2902.3
-795.814
2971.98
-912.768
3075.41
-1036.7
3211.58
-1156.05
3371.04
-1259.74
3524.13
-1339.64
3687.49
-1387.54
3845.25
-1409.02
3999.26
-1404
4146.03
-1381.02
4283
-1343.62
4413.7
-1301.98
4534.32
-1259.18
4650.72
-1222.35
4759.97
-1192.27
4867.05
-1171.35
4970.84
-1159.4
5074.56
-1154.65
5177.45
-1156.51
5282
-1162.06
5386.41
-1169.74
5493.42
-1176.65
5599.3
-1181.64
5708.06
-1183.15
5814.28
-1181.13
5923.07
-1175.25
6027.87
-1166.43
6134.86
-1154.55
6237.28
-1140.83
6341.62
-1125.28
6440.91
-1108.93
6541.97
-1091.67
6638.1
-1074.3
6735.88
-1056.65
6828.72
-1039.26
6923.18
-1021.77
7012.93
-1004.43
7104.19
-986.754
7190.65
-968.712
7278.39
-949.855
7361.34
-929.999
7445.08
-908.762
7523.66
-885.911
7602.41
-861.276
7675.78
-834.814
7748.66
-806.691
7815.82
-777.004
7881.96
-746.124
7942.29
-714.225
8001.1
-681.789
8054.12
-649.101
8105.23
-616.678
8150.85
-584.942
8194.3
-554.553
8232.63
-525.423
8268.94
-501.093
8300.8
-475.46
-458.845
1731.49
-675.144
1763.34
-622.521
1787.34
-573.863
1817.08
-531.07
1826.44
-497.019
1854.17
-457.687
1862.17
-446.899
1892.36
-446.261
1907.33
-462.132
1940.37
-486.616
1960.67
-523.981
1999.9
-571.905
2029.81
-614.287
2080.56
-643.613
2126.05
-659.777
2181
-676.848
2238.62
-684.494
2288.9
-684.136
2341.65
-664.038
2388.69
-628.114
2435.3
-591.446
2475.02
-562.546
2517.2
-537.744
2553.42
-507.003
2590.48
-464.101
2613.99
-411.604
2636.29
-368.864
2653.47
-342.112
2669.03
-328.886
2687.66
-327.851
2708.39
-338.606
2740.48
-366.865
2778
-414.363
2822.33
-473.521
2849.93
-524.131
2855.94
-549.17
2820.75
-547.87
2759.19
-528.953
2682.48
-519.46
2625.17
-542.907
2605.25
-618.879
2638.87
-739.654
2718.2
-887.753
2836.21
-1042.31
2975.29
-1190.56
3133.2
-1323.74
3302.69
-1433.38
3457.86
-1513.79
3617.41
-1558.24
3768.27
-1573.77
3913.27
-1560.57
4050.18
-1528.06
4176.53
-1480.52
4296.53
-1429.07
4406.21
-1377.34
4511.92
-1333.19
4610.53
-1297.63
4707.29
-1273.05
4801.18
-1259.17
4895.33
-1254.11
4989.38
-1256.92
5085.64
-1264.19
5182.45
-1273.75
5282.48
-1282.42
5382.01
-1288.95
5485.05
-1291.41
5586.1
-1289.93
5690.23
-1284.01
5790.82
-1274.75
5894.05
-1262.06
5993.11
-1247.34
6094.46
-1230.56
6191.09
-1212.89
6289.81
-1194.18
6383.89
-1175.39
6479.92
-1156.25
6571.27
-1137.47
6664.55
-1118.55
6753.37
-1099.78
6844.01
-1080.62
6930.1
-1061.01
7017.77
-1040.44
7100.87
-1018.72
7185.04
-995.416
7264.22
-970.209
7343.82
-942.971
7418.15
-913.612
7492.21
-882.327
7560.63
-849.208
7628.21
-814.679
7690.01
-778.913
7750.42
-742.491
7805.03
-705.712
7857.82
-669.205
7905.07
-633.389
7950.18
-599.03
7990.07
-565.948
8027.86
-538.147
8061.09
-508.949
-488.803
1675.14
-705.818
1712.39
-649.887
1740.83
-596.215
1773.88
-551.099
1785.65
-515.79
1815.16
-476.881
1824.78
-468.962
1856.07
-472.775
1871.9
-492.701
1904.98
-522.014
1924.86
-563.202
1963.1
-615.868
1991.64
-661.375
2040.55
-692.28
2083.85
-708.027
2136.62
-724.636
2191.92
-731.21
2240.21
-732.201
2291.14
-710.565
2336.43
-669.832
2381.36
-629.28
2419.48
-597.565
2460.35
-570.754
2495.35
-534.465
2530.67
-483.708
2550.96
-421.923
2569.23
-371.094
2582.42
-339.555
2595.5
-325.728
2614.98
-329.597
2639.73
-348.686
2674.5
-386.636
2703.78
-435.316
2721.03
-478.192
2701.48
-495.402
2650.86
-479.004
2565.89
-446.407
2480.69
-421.755
2416.55
-440.35
2403.35
-517.496
2441.46
-653.992
2528.12
-826.865
2644.91
-1011.53
2782.67
-1188.2
2927.36
-1348.24
3081.25
-1487.22
3241.32
-1599.02
3385.29
-1678.69
3532.61
-1721.45
3671.73
-1732.51
3805.24
-1713.2
3931.35
-1672.96
4047
-1616.87
4156.75
-1557.02
4256.19
-1497.56
4352.01
-1447.08
4440.81
-1406.54
4528.03
-1378.39
4612.75
-1362.55
4698.06
-1356.65
4783.91
-1359.98
4872.53
-1368.58
4962.35
-1379.92
5055.99
-1390.37
5149.77
-1398.32
5247.62
-1401.83
5344.04
-1400.75
5444.02
-1394.66
5540.91
-1384.75
5640.87
-1371.03
5737.05
-1355
5835.88
-1336.72
5930.29
-1317.33
6027.11
-1296.85
6119.55
-1276.16
6214.23
-1255.2
6304.5
-1234.54
6397
-1213.88
6485.29
-1193.41
6575.71
-1172.59
6661.83
-1151.32
6749.84
-1129.04
6833.48
-1105.52
6918.5
-1080.28
6998.68
-1052.95
7079.54
-1023.34
7155.23
-991.376
7230.87
-957.272
7300.91
-921.117
7370.3
-883.371
7433.93
-844.211
7496.29
-804.226
7552.81
-763.781
7607.59
-723.509
7656.75
-683.901
7703.77
-645.721
7745.46
-608.762
7784.89
-577.397
7819.63
-544.271
-519.837
1639.5
-740.676
1679.11
-679.983
1709.76
-621.732
1744.35
-573.393
1757.31
-534.928
1787.62
-493.159
1798.03
-484.105
1829.46
-489.323
1844.89
-511.312
1876.52
-544.646
1894.23
-591.007
1929.69
-650.159
1955.07
-701.45
2000.53
-738.233
2040.1
-758.307
2089.29
-779.37
2140.91
-789.203
2186.18
-788.913
2234.57
-762.762
2277.61
-715.83
2320.68
-666.87
2357.15
-629.565
2396.62
-598.766
2429.74
-558.445
2462.29
-500.683
2478.39
-428.697
2492.69
-372.51
2503.7
-340.194
2517.81
-330.304
2541.03
-341.637
2566.96
-365.771
2591.99
-399.33
2593.24
-428.42
2566.52
-437.567
2497.92
-419.774
2412.18
-381.497
2321.25
-354.605
2264.95
-364.918
2252.22
-435.447
2291.77
-564.794
2368.87
-743.231
2475.99
-945.093
2597.95
-1147.14
2730.68
-1333.21
2865.11
-1497.63
3006.61
-1638.65
3154.19
-1750.41
3286.81
-1828.93
3423.54
-1868.46
3553.13
-1874.69
3677.46
-1848.29
3794.89
-1799.17
3901.63
-1733.32
4002.6
-1663.66
4092.95
-1595.34
4179.81
-1537.61
4259.5
-1491.76
4337.7
-1460.34
4413.61
-1443.24
4490.43
-1437.96
4568.3
-1443.38
4649.44
-1455.08
4732.39
-1469.53
4819.78
-1483.07
4907.87
-1493.79
5000.65
-1499.46
5092.52
-1500.03
5188.45
-1494.94
5281.77
-1485.59
5378.61
-1472.02
5472.07
-1455.88
5568.55
-1437.13
5660.93
-1417.15
5756.04
-1395.88
5847.03
-1374.4
5940.58
-1352.58
6029.97
-1331.16
6121.91
-1309.69
6209.91
-1288.42
6300.35
-1266.71
6386.74
-1244.47
6475.35
-1221.05
6559.81
-1196.21
6645.96
-1169.41
6727.42
-1140.16
6809.81
-1108.31
6887.15
-1073.78
6964.66
-1036.75
7036.6
-997.335
7108.06
-956.061
7173.76
-913.117
7238.34
-869.188
7297.05
-824.65
7354.07
-780.247
7405.39
-736.458
7454.55
-694.164
7498.22
-653.056
7539.49
-617.856
7575.91
-580.925
-551.929
1618.53
-775.583
1658.6
-710.358
1689.78
-646.817
1724.49
-595.254
1737.61
-555.061
1767.6
-513.571
1777.59
-506.661
1807.6
-514.928
1820.93
-539.291
1849.29
-575.635
1863.04
-624.487
1894.02
-687.221
1914.67
-741.414
1955.35
-779.61
1990.06
-799.287
2034.75
-819.433
2082
-828.187
2123.56
-830.008
2168.85
-802.957
2209.37
-751.678
2250.53
-698.398
2285.34
-658.418
2322.94
-624.779
2353.24
-576.629
2382.35
-508.379
2394.7
-426.39
2407.41
-364.737
2419.94
-332.655
2437.43
-327.408
2461.01
-343.221
2476.22
-361.577
2475.14
-376.756
2437.64
-375.756
2373.42
-350.14
2283.53
-308.579
2206.03
-270.163
2150.46
-271.663
2140.6
-327.502
2166.82
-446.027
2228.79
-617.877
2313.79
-829.58
2419.15
-1055.7
2534.45
-1273.62
2658.25
-1469.15
2783.23
-1639.07
2915.46
-1783.32
3054.28
-1897
3179.07
-1975.59
3308.15
-2014.75
3430.53
-2017.44
3547.41
-1985.35
3657.32
-1928.48
3755.88
-1853.68
3848.46
-1775.13
3929.8
-1698.69
4007.56
-1634.29
4077.83
-1583.31
4146.6
-1548.39
4213.18
-1529.58
4280.97
-1524.34
4350.31
-1531.14
4423.38
-1545.42
4498.95
-1562.83
4579.55
-1579.44
4661.51
-1592.7
4748.8
-1600.58
4835.74
-1602.54
4927.31
-1598.26
5016.8
-1589.19
5110.32
-1575.47
5200.92
-1558.8
5294.93
-1539.24
5385.2
-1518.18
5478.56
-1495.75
5568.12
-1472.97
5660.56
-1449.9
5749.14
-1427.18
5840.6
-1404.55
5928.42
-1382.14
6019.03
-1359.33
6105.86
-1335.95
6195.27
-1311.35
6280.77
-1285.23
6368.26
-1256.93
6451.24
-1225.97
6535.42
-1192.13
6614.66
-1155.28
6694.28
-1115.68
6768.34
-1073.4
6842.09
-1029.04
6910.09
-982.834
6977.09
-935.412
7038.16
-887.23
7097.62
-839.015
7151.26
-791.323
7202.7
-745.039
7248.47
-699.819
7291.65
-660.683
7329.8
-619.593
-585.336
1603.18
-810.537
1642.3
-740.509
1673.28
-672.809
1707.81
-617.598
1720.71
-573.528
1749.74
-528.355
1758.3
-518.727
1785.81
-526.705
1795.81
-551.303
1819.79
-589.928
1828.41
-642.52
1853.88
-710.477
1868.78
-770.284
1903.82
-814.579
1932.79
-839.396
1972.12
-864.686
2013.98
-877.867
2051.08
-879.741
2092.83
-849.313
2130.89
-793.264
2170.57
-732.082
2203.71
-687.362
2238.59
-648.496
2265.13
-594.441
2291.4
-518.442
2302.63
-428.641
2317.34
-366.901
2332.93
-338.434
2350.02
-335.945
2364.21
-346.594
2357.42
-345.713
2327.17
-332.082
2263.39
-303.215
2190.1
-261.129
2114.3
-226.902
2068.69
-216.126
2046.78
-253.769
2059.73
-345.317
2096.92
-494.848
2161.8
-693.393
2246.18
-927.369
2349.07
-1170.17
2460.79
-1398.62
2579.85
-1599.87
2699.26
-1772.48
2825.34
-1918.28
2957.72
-2032.42
3076.08
-2110.34
3198.55
-2146.62
3314.27
-2144.62
3423.95
-2105.11
3526.38
-2038.5
3616.54
-1952.84
3700.4
-1863.3
3772.25
-1777.04
3840.36
-1704.67
3900.54
-1647.9
3959.19
-1609.74
4015.72
-1589.9
4073.66
-1586.09
4133.77
-1596.05
4197.9
-1614.51
4265.35
-1636.49
4338.4
-1657.44
4413.54
-1674.85
4494.68
-1686.17
4576.09
-1691.04
4662.77
-1689
4747.98
-1681.75
4837.78
-1669.33
4925.17
-1653.59
5016.46
-1634.51
5104.41
-1613.72
5195.88
-1591.3
5283.88
-1568.49
5375.15
-1545.27
5462.9
-1522.53
5553.9
-1499.82
5641.59
-1477.33
5732.43
-1454.32
5819.81
-1430.69
5910.15
-1405.63
5996.83
-1378.8
6085.84
-1349.49
6170.53
-1317.12
6256.71
-1281.44
6338.03
-1242.32
6419.93
-1199.99
6496.29
-1154.57
6572.52
-1106.77
6642.99
-1056.85
6712.57
-1005.48
6776.15
-953.176
6838.17
-900.752
6894.24
-848.73
6948.11
-798.142
6996.09
-748.468
7041.33
-705.066
7081.28
-659.799
-619.972
1588.04
-844
1627.04
-770.03
1658.16
-697.889
1692.36
-639.106
1704.51
-592.597
1731.81
-546.601
1738.18
-537.573
1762.46
-546.564
1768.44
-571.681
1787.29
-611.507
1789.9
-665.416
1808.88
-736.025
1817
-798.921
1845.45
-845.052
1867.75
-869.983
1900.92
-894.156
1936.78
-906.516
1968.8
-911.516
2006.72
-881.516
2042.59
-822.721
2081.05
-757.079
2112
-707.932
2143.16
-662.633
2166.39
-599.337
2192.71
-516.035
2206.26
-421.708
2224.02
-358.86
2238.95
-328.213
2247.79
-319.179
2245.48
-316.221
2217.18
-290.874
2171.24
-255.019
2105.71
-213.258
2048.4
-168.602
1996.46
-142.087
1969.93
-147.849
1958.68
-212.607
1977.27
-339.428
2019.57
-526.838
2089.29
-760.799
2177.53
-1022.7
2282.11
-1284.8
2393.1
-1524.52
2509.09
-1731.23
2623.74
-1906.22
2744.01
-2053.05
2869.98
-2167.69
2981.88
-2244.9
3097.59
-2280.59
3206.56
-2274.57
3308.96
-2228.57
3403.78
-2153.12
3485.38
-2057.22
3560.28
-1957.57
3622.31
-1862.17
3680.32
-1782.27
3729.86
-1719.83
3777.74
-1678.04
3823.54
-1656.53
3870.78
-1653.35
3920.85
-1665.9
3975.17
-1687.74
4033.64
-1714.23
4098.25
-1739.37
4165.77
-1760.74
4239.92
-1775.47
4315.07
-1783.02
4396.17
-1783.1
4476.49
-1777.36
4562.04
-1765.94
4645.76
-1750.69
4733.93
-1731.73
4819.24
-1710.73
4908.57
-1687.98
4994.84
-1664.63
5084.82
-1640.93
5171.66
-1617.65
5262.19
-1594.51
5349.76
-1571.6
5440.91
-1548.15
5528.95
-1524.07
5620.37
-1498.46
5708.41
-1470.9
5799.14
-1440.62
5885.77
-1407.01
5974.17
-1369.7
6057.78
-1328.53
6142.19
-1283.82
6221.08
-1235.71
6300
-1184.94
6373.09
-1131.81
6445.4
-1076.92
6511.61
-1020.89
6576.31
-964.54
6634.92
-908.449
6691.32
-853.692
6741.65
-799.629
6789.02
-751.846
6830.8
-702.038
-655.953
1575
-878.747
1613.15
-799.7
1643.51
-723.436
1676.54
-660.023
1687.22
-608.33
1712.39
-557.296
1716.18
-543.891
1737.01
-550.761
1738.43
-574.248
1751.61
-614.462
1747.39
-670.482
1759.12
-744.997
1759.59
-813.348
1780.66
-866.185
1795.37
-897.141
1821.37
-927.05
1850.14
-944.884
1876.31
-951.594
1910.26
-920.643
1944.49
-859.751
1982.02
-786.957
2009.96
-730.468
2037.19
-677.092
2059.35
-610.922
2089.12
-527.478
2105.85
-428.107
2123.28
-361.94
2131.51
-324.873
2128.01
-305.373
2112.73
-287.017
2076.43
-242.573
2035.21
-194.734
1984.06
-150.505
1940.35
-109.488
1893.45
-94.625
1867.44
-122.066
1861.12
-218.27
1890.01
-380.032
1944.61
-597.461
2024.24
-853.833
2118.47
-1131.37
2224.98
-1402.97
2334.64
-1646.87
2446.76
-1854.27
2555.96
-2028.43
2669.86
-2174.84
2789.04
-2288.78
2894.08
-2365.11
3002.92
-2397.92
3105.06
-2387.18
3200.19
-2333.21
3287.47
-2246.89
3360.55
-2138.74
3426.53
-2026.59
3478.7
-1920.01
3526.48
-1830.99
3565.16
-1761.95
3601.91
-1716.51
3636.57
-1694.1
3672.6
-1692.57
3711.94
-1709.36
3755.81
-1736.18
3804.45
-1768.62
3859.84
-1799.3
3918.89
-1826.37
3985.22
-1845.79
4053.31
-1857.81
4128.09
-1861.61
4202.83
-1859.21
4283.49
-1850.52
4363
-1837.55
4447.6
-1820.34
4529.91
-1800.75
4616.81
-1779.07
4701.15
-1756.72
4789.71
-1733.82
4875.56
-1711.44
4965.6
-1689.14
5053.09
-1667.04
5144.63
-1644.29
5233.44
-1620.82
5326.08
-1595.59
5415.67
-1568.07
5508.32
-1537.44
5597.09
-1503
5687.95
-1464.26
5774.08
-1421.08
5861.22
-1373.81
5942.85
-1322.67
6024.64
-1268.48
6100.52
-1211.61
6175.69
-1152.71
6244.66
-1092.47
6312.15
-1031.81
6373.45
-971.238
6432.5
-911.984
6485.27
-853.168
6534.86
-800.602
6578.52
-746.009
-693.154
1560.95
-910.736
1597.96
-827.409
1627.25
-746.711
1658.98
-679.128
1668.28
-624.458
1691.44
-571.759
1692.65
-557.553
1709.74
-563.206
1706.2
-585.027
1713.14
-624.324
1701.44
-680.211
1705.16
-756.293
1697.04
-827.849
1709.66
-882.96
1715.52
-914.411
1733.3
-942.962
1754.22
-960.414
1773.9
-971.57
1803.72
-943.783
1836.56
-882.669
1872.79
-802.9
1897.15
-736.447
1921.51
-674.848
1944.99
-605.698
1979.01
-521.261
1996.13
-415.07
2009.49
-339.775
2009.74
-290.042
1997.38
-257.002
1978.73
-229.231
1949.13
-174.487
1922.28
-123.37
1878.02
-69.8204
1829.44
-12.4848
1776.86
0.670315
1756.04
-57.5142
1766.25
-202.454
1814.25
-411.076
1884.23
-664.718
1972.9
-947.143
2070.81
-1241.69
2177.04
-1523.27
2283.72
-1771.5
2390.82
-1979.52
2493.75
-2152.84
2600.74
-2297.93
2712.68