/*--------------------------------*- C++ -*----------------------------------*\
| =========                 |                                                 |
| \\      /  F ield         | OpenFOAM: The Open Source CFD Toolbox           |
|  \\    /   O peration     | Version:  4.1                                   |
|   \\  /    A nd           | Web:      www.OpenFOAM.org                      |
|    \\/     M anipulation  |                                                 |
\*---------------------------------------------------------------------------*/
FoamFile
{
    version     2.0;
    format      ascii;
    class       volScalarField;
    location    "1";
    object      p;
}
// * * * * * * * * * * * * * * * * * * * * * * * * * * * * * * * * * * * * * //

dimensions      [0 2 -2 0 0 0 0];

internalField   nonuniform List<scalar> 
1705
(
6.36918e-29
3.24031e-28
6.01725e-28
7.30878e-28
8.60122e-28
1.10259e-27
1.41379e-27
1.5488e-27
1.68362e-27
1.91515e-27
2.27322e-27
2.4188e-27
2.65352e-27
3.05925e-27
3.21896e-27
3.37866e-27
3.61165e-27
4.09549e-27
4.27648e-27
4.52321e-27
5.09136e-27
5.29912e-27
5.50715e-27
5.76294e-27
6.45958e-27
6.70471e-27
6.94964e-27
7.22204e-27
8.08985e-27
8.38525e-27
8.69248e-27
9.7588e-27
1.01177e-26
1.04768e-26
1.08129e-26
1.21737e-26
1.26196e-26
1.30096e-26
1.47206e-26
1.5276e-26
1.56765e-26
1.59132e-26
1.62433e-26
1.66241e-26
-1.10783e-26
1.75895e-26
1.74537e-26
1.73634e-26
1.73642e-26
1.73756e-26
1.73975e-26
1.7519e-26
1.76949e-26
-1.08192e-26
1.70894e-26
1.67661e-26
1.64943e-26
1.63244e-26
1.61704e-26
1.60322e-26
1.59996e-26
1.60266e-26
-1.26209e-26
1.42965e-26
1.38449e-26
1.34631e-26
1.31919e-26
1.2945e-26
1.27225e-26
1.26162e-26
1.25786e-26
-1.39852e-26
4.84101e-27
4.43035e-27
4.11735e-27
3.94877e-27
3.83858e-27
3.7866e-27
3.84022e-27
3.98195e-27
-8.59405e-27
-8.07793e-27
-7.92244e-27
-7.54173e-27
-7.41495e-27
-7.11191e-27
-6.83867e-27
-6.74956e-27
-6.54438e-27
-6.35554e-27
-6.29408e-27
-6.1519e-27
-6.10118e-27
-5.98545e-27
-5.87902e-27
-5.84396e-27
-5.76206e-27
-5.73349e-27
-5.66632e-27
-5.60584e-27
-5.58657e-27
-5.53865e-27
-5.49626e-27
-5.48403e-27
-5.44937e-27
-5.44008e-27
-5.41142e-27
-5.38814e-27
-5.38301e-27
-5.36206e-27
-5.3589e-27
-5.34156e-27
-5.3299e-27
-5.32951e-27
-5.31692e-27
-5.31022e-27
-5.31244e-27
-5.3033e-27
-5.30697e-27
-5.29956e-27
2.76397e-28
2.69071e-28
2.3528e-28
1.78475e-28
1.01681e-28
8.72824e-30
-9.59916e-29
-2.07889e-28
-3.22561e-28
-4.36156e-28
-5.45695e-28
-6.493e-28
-7.46332e-28
-8.3741e-28
-9.24319e-28
-1.0098e-27
-1.09725e-27
-1.19037e-27
-1.2927e-27
-1.40728e-27
-1.53624e-27
-1.68057e-27
-1.83993e-27
-2.01273e-27
-2.19631e-27
-2.38729e-27
-2.58207e-27
-2.77737e-27
-2.97081e-27
-3.16144e-27
-3.35014e-27
-3.53991e-27
-3.73586e-27
-3.94464e-27
-4.17307e-27
-4.42501e-27
-4.69587e-27
-4.96486e-27
-5.18845e-27
2.7669e-28
2.69204e-28
2.35321e-28
1.78471e-28
1.01652e-28
8.69487e-30
-9.60072e-29
-2.07863e-28
-3.22469e-28
-4.35976e-28
-5.45406e-28
-6.48885e-28
-7.45778e-28
-8.36711e-28
-9.23472e-28
-1.00881e-27
-1.09612e-27
-1.18911e-27
-1.29132e-27
-1.4058e-27
-1.53468e-27
-1.67892e-27
-1.8382e-27
-2.01091e-27
-2.19439e-27
-2.38525e-27
-2.57989e-27
-2.77502e-27
-2.96825e-27
-3.15863e-27
-3.34705e-27
-3.53653e-27
-3.73218e-27
-3.94072e-27
-4.16909e-27
-4.42136e-27
-4.69323e-27
-4.96415e-27
-5.19043e-27
2.76371e-28
2.68698e-28
2.34784e-28
1.78011e-28
1.01335e-28
8.57506e-30
-9.5885e-29
-2.07464e-28
-3.21769e-28
-4.34961e-28
-5.44071e-28
-6.47233e-28
-7.43819e-28
-8.34455e-28
-9.20931e-28
-1.00599e-27
-1.09304e-27
-1.18575e-27
-1.28768e-27
-1.40186e-27
-1.53042e-27
-1.67431e-27
-1.8332e-27
-2.00549e-27
-2.18851e-27
-2.37888e-27
-2.573e-27
-2.76758e-27
-2.96025e-27
-3.15006e-27
-3.33791e-27
-3.52683e-27
-3.72197e-27
-3.93018e-27
-4.1586e-27
-4.4117e-27
-4.68576e-27
-4.96072e-27
-5.19253e-27
2.75479e-28
2.67629e-28
2.33751e-28
1.77164e-28
1.00781e-28
8.39819e-30
-9.5619e-29
-2.06709e-28
-3.20499e-28
-4.33169e-28
-5.41765e-28
-6.44433e-28
-7.40549e-28
-8.30743e-28
-9.168e-28
-1.00145e-27
-1.0881e-27
-1.18039e-27
-1.28188e-27
-1.39558e-27
-1.52359e-27
-1.66687e-27
-1.82509e-27
-1.99665e-27
-2.17888e-27
-2.36842e-27
-2.56167e-27
-2.75537e-27
-2.94715e-27
-3.13608e-27
-3.32307e-27
-3.51117e-27
-3.7056e-27
-3.91335e-27
-4.14188e-27
-4.39627e-27
-4.67368e-27
-4.95476e-27
-5.19492e-27
2.74052e-28
2.66053e-28
2.32277e-28
1.75979e-28
1.00025e-28
8.18418e-30
-9.52059e-29
-2.05613e-28
-3.18691e-28
-4.30646e-28
-5.38545e-28
-6.40548e-28
-7.3604e-28
-8.25649e-28
-9.11152e-28
-9.95271e-28
-1.08138e-27
-1.17311e-27
-1.274e-27
-1.38702e-27
-1.51428e-27
-1.65672e-27
-1.814e-27
-1.98454e-27
-2.16567e-27
-2.35405e-27
-2.5461e-27
-2.7386e-27
-2.92918e-27
-3.11693e-27
-3.30278e-27
-3.4898e-27
-3.6833e-27
-3.89045e-27
-4.11914e-27
-4.37524e-27
-4.65709e-27
-4.9464e-27
-5.19788e-27
2.72118e-28
2.64008e-28
2.30402e-28
1.74487e-28
9.909e-29
7.94582e-30
-9.46442e-29
-2.04184e-28
-3.16363e-28
-4.2742e-28
-5.34447e-28
-6.35623e-28
-7.30339e-28
-8.19223e-28
-9.04041e-28
-9.87496e-28
-1.07293e-27
-1.16396e-27
-1.26409e-27
-1.37626e-27
-1.50256e-27
-1.64393e-27
-1.80002e-27
-1.96925e-27
-2.14898e-27
-2.3359e-27
-2.52645e-27
-2.71743e-27
-2.90652e-27
-3.09279e-27
-3.27722e-27
-3.4629e-27
-3.65523e-27
-3.86163e-27
-4.09048e-27
-4.34865e-27
-4.636e-27
-4.93565e-27
-5.20151e-27
2.69705e-28
2.61521e-28
2.28149e-28
1.72709e-28
9.79916e-29
7.69116e-30
-9.39334e-29
-2.0243e-28
-3.13531e-28
-4.23513e-28
-5.295e-28
-6.29689e-28
-7.23482e-28
-8.11503e-28
-8.95506e-28
-9.78168e-28
-1.0628e-27
-1.15299e-27
-1.2522e-27
-1.36334e-27
-1.48849e-27
-1.62855e-27
-1.7832e-27
-1.95086e-27
-2.12891e-27
-2.31406e-27
-2.50281e-27
-2.69198e-27
-2.87927e-27
-3.06379e-27
-3.24652e-27
-3.4306e-27
-3.62153e-27
-3.82698e-27
-4.05594e-27
-4.31648e-27
-4.61032e-27
-4.92248e-27
-5.20608e-27
2.66832e-28
2.58611e-28
2.25534e-28
1.70659e-28
9.67393e-29
7.42523e-30
-9.30737e-29
-2.00356e-28
-3.10206e-28
-4.18941e-28
-5.23721e-28
-6.22768e-28
-7.15493e-28
-8.02517e-28
-8.85574e-28
-9.67316e-28
-1.05102e-27
-1.14023e-27
-1.23836e-27
-1.3483e-27
-1.47209e-27
-1.61064e-27
-1.7636e-27
-1.92942e-27
-2.10551e-27
-2.28862e-27
-2.47527e-27
-2.66233e-27
-2.84754e-27
-3.03002e-27
-3.21078e-27
-3.39299e-27
-3.58227e-27
-3.78656e-27
-4.01555e-27
-4.27867e-27
-4.57992e-27
-4.90677e-27
-5.21174e-27
2.63516e-28
2.55291e-28
2.22568e-28
1.68346e-28
9.53396e-29
7.15127e-30
-9.20657e-29
-1.97968e-28
-3.06395e-28
-4.13716e-28
-5.17128e-28
-6.14881e-28
-7.06395e-28
-7.92287e-28
-8.74271e-28
-9.54967e-28
-1.03761e-27
-1.1257e-27
-1.2226e-27
-1.33117e-27
-1.45342e-27
-1.59023e-27
-1.74127e-27
-1.90499e-27
-2.07885e-27
-2.25962e-27
-2.44389e-27
-2.62856e-27
-2.8114e-27
-2.99157e-27
-3.17008e-27
-3.35015e-27
-3.53751e-27
-3.74041e-27
-3.96928e-27
-4.23511e-27
-4.54459e-27
-4.88834e-27
-5.21862e-27
2.59771e-28
2.51573e-28
2.1926e-28
1.65776e-28
9.37976e-29
6.87146e-30
-9.09103e-29
-1.95269e-28
-3.02107e-28
-4.07848e-28
-5.09734e-28
-6.06042e-28
-6.96206e-28
-7.80834e-28
-8.6162e-28
-9.41146e-28
-1.0226e-27
-1.10943e-27
-1.20496e-27
-1.31199e-27
-1.4325e-27
-1.56737e-27
-1.71625e-27
-1.87762e-27
-2.04897e-27
-2.22713e-27
-2.40874e-27
-2.59073e-27
-2.77092e-27
-2.9485e-27
-3.12449e-27
-3.30216e-27
-3.48733e-27
-3.68857e-27
-3.91711e-27
-4.18566e-27
-4.50407e-27
-4.86694e-27
-5.22705e-27
2.5561e-28
2.47465e-28
2.15617e-28
1.62957e-28
9.21172e-29
6.58737e-30
-8.96089e-29
-1.92264e-28
-2.97349e-28
-4.01349e-28
-5.01553e-28
-5.96269e-28
-6.84944e-28
-7.68179e-28
-8.47643e-28
-9.25877e-28
-1.00602e-27
-1.09146e-27
-1.18546e-27
-1.29079e-27
-1.40938e-27
-1.54208e-27
-1.68857e-27
-1.84735e-27
-2.01593e-27
-2.19121e-27
-2.36987e-27
-2.5489e-27
-2.72617e-27
-2.90089e-27
-3.0741e-27
-3.24908e-27
-3.43177e-27
-3.63106e-27
-3.85898e-27
-4.13016e-27
-4.45804e-27
-4.84224e-27
-5.23713e-27
2.51045e-28
2.42975e-28
2.11647e-28
1.59893e-28
9.03022e-29
6.30022e-30
-8.81629e-29
-1.88958e-28
-2.92129e-28
-3.94229e-28
-4.92598e-28
-5.85578e-28
-6.72629e-28
-7.54344e-28
-8.32363e-28
-9.09184e-28
-9.87888e-28
-1.0718e-27
-1.16413e-27
-1.26759e-27
-1.38407e-27
-1.51442e-27
-1.6583e-27
-1.81423e-27
-1.97979e-27
-2.15191e-27
-2.32735e-27
-2.50316e-27
-2.67723e-27
-2.84882e-27
-3.01897e-27
-3.191e-27
-3.37091e-27
-3.5679e-27
-3.79486e-27
-4.06841e-27
-4.4061e-27
-4.8138e-27
-5.24893e-27
2.46086e-28
2.38112e-28
2.07356e-28
1.5659e-28
8.83559e-29
6.01104e-30
-8.65743e-29
-1.85354e-28
-2.86455e-28
-3.86499e-28
-4.82883e-28
-5.73985e-28
-6.59279e-28
-7.39349e-28
-8.15805e-28
-8.91095e-28
-9.6824e-28
-1.0505e-27
-1.14102e-27
-1.24245e-27
-1.35664e-27
-1.48442e-27
-1.62546e-27
-1.77831e-27
-1.94059e-27
-2.1093e-27
-2.28124e-27
-2.45356e-27
-2.62418e-27
-2.79237e-27
-2.9592e-27
-3.12798e-27
-3.30481e-27
-3.49914e-27
-3.72471e-27
-4.00022e-27
-4.34782e-27
-4.78105e-27
-5.26272e-27
2.40742e-28
2.32885e-28
2.02751e-28
1.53053e-28
8.62817e-29
5.72071e-30
-8.48449e-29
-1.81459e-28
-2.80335e-28
-3.7817e-28
-4.72423e-28
-5.61509e-28
-6.44916e-28
-7.23219e-28
-7.97994e-28
-8.71637e-28
-9.47105e-28
-1.02759e-27
-1.11615e-27
-1.21539e-27
-1.32712e-27
-1.45214e-27
-1.59012e-27
-1.73966e-27
-1.8984e-27
-2.06343e-27
-2.23163e-27
-2.40018e-27
-2.56708e-27
-2.73162e-27
-2.89486e-27
-3.06013e-27
-3.23354e-27
-3.42483e-27
-3.64847e-27
-3.92535e-27
-4.28266e-27
-4.74326e-27
-5.27837e-27
2.35025e-28
2.27301e-28
1.97839e-28
1.49288e-28
8.40833e-29
5.43008e-30
-8.29772e-29
-1.77278e-28
-2.73778e-28
-3.69257e-28
-4.61235e-28
-5.48169e-28
-6.29563e-28
-7.05979e-28
-7.78958e-28
-8.50842e-28
-9.24515e-28
-1.00309e-27
-1.08956e-27
-1.18646e-27
-1.29556e-27
-1.41762e-27
-1.55234e-27
-1.69832e-27
-1.85329e-27
-2.01439e-27
-2.17858e-27
-2.34312e-27
-2.50604e-27
-2.66666e-27
-2.82606e-27
-2.98752e-27
-3.15721e-27
-3.345e-27
-3.56613e-27
-3.84358e-27
-4.21002e-27
-4.69951e-27
-5.29592e-27
2.28944e-28
2.2137e-28
1.92629e-28
1.45302e-28
8.17642e-29
5.13993e-30
-8.09735e-29
-1.72818e-28
-2.66795e-28
-3.59771e-28
-4.49335e-28
-5.33986e-28
-6.13242e-28
-6.87655e-28
-7.58727e-28
-8.28741e-28
-9.00506e-28
-9.77054e-28
-1.0613e-27
-1.15571e-27
-1.262e-27
-1.38092e-27
-1.51216e-27
-1.65436e-27
-1.80533e-27
-1.96225e-27
-2.12218e-27
-2.28245e-27
-2.44114e-27
-2.5976e-27
-2.75289e-27
-2.91028e-27
-3.07589e-27
-3.25974e-27
-3.47765e-27
-3.75468e-27
-4.12924e-27
-4.64864e-27
-5.31489e-27
2.2251e-28
2.15102e-28
1.87128e-28
1.41099e-28
7.93282e-29
4.85104e-30
-7.88366e-29
-1.68083e-28
-2.59395e-28
-3.49728e-28
-4.36742e-28
-5.1898e-28
-5.95979e-28
-6.68275e-28
-7.37332e-28
-8.05368e-28
-8.75114e-28
-9.49516e-28
-1.03141e-27
-1.12318e-27
-1.22649e-27
-1.34208e-27
-1.46964e-27
-1.60786e-27
-1.75458e-27
-1.90709e-27
-2.06251e-27
-2.21826e-27
-2.37248e-27
-2.52454e-27
-2.67547e-27
-2.8285e-27
-2.9897e-27
-3.16913e-27
-3.38306e-27
-3.65841e-27
-4.03956e-27
-4.58917e-27
-5.33438e-27
2.15734e-28
2.08506e-28
1.81345e-28
1.36688e-28
7.67794e-29
4.56414e-30
-7.65694e-29
-1.63083e-28
-2.5159e-28
-3.39143e-28
-4.23474e-28
-5.03176e-28
-5.77799e-28
-6.4787e-28
-7.14806e-28
-7.80759e-28
-8.48379e-28
-9.2052e-28
-9.99927e-28
-1.08892e-27
-1.1891e-27
-1.30118e-27
-1.42487e-27
-1.55888e-27
-1.70113e-27
-1.84899e-27
-1.99967e-27
-2.15066e-27
-2.30017e-27
-2.44758e-27
-2.59391e-27
-2.74232e-27
-2.89876e-27
-3.07326e-27
-3.28236e-27
-3.55457e-27
-3.94015e-27
-4.51931e-27
-5.35349e-27
2.08626e-28
2.01592e-28
1.75289e-28
1.32074e-28
7.41218e-29
4.27996e-30
-7.41751e-29
-1.57823e-28
-2.43391e-28
-3.2803e-28
-4.09552e-28
-4.86596e-28
-5.58732e-28
-6.26469e-28
-6.91182e-28
-7.54952e-28
-8.20341e-28
-8.9011e-28
-9.6691e-28
-1.05298e-27
-1.14988e-27
-1.25828e-27
-1.3779e-27
-1.5075e-27
-1.64506e-27
-1.78804e-27
-1.93375e-27
-2.07975e-27
-2.22432e-27
-2.36685e-27
-2.50834e-27
-2.65185e-27
-2.8032e-27
-2.97226e-27
-3.17562e-27
-3.44297e-27
-3.83015e-27
-4.43683e-27
-5.37015e-27
2.01198e-28
1.94372e-28
1.68969e-28
1.27265e-28
7.13597e-29
3.99923e-30
-7.1657e-29
-1.52311e-28
-2.3481e-28
-3.16408e-28
-3.94996e-28
-4.69266e-28
-5.38805e-28
-6.04107e-28
-6.66498e-28
-7.27987e-28
-7.91044e-28
-8.58332e-28
-9.32407e-28
-1.01542e-27
-1.10888e-27
-1.21344e-27
-1.3288e-27
-1.45379e-27
-1.58645e-27
-1.72433e-27
-1.86484e-27
-2.00563e-27
-2.14503e-27
-2.28247e-27
-2.41889e-27
-2.55724e-27
-2.70317e-27
-2.86627e-27
-3.06293e-27
-3.32349e-27
-3.70865e-27
-4.33904e-27
-5.38104e-27
1.93462e-28
1.86856e-28
1.62395e-28
1.22269e-28
6.84976e-29
3.72264e-30
-6.90186e-29
-1.46557e-28
-2.2586e-28
-3.04293e-28
-3.79829e-28
-4.51213e-28
-5.1805e-28
-5.80817e-28
-6.40791e-28
-6.99905e-28
-7.60533e-28
-8.25236e-28
-8.96469e-28
-9.76304e-28
-1.06618e-27
-1.16672e-27
-1.27766e-27
-1.39784e-27
-1.5254e-27
-1.65797e-27
-1.79307e-27
-1.92843e-27
-2.06245e-27
-2.19457e-27
-2.32569e-27
-2.45864e-27
-2.59882e-27
-2.75545e-27
-2.94443e-27
-3.19606e-27
-3.57477e-27
-4.22269e-27
-5.3824e-27
1.8543e-28
1.79056e-28
1.55578e-28
1.17093e-28
6.554e-29
3.45087e-30
-6.62637e-29
-1.40567e-28
-2.16556e-28
-2.91705e-28
-3.64074e-28
-4.32464e-28
-4.96498e-28
-5.56635e-28
-6.14101e-28
-6.70748e-28
-7.28855e-28
-7.90872e-28
-8.59154e-28
-9.35682e-28
-1.02184e-27
-1.11821e-27
-1.22455e-27
-1.33974e-27
-1.46199e-27
-1.58905e-27
-1.71852e-27
-1.84825e-27
-1.97668e-27
-2.10327e-27
-2.22889e-27
-2.3562e-27
-2.49033e-27
-2.63999e-27
-2.8203e-27
-3.06073e-27
-3.42768e-27
-4.08398e-27
-5.3674e-27
1.77113e-28
1.70984e-28
1.48527e-28
1.11746e-28
6.24917e-29
3.18459e-30
-6.33962e-29
-1.34351e-28
-2.0691e-28
-2.78661e-28
-3.47755e-28
-4.13048e-28
-4.74182e-28
-5.31598e-28
-5.86468e-28
-6.40563e-28
-6.96058e-28
-7.55294e-28
-8.20517e-28
-8.9362e-28
-9.75916e-28
-1.06798e-27
-1.16954e-27
-1.27957e-27
-1.39633e-27
-1.51768e-27
-1.64133e-27
-1.76522e-27
-1.88786e-27
-2.00874e-27
-2.12864e-27
-2.25008e-27
-2.37787e-27
-2.52011e-27
-2.69079e-27
-2.91766e-27
-3.26673e-27
-3.91849e-27
-5.32776e-27
1.68526e-28
1.62652e-28
1.41254e-28
1.06235e-28
5.93575e-29
2.92446e-30
-6.04203e-29
-1.27919e-28
-1.96937e-28
-2.65182e-28
-3.30896e-28
-3.92994e-28
-4.51137e-28
-5.05745e-28
-5.57936e-28
-6.09395e-28
-6.62193e-28
-7.18555e-28
-7.80618e-28
-8.50182e-28
-9.28493e-28
-1.01609e-27
-1.11274e-27
-1.21742e-27
-1.32852e-27
-1.44397e-27
-1.56161e-27
-1.67947e-27
-1.79614e-27
-1.9111e-27
-2.02509e-27
-2.14047e-27
-2.26165e-27
-2.39604e-27
-2.5562e-27
-2.76716e-27
-3.09153e-27
-3.72119e-27
-5.24986e-27
1.5968e-28
1.54074e-28
1.3377e-28
1.00569e-28
5.61424e-29
2.6711e-30
-5.73401e-29
-1.2128e-28
-1.86652e-28
-2.51288e-28
-3.13524e-28
-3.72333e-28
-4.27396e-28
-4.79115e-28
-5.28548e-28
-5.77293e-28
-6.27311e-28
-6.80712e-28
-7.39519e-28
-8.05435e-28
-8.79639e-28
-9.62642e-28
-1.05421e-27
-1.1534e-27
-1.25865e-27
-1.36803e-27
-1.47948e-27
-1.59113e-27
-1.70164e-27
-1.81051e-27
-1.91842e-27
-2.02753e-27
-2.14188e-27
-2.26804e-27
-2.4169e-27
-2.60973e-27
-2.90212e-27
-3.48666e-27
-5.11385e-27
1.50589e-28
1.45261e-28
1.26086e-28
9.47572e-29
5.28514e-29
2.42513e-30
-5.41602e-29
-1.14443e-28
-1.76071e-28
-2.37e-28
-2.95664e-28
-3.51096e-28
-4.02998e-28
-4.51748e-28
-4.98348e-28
-5.44304e-28
-5.91467e-28
-6.41824e-28
-6.97283e-28
-7.59448e-28
-8.29429e-28
-9.07706e-28
-9.94059e-28
-1.08759e-27
-1.18684e-27
-1.28998e-27
-1.39506e-27
-1.50033e-27
-1.60451e-27
-1.70713e-27
-1.80879e-27
-1.91145e-27
-2.01876e-27
-2.1364e-27
-2.2733e-27
-2.44606e-27
-2.69918e-27
-3.20937e-27
-4.92567e-27
1.41268e-28
1.36228e-28
1.18214e-28
8.88084e-29
4.94899e-29
2.18715e-30
-5.08853e-29
-1.07419e-28
-1.65209e-28
-2.2234e-28
-2.77344e-28
-3.29316e-28
-3.77979e-28
-4.23688e-28
-4.67384e-28
-5.10481e-28
-5.54715e-28
-6.0195e-28
-6.53974e-28
-7.12291e-28
-7.7794e-28
-8.51369e-28
-9.32371e-28
-1.0201e-27
-1.1132e-27
-1.20993e-27
-1.30849e-27
-1.40721e-27
-1.50491e-27
-1.60111e-27
-1.69636e-27
-1.79243e-27
-1.89252e-27
-2.00142e-27
-2.12589e-27
-2.27708e-27
-2.48424e-27
-2.88303e-27
-4.38386e-27
1.31729e-28
1.26988e-28
1.10166e-28
8.27319e-29
4.60631e-29
1.95772e-30
-4.752e-29
-1.00219e-28
-1.54083e-28
-2.0733e-28
-2.58592e-28
-3.07027e-28
-3.52377e-28
-3.94976e-28
-4.35702e-28
-4.75875e-28
-5.17112e-28
-5.61151e-28
-6.09659e-28
-6.64036e-28
-7.25251e-28
-7.93718e-28
-8.69243e-28
-9.5104e-28
-1.03783e-27
-1.12802e-27
-1.21989e-27
-1.31192e-27
-1.40298e-27
-1.49262e-27
-1.58133e-27
-1.67067e-27
-1.7634e-27
-1.8634e-27
-1.9752e-27
-2.10391e-27
-2.26006e-27
-2.51209e-27
-3.51973e-27
1.21986e-28
1.17556e-28
1.01954e-28
7.65369e-29
4.25764e-29
1.73738e-30
-4.40694e-29
-9.28525e-29
-1.42711e-28
-1.91994e-28
-2.39436e-28
-2.84261e-28
-3.26231e-28
-3.65657e-28
-4.03352e-28
-4.40539e-28
-4.78715e-28
-5.19491e-28
-5.64407e-28
-6.14759e-28
-6.71442e-28
-7.3484e-28
-8.0477e-28
-8.80505e-28
-9.60861e-28
-1.04435e-27
-1.12941e-27
-1.2146e-27
-1.29888e-27
-1.38184e-27
-1.46387e-27
-1.54635e-27
-1.63163e-27
-1.72266e-27
-1.82177e-27
-1.92784e-27
-2.03062e-27
-2.1106e-27
-2.35692e-27
1.12055e-28
1.07944e-28
9.35918e-29
7.02331e-29
3.90354e-29
1.52667e-30
-4.05384e-29
-8.53318e-29
-1.31108e-28
-1.76353e-28
-2.19906e-28
-2.61055e-28
-2.99582e-28
-3.35776e-28
-3.70383e-28
-4.04527e-28
-4.39584e-28
-4.77032e-28
-5.18286e-28
-5.64534e-28
-6.16597e-28
-6.74826e-28
-7.39052e-28
-8.08607e-28
-8.82402e-28
-9.59076e-28
-1.03718e-27
-1.1154e-27
-1.19278e-27
-1.26892e-27
-1.34416e-27
-1.41969e-27
-1.49745e-27
-1.57953e-27
-1.66616e-27
-1.75024e-27
-1.80077e-27
-1.70234e-27
-7.98285e-28
1.0195e-28
9.81678e-29
8.50911e-29
6.38303e-29
3.54455e-29
1.32607e-30
-3.69324e-29
-7.76677e-29
-1.19293e-28
-1.60433e-28
-2.00031e-28
-2.37443e-28
-2.72471e-28
-3.05379e-28
-3.36846e-28
-3.67895e-28
-3.99779e-28
-4.33841e-28
-4.71367e-28
-5.13438e-28
-5.60799e-28
-6.13767e-28
-6.7219e-28
-7.35456e-28
-8.02576e-28
-8.72311e-28
-9.43345e-28
-1.01448e-27
-1.08484e-27
-1.15405e-27
-1.2224e-27
-1.29089e-27
-1.3611e-27
-1.43431e-27
-1.50892e-27
-1.57249e-27
-1.5757e-27
-1.32624e-27
1.87747e-28
9.1684e-29
8.82421e-29
7.64651e-29
5.73383e-29
3.18124e-29
1.13605e-30
-3.32567e-29
-6.9872e-29
-1.07284e-28
-1.44256e-28
-1.79842e-28
-2.13461e-28
-2.44939e-28
-2.74511e-28
-3.02792e-28
-3.307e-28
-3.59361e-28
-3.89983e-28
-4.23723e-28
-4.6155e-28
-5.04133e-28
-5.51758e-28
-6.04284e-28
-6.61163e-28
-7.21504e-28
-7.84192e-28
-8.48045e-28
-9.11985e-28
-9.75217e-28
-1.0374e-27
-1.09877e-27
-1.16016e-27
-1.2228e-27
-1.28732e-27
-1.35055e-27
-1.39579e-27
-1.35968e-27
-1.00069e-27
7.68226e-28
8.12729e-29
7.81815e-29
6.77272e-29
5.07672e-29
2.81419e-29
9.57061e-31
-2.95168e-29
-6.19562e-29
-9.50987e-29
-1.27849e-28
-1.5937e-28
-1.89147e-28
-2.17028e-28
-2.43221e-28
-2.68273e-28
-2.92997e-28
-3.18391e-28
-3.45526e-28
-3.75426e-28
-4.08949e-28
-4.46688e-28
-4.88893e-28
-5.35441e-28
-5.85843e-28
-6.3931e-28
-6.94855e-28
-7.51429e-28
-8.08074e-28
-8.64087e-28
-9.19153e-28
-9.73462e-28
-1.0277e-27
-1.0828e-27
-1.13884e-27
-1.19149e-27
-1.22113e-27
-1.15562e-27
-7.31504e-28
1.07067e-27
7.07311e-29
6.80014e-29
5.88907e-29
4.41272e-29
2.44396e-29
7.89506e-31
-2.57182e-29
-5.39325e-29
-8.27558e-29
-1.11236e-28
-1.38645e-28
-1.64537e-28
-1.8878e-28
-2.11557e-28
-2.33342e-28
-2.54845e-28
-2.76933e-28
-3.00539e-28
-3.26551e-28
-3.55717e-28
-3.8855e-28
-4.25269e-28
-4.65764e-28
-5.0961e-28
-5.5612e-28
-6.04436e-28
-6.53643e-28
-7.02909e-28
-7.51617e-28
-7.99491e-28
-8.46676e-28
-8.93729e-28
-9.41322e-28
-9.8912e-28
-1.03212e-27
-1.04923e-27
-9.6509e-28
-5.17401e-28
1.17645e-27
6.0073e-29
5.7717e-29
4.99692e-29
3.74285e-29
2.07114e-29
6.33767e-31
-2.18666e-29
-4.5813e-29
-7.0274e-29
-9.4442e-29
-1.177e-28
-1.3967e-28
-1.6024e-28
-1.79567e-28
-1.98054e-28
-2.16303e-28
-2.35051e-28
-2.55089e-28
-2.77172e-28
-3.01934e-28
-3.29809e-28
-3.60983e-28
-3.9536e-28
-4.32581e-28
-4.72062e-28
-5.13073e-28
-5.54838e-28
-5.96649e-28
-6.37983e-28
-6.78598e-28
-7.18605e-28
-7.58442e-28
-7.98576e-28
-8.38409e-28
-8.72708e-28
-8.80458e-28
-7.88393e-28
-3.53101e-28
1.14868e-27
4.93131e-29
4.73439e-29
4.09766e-29
3.06816e-29
1.69631e-29
4.90191e-31
-1.79679e-29
-3.76101e-29
-5.76725e-29
-7.74931e-29
-9.65663e-29
-1.14583e-28
-1.31451e-28
-1.473e-28
-1.62461e-28
-1.77429e-28
-1.92808e-28
-2.09248e-28
-2.27366e-28
-2.47683e-28
-2.70555e-28
-2.96133e-28
-3.24338e-28
-3.54875e-28
-3.87264e-28
-4.20906e-28
-4.55165e-28
-4.89459e-28
-5.23357e-28
-5.56658e-28
-5.89445e-28
-6.22049e-28
-6.54779e-28
-6.86918e-28
-7.13452e-28
-7.14916e-28
-6.24836e-28
-2.31426e-28
1.03178e-27
3.84656e-29
3.68982e-29
3.19267e-29
2.38969e-29
1.32006e-29
3.59094e-31
-1.40279e-29
-2.93361e-29
-4.49704e-29
-6.04152e-29
-7.52765e-29
-8.93139e-29
-1.02457e-28
-1.14806e-28
-1.26619e-28
-1.38284e-28
-1.5027e-28
-1.63085e-28
-1.77209e-28
-1.93048e-28
-2.10879e-28
-2.30818e-28
-2.52806e-28
-2.7661e-28
-3.01856e-28
-3.28077e-28
-3.54777e-28
-3.81503e-28
-4.07917e-28
-4.3386e-28
-4.59392e-28
-4.84753e-28
-5.10136e-28
-5.34831e-28
-5.54462e-28
-5.52415e-28
-4.72935e-28
-1.44517e-28
8.52834e-28
2.75443e-29
2.63962e-29
2.28338e-29
1.70849e-29
9.42957e-30
2.40754e-31
-1.00526e-29
-2.10038e-29
-3.21872e-29
-4.32342e-29
-5.38633e-29
-6.39026e-29
-7.33019e-29
-8.21338e-29
-9.05834e-29
-9.89271e-29
-1.07502e-28
-1.16671e-28
-1.26777e-28
-1.38111e-28
-1.50871e-28
-1.6514e-28
-1.80873e-28
-1.97905e-28
-2.15968e-28
-2.34728e-28
-2.53829e-28
-2.72946e-28
-2.91839e-28
-3.10392e-28
-3.28643e-28
-3.46757e-28
-3.64843e-28
-3.82312e-28
-3.95769e-28
-3.92536e-28
-3.3063e-28
-8.43584e-29
6.34372e-28
1.65624e-29
1.58548e-29
1.37119e-29
1.02562e-29
5.65605e-30
1.35416e-31
-6.04794e-30
-1.26258e-29
-1.93424e-29
-2.59766e-29
-3.23593e-29
-3.83876e-29
-4.40314e-29
-4.93346e-29
-5.44085e-29
-5.94193e-29
-6.45699e-29
-7.00773e-29
-7.6149e-29
-8.29584e-29
-9.06246e-29
-9.91972e-29
-1.0865e-28
-1.18882e-28
-1.29732e-28
-1.41001e-28
-1.52474e-28
-1.63955e-28
-1.75301e-28
-1.86441e-28
-1.97396e-28
-2.08262e-28
-2.19094e-28
-2.29503e-28
-2.37343e-28
-2.34674e-28
-1.95452e-28
-4.31129e-29
3.89598e-28
5.53283e-30
5.29134e-30
4.5754e-30
3.42148e-30
1.88583e-30
4.3283e-32
-2.02014e-30
-4.21489e-30
-6.45569e-30
-8.66868e-30
-1.07975e-29
-1.2808e-29
-1.469e-29
-1.64583e-29
-1.81502e-29
-1.98211e-29
-2.15389e-29
-2.33759e-29
-2.54014e-29
-2.76733e-29
-3.02313e-29
-3.30919e-29
-3.6246e-29
-3.96602e-29
-4.32807e-29
-4.70403e-29
-5.08678e-29
-5.46979e-29
-5.8482e-29
-6.21968e-29
-6.58493e-29
-6.94703e-29
-7.30765e-29
-7.65323e-29
-7.91035e-29
-7.80879e-29
-6.46621e-29
-1.31227e-29
1.31014e-28
-1.07715e-20
-5.91503e-21
-3.59349e-21
-1.30667e-21
-1.49833e-21
-6.11437e-22
-3.23941e-22
-1.71052e-22
-1.06348e-22
-8.65687e-23
-3.28896e-23
-1.68514e-23
-9.49056e-24
-6.30839e-24
-4.30566e-24
-1.59459e-24
-7.40779e-25
-3.51449e-25
-1.49172e-25
-1.87207e-26
1.10014e-25
1.48917e-25
1.63215e-25
1.67632e-25
1.67484e-25
)
;

boundaryField
{
    fixedWallsLeftTop
    {
        type            zeroGradient;
    }
    backFaceLeftTop
    {
        type            zeroGradient;
    }
    frontFaceLeftTop
    {
        type            zeroGradient;
    }
    symmetryWallLeftTop
    {
        type            fixedValue;
        value           uniform 0;
    }
    topToBottom
    {
        type            zeroGradient;
    }
    plug
    {
        type            cyclicAMI;
        value           nonuniform List<scalar> 
40
(
6.62789e-26
6.64367e-26
6.66567e-26
6.69106e-26
7.59663e-26
6.75542e-26
6.74637e-26
6.74035e-26
6.74533e-26
6.74609e-26
6.74755e-26
6.75565e-26
6.76738e-26
7.61712e-26
6.72701e-26
6.70545e-26
6.54013e-26
6.52881e-26
6.51854e-26
6.50933e-26
6.50716e-26
6.50896e-26
7.3095e-26
6.39361e-26
5.88691e-26
5.86145e-26
5.84337e-26
5.82691e-26
5.81208e-26
5.80499e-26
5.80248e-26
6.54259e-26
3.98988e-26
3.9625e-26
3.94163e-26
3.93039e-26
3.92305e-26
3.91958e-26
3.92316e-26
3.93261e-26
)
;
    }
    fixedWallsChannel
    {
        type            zeroGradient;
    }
    inlet
    {
        type            zeroGradient;
    }
    outlet
    {
        type            cyclicAMI;
        value           nonuniform List<scalar> 5(6.83694e-26 6.87919e-26 6.62764e-26 5.94506e-26 3.94035e-26);
    }
    backFaceInletChannel
    {
        type            zeroGradient;
    }
    frontFaceInletChannel
    {
        type            zeroGradient;
    }
}


// ************************************************************************* //
