/*--------------------------------*- C++ -*----------------------------------*\
| =========                 |                                                 |
| \\      /  F ield         | OpenFOAM: The Open Source CFD Toolbox           |
|  \\    /   O peration     | Version:  4.1                                   |
|   \\  /    A nd           | Web:      www.OpenFOAM.org                      |
|    \\/     M anipulation  |                                                 |
\*---------------------------------------------------------------------------*/
FoamFile
{
    version     2.0;
    format      ascii;
    class       surfaceScalarField;
    location    "1";
    object      phi;
}
// * * * * * * * * * * * * * * * * * * * * * * * * * * * * * * * * * * * * * //

dimensions      [0 3 -1 0 0 0 0];

internalField   nonuniform List<scalar> 
3240
(
-4.66984e-25
-4.74381e-25
7.4191e-27
-4.7436e-25
-4.7436e-25
-4.74431e-25
-4.79738e-25
5.38218e-27
-4.79742e-25
-4.79742e-25
-4.79843e-25
-4.83891e-25
4.1796e-27
-4.8392e-25
-4.84055e-25
-5.04417e-25
2.05519e-26
-5.04469e-25
-5.04469e-25
-5.04647e-25
-5.27277e-25
2.28937e-26
-5.27358e-25
-5.27585e-25
-5.70402e-25
4.31604e-26
-5.70512e-25
-5.70512e-25
-5.70801e-25
-6.24022e-25
5.367e-26
-6.24172e-25
-6.24172e-25
-6.2454e-25
-6.94758e-25
7.07972e-26
-6.94956e-25
-6.95415e-25
-8.011e-25
1.06407e-25
-8.01344e-25
-8.01344e-25
-8.01923e-25
-9.43173e-25
1.42169e-25
-9.43489e-25
-9.44209e-25
-1.14262e-24
1.99552e-25
-1.14301e-24
-1.14301e-24
-1.13959e-24
-1.13687e-24
-1.13497e-24
-1.10059e-24
-8.26347e-25
-2.53333e-25
-7.98707e-25
-7.94899e-25
-7.9138e-25
-7.93181e-25
-7.95353e-25
-7.98313e-25
-8.01902e-25
-7.75092e-25
-5.58087e-25
-2.11771e-25
-5.35976e-25
-5.37689e-25
-5.35627e-25
-5.33538e-25
-5.31775e-25
-5.3061e-25
-5.29898e-25
-5.01328e-25
-2.99341e-25
-1.98352e-25
-2.73171e-25
-2.73324e-25
-2.73409e-25
-2.73409e-25
-2.73552e-25
-2.74106e-25
-2.74944e-25
-2.50533e-25
-4.11662e-26
-2.13312e-25
-4.73933e-26
-7.55061e-26
-1.03561e-25
-1.31411e-25
-1.59304e-25
-1.87481e-25
-2.1599e-25
-2.33973e-25
-2.22735e-25
-9.33086e-27
-2.08871e-25
-1.35384e-26
-2.09342e-25
-1.90357e-25
-1.85824e-26
-1.90738e-25
-1.63729e-25
-2.68931e-26
-1.53696e-25
-9.89605e-27
-1.5396e-25
-1.3483e-25
-1.90592e-26
-1.309e-25
-3.85647e-27
-1.3109e-25
-1.19128e-25
-1.18298e-26
-1.19289e-25
-1.018e-25
-1.7451e-26
-9.51166e-26
-6.67332e-27
-9.52409e-26
-8.37779e-26
-1.13953e-26
-8.38882e-26
-7.06391e-26
-1.3228e-26
-6.27946e-26
-7.86764e-27
-6.28863e-26
-5.36849e-26
-9.18782e-27
-4.75956e-26
-6.12339e-27
-4.76759e-26
-4.04246e-26
-7.22814e-27
-4.0501e-26
-3.46534e-26
-5.83961e-27
-2.90937e-26
-5.60522e-27
-2.91644e-26
-2.37082e-26
-5.44351e-27
-2.37772e-26
-2.0347e-26
-3.42534e-27
-1.57887e-26
-4.60942e-27
-1.58551e-26
-1.22054e-26
-3.64609e-27
-8.18155e-27
-4.07646e-27
-8.24665e-27
-3.78635e-27
-4.45387e-27
-3.85133e-27
-3.84846e-27
5.37902e-31
-5.37902e-31
6.97866e-30
2.12267e-31
1.32624e-29
2.43394e-31
2.00615e-29
-1.931e-31
2.75867e-29
-8.73252e-31
3.6017e-29
-1.78487e-30
4.55306e-29
-2.9498e-30
5.63263e-29
-4.409e-30
6.86486e-29
-6.22152e-30
8.28163e-29
-8.46506e-30
9.92554e-29
-1.12367e-29
1.18532e-28
-1.46539e-29
1.41386e-28
-1.88556e-29
1.68762e-28
-2.40048e-29
2.0184e-28
-3.02917e-29
2.4206e-28
-3.79385e-29
2.91156e-28
-4.72063e-29
3.51185e-28
-5.84044e-29
4.24561e-28
-7.19024e-29
5.14111e-28
-8.8144e-29
6.23141e-28
-1.07665e-28
7.55518e-28
-1.31111e-28
9.15783e-28
-1.59252e-28
1.10928e-27
-1.92996e-28
1.34229e-27
-2.33389e-28
1.62214e-27
-2.81579e-28
1.95727e-27
-3.38753e-28
2.3571e-27
-4.05938e-28
2.83153e-27
-4.83659e-28
3.38978e-27
-5.71209e-28
4.03783e-27
-6.65323e-28
4.77345e-27
-7.57723e-28
5.57701e-27
-8.30901e-28
6.39567e-27
-8.51525e-28
7.11923e-27
-7.62066e-28
7.55073e-27
-4.75563e-28
7.39005e-27
1.11405e-28
6.27796e-27
1.05827e-27
2.37233e-27
5.68239e-31
5.6677e-30
6.98087e-30
6.81118e-30
1.32464e-29
6.73315e-30
2.00361e-29
5.83871e-30
2.75523e-29
4.39331e-30
3.59727e-29
2.39437e-30
4.5475e-29
-2.14587e-31
5.62573e-29
-3.51723e-30
6.85632e-29
-7.6209e-30
8.2711e-29
-1.26578e-29
9.91255e-29
-1.87883e-29
1.18372e-28
-2.62067e-29
1.4119e-28
-3.51491e-29
1.68523e-28
-4.59035e-29
2.01548e-28
-5.88228e-29
2.41707e-28
-7.43406e-29
2.9073e-28
-9.29895e-29
3.5067e-28
-1.15422e-28
4.23941e-28
-1.42434e-28
5.13367e-28
-1.74992e-28
6.22247e-28
-2.14261e-28
7.54446e-28
-2.61631e-28
9.14499e-28
-3.18745e-28
1.10774e-27
-3.87509e-28
1.34046e-27
-4.70085e-28
1.61997e-27
-5.68827e-28
1.95473e-27
-6.86127e-28
2.35416e-27
-8.24055e-28
2.82824e-27
-9.83641e-28
3.38627e-27
-1.16346e-27
4.03443e-27
-1.35699e-27
4.77087e-27
-1.5477e-27
5.57659e-27
-1.7007e-27
6.39972e-27
-1.74945e-27
7.13122e-27
-1.57884e-27
7.57476e-27
-1.01412e-27
7.42845e-27
1.54462e-28
6.33095e-27
2.04603e-27
4.13544e-27
6.13979e-31
1.15809e-29
6.97775e-30
1.28132e-29
1.32106e-29
1.25088e-29
1.99783e-29
1.1142e-29
2.74724e-29
8.93457e-30
3.58684e-29
5.86212e-30
4.53429e-29
1.83439e-30
5.60931e-29
-3.27391e-30
6.83617e-29
-9.61826e-30
8.24657e-29
-1.73864e-29
9.88288e-29
-2.68043e-29
1.18015e-28
-3.81468e-29
1.4076e-28
-5.17505e-29
1.68006e-28
-6.80326e-29
2.00928e-28
-8.75125e-29
2.40961e-28
-1.10837e-28
2.89833e-28
-1.3881e-28
3.4959e-28
-1.72426e-28
4.22639e-28
-2.12901e-28
5.11796e-28
-2.61716e-28
6.20352e-28
-3.20657e-28
7.52161e-28
-3.91847e-28
9.11749e-28
-4.77787e-28
1.10444e-27
-5.81372e-28
1.33651e-27
-7.05872e-28
1.61528e-27
-8.54845e-28
1.94921e-27
-1.0319e-27
2.34778e-27
-1.24017e-27
2.82105e-27
-1.48125e-27
3.37853e-27
-1.75312e-27
4.0268e-27
-2.04617e-27
4.76475e-27
-2.336e-27
5.57464e-27
-2.57087e-27
6.40655e-27
-2.65174e-27
7.15381e-27
-2.40637e-27
7.62151e-27
-1.57128e-27
7.50411e-27
1.74622e-28
6.41452e-27
3.03229e-27
6.36242e-27
6.63272e-31
1.72272e-29
6.96558e-30
1.83715e-29
1.3156e-29
1.7781e-29
1.989e-29
1.59302e-29
2.73495e-29
1.29638e-29
3.57073e-29
8.82993e-30
4.51385e-29
3.40454e-30
5.58393e-29
-3.47859e-30
6.8051e-29
-1.20229e-29
8.2089e-29
-2.24722e-29
9.83751e-29
-3.512e-29
1.17471e-28
-5.0323e-29
1.40109e-28
-6.85216e-29
1.67227e-28
-9.02644e-29
1.99995e-28
-1.16239e-28
2.39842e-28
-1.47307e-28
2.88488e-28
-1.84543e-28
3.47971e-28
-2.29278e-28
4.20686e-28
-2.83148e-28
5.09438e-28
-3.48141e-28
6.17504e-28
-4.26653e-28
7.48723e-28
-5.21535e-28
9.07605e-28
-6.36134e-28
1.09946e-27
-7.74327e-28
1.33055e-27
-9.40489e-28
1.6082e-27
-1.13938e-27
1.94088e-27
-1.37585e-27
2.33814e-27
-1.65413e-27
2.81017e-27
-1.97648e-27
3.3668e-27
-2.34041e-27
4.01521e-27
-2.73357e-27
4.75536e-27
-3.12417e-27
5.57141e-27
-3.44443e-27
6.41636e-27
-3.56386e-27
7.18721e-27
-3.25385e-27
7.69134e-27
-2.16084e-27
7.61842e-27
1.54679e-28
6.54772e-27
4.0043e-27
9.157e-27
7.09041e-31
2.26433e-29
6.94196e-30
2.3617e-29
1.30819e-29
2.27172e-29
1.97713e-29
2.03745e-29
2.71841e-29
1.66527e-29
3.54903e-29
1.14681e-29
4.48632e-29
4.6629e-30
5.54976e-29
-3.96963e-30
6.7633e-29
-1.46807e-29
8.15831e-29
-2.77707e-29
9.7767e-29
-4.36007e-29
1.16743e-28
-6.26114e-29
1.39239e-28
-8.53475e-29
1.66188e-28
-1.12491e-28
1.98752e-28
-1.44897e-28
2.38353e-28
-1.83643e-28
2.86699e-28
-2.30072e-28
3.45816e-28
-2.85852e-28
4.18086e-28
-3.53031e-28
5.06298e-28
-4.34101e-28
6.13709e-28
-5.3206e-28
7.44139e-28
-6.50478e-28
9.02078e-28
-7.93547e-28
1.09282e-27
-9.66115e-28
1.32259e-27
-1.17366e-27
1.59874e-27
-1.42217e-27
1.92975e-27
-1.71773e-27
2.32524e-27
-2.06575e-27
2.79561e-27
-2.46924e-27
3.35108e-27
-2.92548e-27
3.99958e-27
-3.41974e-27
4.74255e-27
-3.91352e-27
5.56663e-27
-4.32407e-27
6.42876e-27
-4.4909e-27
7.23093e-27
-4.13009e-27
7.78396e-27
-2.79649e-27
7.7724e-27
7.64141e-29
6.75383e-27
4.9274e-27
1.11935e-26
7.47987e-31
2.78661e-29
6.90597e-30
2.8645e-29
1.29882e-29
2.74319e-29
1.96225e-29
2.45932e-29
2.69767e-29
2.01201e-29
3.5218e-29
1.38951e-29
4.45179e-29
5.72623e-30
5.50691e-29
-4.63343e-30
6.71094e-29
-1.74826e-29
8.09499e-29
-3.3178e-29
9.70066e-29
-5.21489e-29
1.15833e-28
-7.49197e-29
1.38153e-28
-1.0214e-28
1.64892e-28
-1.34625e-28
1.97202e-28
-1.734e-28
2.36496e-28
-2.19753e-28
2.84468e-28
-2.75297e-28
3.43129e-28
-3.42032e-28
4.14844e-28
-4.22416e-28
5.02379e-28
-5.19438e-28
6.08972e-28
-6.36696e-28
7.38417e-28
-7.78469e-28
8.95175e-28
-9.49787e-28
1.08451e-27
-1.15647e-27
1.31265e-27
-1.4051e-27
1.58692e-27
-1.70289e-27
1.91583e-27
-2.05723e-27
2.3091e-27
-2.47473e-27
2.77736e-27
-2.95931e-27
3.33131e-27
-3.50828e-27
3.97983e-27
-4.10497e-27
4.72613e-27
-4.70503e-27
5.55996e-27
-5.21208e-27
6.4432e-27
-5.43744e-27
7.28428e-27
-5.04344e-27
7.89888e-27
-3.49174e-27
7.96644e-27
-7.88367e-29
7.00447e-27
5.79618e-27
1.46677e-26
7.79145e-31
3.29271e-29
6.85744e-30
3.35178e-29
1.28747e-29
3.19963e-29
1.94435e-29
2.86605e-29
2.67277e-29
2.34411e-29
3.48913e-29
1.61862e-29
4.41035e-29
6.66935e-30
5.45552e-29
-5.39632e-30
6.64816e-29
-2.03566e-29
8.01911e-29
-3.86244e-29
9.60957e-29
-6.06969e-29
1.14744e-28
-8.7182e-29
1.36854e-28
-1.18835e-28
1.63341e-28
-1.56602e-28
1.95348e-28
-2.01676e-28
2.34274e-28
-2.55559e-28
2.81798e-28
-3.20129e-28
3.39913e-28
-3.97715e-28
4.10963e-28
-4.9118e-28
4.97689e-28
-6.04008e-28
6.03302e-28
-7.40387e-28
7.31564e-28
-9.05303e-28
8.86907e-28
-1.10462e-27
1.07457e-27
-1.34512e-27
1.30074e-27
-1.63451e-27
1.57274e-27
-1.98123e-27
1.89913e-27
-2.39398e-27
2.28972e-27
-2.88071e-27
2.75541e-27
-3.44638e-27
3.30744e-27
-4.0886e-27
3.95583e-27
-4.78935e-27
4.70584e-27
-5.49939e-27
5.55094e-27
-6.11031e-27
6.45896e-27
-6.40756e-27
7.34634e-27
-6.00176e-27
8.03539e-27
-4.25997e-27
8.20143e-27
-3.30977e-28
7.35933e-27
6.54679e-27
1.64771e-26
8.0277e-31
3.78506e-29
6.79658e-30
3.82725e-29
1.27412e-29
3.64505e-29
1.92348e-29
3.26191e-29
2.64375e-29
2.66598e-29
3.45106e-29
1.83862e-29
4.36209e-29
7.53755e-30
5.39568e-29
-6.21275e-30
6.57509e-29
-2.32572e-29
7.93082e-29
-4.40642e-29
9.50363e-29
-6.91985e-29
1.13478e-28
-9.9351e-29
1.35343e-28
-1.35381e-28
1.61538e-28
-1.78366e-28
1.93193e-28
-2.29666e-28
2.31691e-28
-2.90993e-28
2.78695e-28
-3.64486e-28
3.36175e-28
-4.52803e-28
4.0645e-28
-5.59208e-28
4.92234e-28
-6.8767e-28
5.96705e-28
-8.42967e-28
7.23591e-28
-1.03078e-27
8.77287e-28
-1.25781e-27
1.06299e-27
-1.5318e-27
1.28687e-27
-1.86157e-27
1.55623e-27
-2.25681e-27
1.87966e-27
-2.7276e-27
2.26709e-27
-3.28328e-27
2.72972e-27
-3.93002e-27
3.27941e-27
-4.6661e-27
3.92743e-27
-5.47276e-27
4.68141e-27
-6.29697e-27
5.53905e-27
-7.02022e-27
6.47519e-27
-7.40482e-27
7.41602e-27
-7.01241e-27
8.19255e-27
-5.11448e-27
8.47654e-27
-6.99764e-28
7.75654e-27
7.17671e-27
1.85226e-26
8.19644e-31
4.26536e-29
6.72371e-30
4.29295e-29
1.2588e-29
4.08156e-29
1.89964e-29
3.64921e-29
2.61066e-29
2.98004e-29
3.40767e-29
2.05205e-29
4.30709e-29
8.35724e-30
5.3275e-29
-7.0551e-30
6.49186e-29
-2.61553e-29
7.83028e-29
-4.94668e-29
9.38302e-29
-7.76208e-29
1.12037e-28
-1.11391e-28
1.33624e-28
-1.51739e-28
1.59486e-28
-1.99873e-28
1.9074e-28
-2.57317e-28
2.28751e-28
-3.2599e-28
2.75162e-28
-4.08294e-28
3.31919e-28
-5.07206e-28
4.01311e-28
-6.26389e-28
4.86022e-28
-7.70292e-28
5.89192e-28
-9.44276e-28
7.1451e-28
-1.15472e-27
8.66328e-28
-1.40913e-27
1.0498e-27
-1.71624e-27
1.27106e-27
-2.08596e-27
1.5374e-27
-2.52927e-27
1.85743e-27
-3.05767e-27
2.24123e-27
-3.68197e-27
2.70027e-27
-4.40976e-27
3.24714e-27
-5.24035e-27
3.89446e-27
-6.15491e-27
4.65248e-27
-7.09792e-27
5.52367e-27
-7.94289e-27
6.49089e-27
-8.43225e-27
7.49193e-27
-8.08229e-27
8.36914e-27
-6.06859e-27
8.79159e-27
-1.20584e-27
8.21037e-27
7.66916e-27
2.07901e-26
8.30682e-31
4.73466e-29
6.63915e-30
4.74985e-29
1.24151e-29
4.51007e-29
1.87287e-29
4.02903e-29
2.57354e-29
3.2875e-29
3.35901e-29
2.26023e-29
4.24544e-29
9.14334e-30
5.2511e-29
-7.90674e-30
6.39862e-29
-2.90322e-29
7.71766e-29
-5.48108e-29
9.24794e-29
-8.59396e-29
1.10423e-28
-1.23273e-28
1.31698e-28
-1.67875e-28
1.57188e-28
-2.21082e-28
1.87993e-28
-2.8458e-28
2.25459e-28
-3.60494e-28
2.71205e-28
-4.5148e-28
3.27151e-28
-5.60837e-28
3.95555e-28
-6.92615e-28
4.79063e-28
-8.51744e-28
5.80774e-28
-1.04416e-27
7.04334e-28
-1.27692e-27
8.54043e-28
-1.55836e-27
1.03501e-27
-1.89815e-27
1.25333e-27
-2.30736e-27
1.51626e-27
-2.79824e-27
1.83246e-27
-3.38375e-27
2.21211e-27
-4.07628e-27
2.66705e-27
-4.88507e-27
3.21056e-27
-5.81081e-27
3.85674e-27
-6.83539e-27
4.61868e-27
-7.90214e-27
5.5041e-27
-8.87901e-27
6.50489e-27
-9.49238e-27
7.57248e-27
-9.21774e-27
8.56365e-27
-7.13561e-27
9.14658e-27
-1.87124e-27
8.7352e-27
7.99306e-27
2.21921e-26
8.36758e-31
5.19358e-29
6.54323e-30
5.19824e-29
1.22226e-29
4.93083e-29
1.84321e-29
4.40174e-29
2.53245e-29
3.58886e-29
3.30518e-29
2.46383e-29
4.17724e-29
9.90396e-30
5.16659e-29
-8.75748e-30
6.2955e-29
-3.18753e-29
7.59315e-29
-6.00806e-29
9.09861e-29
-9.41352e-29
1.08639e-28
-1.34974e-28
1.2957e-28
-1.83759e-28
1.54648e-28
-2.41956e-28
1.84956e-28
-3.1141e-28
2.2182e-28
-3.94447e-28
2.66831e-28
-4.93976e-28
3.2188e-28
-6.1361e-28
3.8919e-28
-7.57784e-28
4.71366e-28
-9.31898e-28
5.71464e-28
-1.14245e-27
6.93076e-28
-1.39719e-27
8.40451e-28
-1.70525e-27
1.01864e-27
-2.07728e-27
1.2337e-27
-2.52544e-27
1.49284e-27
-3.06332e-27
1.80476e-27
-3.70538e-27
2.17976e-27
-4.46571e-27
2.63002e-27
-5.35536e-27
3.16958e-27
-6.37688e-27
3.81407e-27
-7.51363e-27
4.57961e-27
-8.70928e-27
5.47956e-27
-9.82887e-27
6.51587e-27
-1.05871e-26
7.65577e-27
-1.04245e-26
8.77422e-27
-8.32884e-27
9.54115e-27
-2.71944e-27
9.30316e-27
8.14494e-27
2.52669e-26
8.38623e-31
5.64234e-29
6.43627e-30
5.63802e-29
1.2011e-29
5.34369e-29
1.81069e-29
4.7673e-29
2.48745e-29
3.88421e-29
3.24624e-29
2.66307e-29
4.10259e-29
1.06433e-29
5.07412e-29
-9.60093e-30
6.18268e-29
-3.46754e-29
7.45693e-29
-6.52637e-29
8.93526e-29
-1.02191e-28
1.06688e-28
-1.46471e-28
1.27242e-28
-1.99366e-28
1.5187e-28
-2.62462e-28
1.81635e-28
-3.37764e-28
2.17839e-28
-4.27796e-28
2.62046e-28
-5.35715e-28
3.16113e-28
-6.65443e-28
3.82225e-28
-8.21795e-28
4.62944e-28
-1.01063e-27
5.61274e-28
-1.23901e-27
6.80754e-28
-1.51536e-27
8.2557e-28
-1.8496e-27
1.00072e-27
-2.25334e-27
1.21218e-27
-2.73989e-27
1.46716e-27
-3.32414e-27
1.77434e-27
-4.02211e-27
2.14418e-27
-4.84971e-27
2.58916e-27
-5.82003e-27
3.12411e-27
-6.93787e-27
3.76624e-27
-8.18893e-27
4.53482e-27
-9.51874e-27
5.44923e-27
-1.07923e-26
6.52238e-27
-1.17177e-26
7.73959e-27
-1.17075e-26
8.99859e-27
-9.66148e-27
9.97571e-27
-3.77655e-27
9.98801e-27
8.04803e-27
2.59648e-26
8.36896e-31
6.08092e-29
6.31853e-30
6.06886e-29
1.17805e-29
5.74829e-29
1.77537e-29
5.12545e-29
2.4386e-29
4.1734e-29
3.18229e-29
2.85796e-29
4.02162e-29
1.13633e-29
4.97383e-29
-1.04329e-29
6.06033e-29
-3.74255e-29
7.30922e-29
-7.03497e-29
8.75814e-29
-1.10093e-28
1.04572e-28
-1.57746e-28
1.24718e-28
-2.14667e-28
1.48858e-28
-2.82566e-28
1.78033e-28
-3.636e-28
2.13522e-28
-4.60488e-28
2.56857e-28
-5.76632e-28
3.09859e-28
-7.16255e-28
3.74672e-28
-8.84547e-28
4.53809e-28
-1.08782e-27
5.50221e-28
-1.33369e-27
6.67384e-28
-1.63123e-27
8.09421e-28
-1.99118e-27
9.81256e-28
-2.42608e-27
1.18881e-27
-2.95037e-27
1.43924e-27
-3.58029e-27
1.74124e-27
-4.33347e-27
2.10536e-27
-5.22773e-27
2.54445e-27
-6.27842e-27
3.07407e-27
-7.49305e-27
3.71305e-27
-8.86045e-27
4.48388e-27
-1.03297e-26
5.41222e-27
-1.17688e-26
6.52279e-27
-1.28848e-26
7.82144e-27
-1.30708e-26
9.23399e-27
-1.11465e-26
1.04487e-26
-5.06985e-27
1.07047e-26
7.70907e-27
2.86969e-26
8.32068e-31
6.50914e-29
6.19031e-30
6.49029e-29
1.15313e-29
6.14415e-29
1.73729e-29
5.47579e-29
2.38598e-29
4.45618e-29
3.11343e-29
3.04839e-29
3.93443e-29
1.20645e-29
4.86586e-29
-1.12503e-29
5.92863e-29
-4.01197e-29
7.15024e-29
-7.53294e-29
8.56752e-29
-1.17828e-28
1.02295e-28
-1.68781e-28
1.22003e-28
-2.29641e-28
1.45616e-28
-3.02237e-28
1.74158e-28
-3.88878e-28
2.08876e-28
-4.92473e-28
2.51272e-28
-6.16664e-28
3.03127e-28
-7.65969e-28
3.66541e-28
-9.45944e-28
4.43974e-28
-1.16335e-27
5.38319e-28
-1.42634e-27
6.52986e-28
-1.74464e-27
7.92025e-28
-2.12977e-27
9.60285e-28
-2.59522e-27
1.16361e-27
-3.15656e-27
1.40912e-27
-3.83139e-27
1.70547e-27
-4.639e-27
2.06334e-27
-5.5992e-27
2.49586e-27
-6.72986e-27
3.01937e-27
-8.04158e-27
3.65428e-27
-9.52723e-27
4.42631e-27
-1.1141e-26
5.36758e-27
-1.27573e-26
6.51535e-27
-1.40879e-26
7.89841e-27
-1.45174e-26
9.47705e-27
-1.27962e-26
1.09598e-26
-6.62973e-27
1.15441e-26
7.04367e-27
2.69104e-26
8.24528e-31
6.92667e-29
6.05185e-30
6.90179e-29
1.1264e-29
6.53075e-29
1.6965e-29
5.81788e-29
2.32967e-29
4.73221e-29
3.03975e-29
3.23415e-29
3.84117e-29
1.2747e-29
4.75038e-29
-1.2051e-29
5.78779e-29
-4.27531e-29
6.98025e-29
-8.01941e-29
8.36371e-29
-1.25382e-28
9.98606e-29
-1.79556e-28
1.19099e-28
-2.44261e-28
1.42151e-28
-3.21443e-28
1.70014e-28
-4.13558e-28
2.03908e-28
-5.23701e-28
2.453e-28
-6.55747e-28
2.95928e-28
-8.14506e-28
3.57845e-28
-1.00589e-27
4.33455e-28
-1.2371e-27
5.25587e-28
-1.51681e-27
6.3758e-28
-1.8554e-27
7.73407e-28
-2.26516e-27
9.37831e-28
-2.76051e-27
1.13662e-27
-3.35815e-27
1.37681e-27
-4.07706e-27
1.66706e-27
-4.93822e-27
2.01811e-27
-5.96355e-27
2.44339e-27
-7.17362e-27
2.95994e-27
-8.58259e-27
3.58973e-27
-1.01882e-26
4.36166e-27
-1.19514e-26
5.31436e-27
-1.37562e-26
6.49817e-27
-1.53259e-26
7.96726e-27
-1.60487e-26
9.7237e-27
-1.46224e-26
1.15067e-26
-8.48824e-27
1.23388e-26
6.13264e-27
2.77478e-26
8.14576e-31
7.33312e-29
5.90344e-30
7.3028e-29
1.09788e-29
6.90753e-29
1.65308e-29
6.15123e-29
2.26975e-29
5.0011e-29
2.96137e-29
3.41503e-29
3.74198e-29
1.34103e-29
4.62757e-29
-1.28332e-29
5.63803e-29
-4.53211e-29
6.7995e-29
-8.49359e-29
8.14702e-29
-1.32744e-28
9.72724e-29
-1.90056e-28
1.16011e-28
-2.58506e-28
1.38466e-28
-3.40155e-28
1.65608e-28
-4.37602e-28
1.98626e-28
-5.54124e-28
2.38949e-28
-6.93823e-28
2.88273e-28
-8.61793e-28
3.48596e-28
-1.06429e-27
4.22266e-28
-1.30895e-27
5.12043e-28
-1.60497e-27
6.2119e-28
-1.96335e-27
7.53593e-28
-2.39714e-27
9.13926e-28
-2.92169e-27
1.10786e-27
-3.55482e-27
1.34236e-27
-4.31691e-27
1.62605e-27
-5.23064e-27
1.96971e-27
-6.32018e-27
2.38703e-27
-7.60897e-27
2.89572e-27
-9.11514e-27
3.5192e-27
-1.0842e-26
4.28947e-27
-1.27592e-26
5.25157e-27
-1.47634e-26
6.46926e-27
-1.65966e-26
8.02431e-27
-1.76645e-26
9.96906e-27
-1.66353e-26
1.20915e-26
-1.06844e-26
1.32033e-26
4.94425e-27
3.41702e-26
8.02447e-31
7.72804e-29
5.74533e-30
7.69273e-29
1.06763e-29
7.27391e-29
1.60707e-29
6.47534e-29
2.20631e-29
5.26247e-29
2.87841e-29
3.59077e-29
3.63701e-29
1.40537e-29
4.49762e-29
-1.35953e-29
5.47957e-29
-4.78192e-29
6.60827e-29
-8.95472e-29
7.91777e-29
-1.39902e-28
9.45344e-29
-2.00263e-28
1.12746e-28
-2.72354e-28
1.34568e-28
-3.58344e-28
1.60947e-28
-4.60972e-28
1.93039e-28
-5.83694e-28
2.3223e-28
-7.30832e-28
2.80173e-28
-9.07755e-28
3.3881e-28
-1.12106e-27
4.10426e-28
-1.3788e-27
4.97708e-28
-1.69068e-27
6.03838e-28
-2.06831e-27
7.32611e-28
-2.5255e-27
8.886e-28
-3.07851e-27
1.07738e-27
-3.74626e-27
1.30582e-27
-4.55054e-27
1.58247e-27
-5.5158e-27
1.91816e-27
-6.66849e-27
2.32679e-27
-8.03514e-27
2.82665e-27
-9.63822e-27
3.44252e-27
-1.14875e-26
4.2093e-27
-1.35625e-26
5.17824e-27
-1.57762e-26
6.42655e-27
-1.78965e-26
8.06548e-27
-1.93628e-26
1.02071e-26
-1.88435e-26
1.27166e-26
-1.32658e-26
1.43722e-26
3.21475e-27
3.09854e-26
7.88323e-31
8.11095e-29
5.5778e-30
8.07101e-29
1.03569e-29
7.62935e-29
1.55856e-29
6.78972e-29
2.13944e-29
5.51593e-29
2.79099e-29
3.76112e-29
3.52641e-29
1.46763e-29
4.36072e-29
-1.43359e-29
5.31265e-29
-5.02434e-29
6.40685e-29
-9.40206e-29
7.67632e-29
-1.46845e-28
9.16507e-29
-2.10163e-28
1.09306e-28
-2.85783e-28
1.30463e-28
-3.75981e-28
1.56039e-28
-4.83633e-28
1.87153e-28
-6.12365e-28
2.25154e-28
-7.66716e-28
2.71641e-28
-9.52321e-28
3.285e-28
-1.17611e-27
3.97951e-28
-1.44654e-27
4.82602e-28
-1.77381e-27
5.8555e-28
-2.17013e-27
7.10491e-28
-2.65005e-27
8.6189e-28
-3.23071e-27
1.04521e-27
-3.93217e-27
1.2672e-27
-4.77759e-27
1.53636e-27
-5.79322e-27
1.86349e-27
-7.00788e-27
2.26266e-27
-8.45135e-27
2.75268e-27
-1.01508e-26
3.35952e-27
-1.21231e-26
4.12075e-27
-1.43592e-26
5.09343e-27
-1.67916e-26
6.3679e-27
-1.92212e-26
8.08625e-27
-2.11389e-26
1.04302e-26
-2.12524e-26
1.33758e-26
-1.62811e-26
1.54829e-26
1.03679e-27
3.45263e-26
7.72348e-31
8.48137e-29
5.40113e-30
8.43708e-29
1.0021e-29
7.97329e-29
1.50761e-29
7.09389e-29
2.06925e-29
5.76109e-29
2.69925e-29
3.92584e-29
3.41036e-29
1.52774e-29
4.21709e-29
-1.50537e-29
5.13755e-29
-5.25899e-29
6.19555e-29
-9.8349e-29
7.42305e-29
-1.53561e-28
8.86259e-29
-2.19739e-28
1.05698e-28
-2.98772e-28
1.26157e-28
-3.93039e-28
1.50889e-28
-5.0555e-28
1.80979e-28
-6.40094e-28
2.17729e-28
-8.0142e-28
2.62689e-28
-9.95424e-28
3.17683e-28
-1.22936e-27
3.8486e-28
-1.51206e-27
4.6675e-28
-1.85422e-27
5.66353e-28
-2.26864e-27
6.87264e-28
-2.77058e-27
8.33832e-28
-3.37805e-27
1.01139e-27
-4.11223e-27
1.22658e-27
-4.99766e-27
1.48777e-27
-6.06242e-27
1.80575e-27
-7.33773e-27
2.19469e-27
-8.85678e-27
2.67378e-27
-1.06517e-26
3.27007e-27
-1.27472e-26
4.02346e-27
-1.51469e-26
4.99624e-27
-1.78057e-26
6.29119e-27
-2.05649e-26
8.08172e-27
-2.29856e-26
1.06291e-26
-2.38628e-26
1.40685e-26
-1.9788e-26
1.68223e-26
-1.7844e-27
4.73755e-26
7.54632e-31
8.8388e-29
5.21561e-30
8.79039e-29
9.66926e-30
8.3052e-29
1.45429e-29
7.38737e-29
1.99584e-29
5.99758e-29
2.60333e-29
4.08466e-29
3.28904e-29
1.58562e-29
4.06695e-29
-1.57476e-29
4.95451e-29
-5.48549e-29
5.9747e-29
-1.02526e-28
7.15834e-29
-1.60041e-28
8.54646e-29
-2.28977e-28
1.01927e-28
-3.113e-28
1.21657e-28
-4.09493e-28
1.45508e-28
-5.26688e-28
1.74526e-28
-6.66838e-28
2.09969e-28
-8.34891e-28
2.53332e-28
-1.03699e-27
3.06375e-28
-1.28071e-27
3.71174e-28
-1.57526e-27
4.50173e-28
-1.93179e-27
5.46276e-28
-2.36369e-27
6.62965e-28
-2.8869e-27
8.04465e-28
-3.52031e-27
9.75975e-28
-4.28616e-27
1.18399e-27
-5.2104e-27
1.43676e-27
-6.32292e-27
1.74499e-27
-7.65742e-27
2.12289e-27
-9.25061e-27
2.58997e-27
-1.11399e-26
3.17408e-27
-1.33582e-26
3.91711e-27
-1.59232e-26
4.88588e-27
-1.88145e-26
6.19437e-27
-2.19206e-26
8.04663e-27
-2.48922e-26
1.0792e-26
-2.66693e-26
1.47886e-26
-2.38496e-26
1.87884e-26
-5.84749e-27
4.69882e-26
7.35267e-31
9.18276e-29
5.02154e-30
9.13039e-29
9.30213e-30
8.62457e-29
1.3987e-29
7.6697e-29
1.91932e-29
6.22503e-29
2.50337e-29
4.23734e-29
3.16262e-29
1.64117e-29
3.91052e-29
-1.64163e-29
4.76383e-29
-5.70349e-29
5.74464e-29
-1.06544e-28
6.88259e-29
-1.66274e-28
8.21717e-29
-2.37862e-28
9.79996e-29
-3.2335e-28
1.16969e-28
-4.25315e-28
1.39902e-28
-5.47015e-28
1.67804e-28
-6.92555e-28
2.01885e-28
-8.67077e-28
2.43583e-28
-1.07697e-27
2.94593e-28
-1.3301e-27
3.56912e-28
-1.63604e-27
4.32897e-28
-2.00641e-27
5.25348e-28
-2.45513e-27
6.37628e-28
-2.99882e-27
7.73831e-28
-3.65724e-27
9.39005e-28
-4.45367e-27
1.13949e-27
-5.41544e-27
1.38338e-27
-6.57425e-27
1.68126e-27
-7.96634e-27
2.04732e-27
-9.63201e-27
2.50123e-27
-1.16141e-26
3.07148e-27
-1.39543e-26
3.80145e-27
-1.66851e-26
4.76163e-27
-1.98133e-26
6.0755e-27
-2.328e-26
7.97556e-27
-2.68448e-26
1.09048e-26
-2.96576e-26
1.55086e-26
-2.8516e-26
2.09015e-26
-1.12991e-26
5.78653e-26
7.14321e-31
9.51276e-29
4.81921e-30
9.45658e-29
8.92018e-30
8.93089e-29
1.34092e-29
7.94043e-29
1.83981e-29
6.44308e-29
2.39952e-29
4.38366e-29
3.03131e-29
1.69432e-29
3.74804e-29
-1.70588e-29
4.56579e-29
-5.91264e-29
5.50572e-29
-1.10398e-28
6.59625e-29
-1.72252e-28
7.87521e-29
-2.4638e-28
9.3921e-29
-3.34901e-28
1.12101e-28
-4.40483e-28
1.3408e-28
-5.66499e-28
1.60823e-28
-7.17205e-28
1.93489e-28
-8.97927e-28
2.33458e-28
-1.11529e-27
2.82355e-28
-1.37743e-27
3.42098e-28
-1.69431e-27
4.14948e-28
-2.07794e-27
5.036e-28
-2.54281e-27
6.11292e-28
-3.10618e-27
7.41973e-28
-3.78862e-27
9.00534e-28
-4.61447e-27
1.09314e-27
-5.61241e-27
1.3277e-27
-6.81596e-27
1.61463e-27
-8.26387e-27
1.96803e-27
-1.00001e-26
2.40763e-27
-1.20732e-26
2.96225e-27
-1.45338e-26
3.67633e-27
-1.74299e-26
4.62296e-27
-2.0797e-26
5.93291e-27
-2.46337e-26
7.86305e-27
-2.88255e-26
1.09505e-26
-3.2802e-26
1.61973e-26
-3.38226e-26
2.36674e-26
-1.88224e-26
5.45095e-26
6.9185e-31
9.82835e-29
4.60893e-30
9.76846e-29
8.52399e-30
9.22369e-29
1.28102e-29
8.19914e-29
1.75743e-29
6.65139e-29
2.29195e-29
4.52338e-29
2.8953e-29
1.74498e-29
3.57977e-29
-1.76741e-29
4.3607e-29
-6.11261e-29
5.25831e-29
-1.14082e-28
6.29973e-29
-1.77963e-28
7.52113e-29
-2.54519e-28
8.96977e-29
-3.45936e-28
1.0706e-28
-4.54971e-28
1.28052e-28
-5.85111e-28
1.53594e-28
-7.40749e-28
1.84795e-28
-9.27394e-28
2.22972e-28
-1.15189e-27
2.6968e-28
-1.42265e-27
3.26752e-28
-1.74997e-27
3.96354e-28
-2.14629e-27
4.81065e-28
-2.62659e-27
5.83994e-28
-3.20879e-27
7.08939e-28
-3.91424e-27
8.60617e-28
-4.7683e-27
1.04499e-27
-5.80097e-27
1.26978e-27
-7.04758e-27
1.54518e-27
-8.54942e-27
1.88511e-27
-1.03542e-26
2.3092e-27
-1.2516e-26
2.84641e-27
-1.50948e-26
3.54165e-27
-1.81546e-26
4.46949e-27
-2.17603e-26
5.76524e-27
-2.59715e-26
7.70399e-27
-3.08129e-26
1.09097e-26
-3.60623e-26
1.67973e-26
-3.97671e-26
2.65999e-26
-2.86719e-26
6.23781e-26
6.67896e-31
1.01291e-28
4.39103e-30
1.00656e-28
8.11417e-30
9.50251e-29
1.21911e-29
8.44543e-29
1.67231e-29
6.84963e-29
2.18081e-29
4.65628e-29
2.7548e-29
1.79308e-29
3.40596e-29
-1.82612e-29
4.14888e-29
-6.30308e-29
5.00278e-29
-1.17589e-28
5.99351e-29
-1.834e-28
7.15546e-29
-2.62265e-28
8.53363e-29
-3.56438e-28
1.01855e-28
-4.68759e-28
1.21826e-28
-6.02821e-28
1.46128e-28
-7.63153e-28
1.75815e-28
-9.55432e-28
2.12141e-28
-1.18671e-27
2.56588e-28
-1.46568e-27
3.10899e-28
-1.80294e-27
3.77142e-28
-2.21134e-27
4.57777e-28
-2.70634e-27
5.55776e-28
-3.30648e-27
6.74777e-28
-4.03388e-27
8.1931e-28
-4.91488e-27
9.9513e-28
-5.98078e-27
1.20971e-27
-7.26868e-27
1.47299e-27
-8.82237e-27
1.79864e-27
-1.06932e-26
2.20605e-27
-1.29412e-26
2.72401e-27
-1.56355e-26
3.39742e-27
-1.88561e-26
4.30105e-27
-2.26978e-26
5.57158e-27
-2.72822e-26
7.49402e-27
-3.27818e-26
1.07615e-26
-3.93821e-26
1.72412e-26
-4.63007e-26
3.02409e-26
-4.17107e-26
7.89144e-26
6.42488e-31
1.04145e-28
4.16581e-30
1.03474e-28
7.69134e-30
9.7669e-29
1.15528e-29
8.67889e-29
1.58458e-29
7.03749e-29
2.06628e-29
4.78216e-29
2.61004e-29
1.83855e-29
3.22688e-29
-1.8819e-29
3.93064e-29
-6.48376e-29
4.73954e-29
-1.20914e-28
5.67805e-29
-1.88554e-28
6.77877e-29
-2.69607e-28
8.08434e-29
-3.6639e-28
9.6492e-29
-4.81824e-28
1.15413e-28
-6.19601e-28
1.38437e-28
-7.8438e-28
1.66564e-28
-9.81998e-28
2.00983e-28
-1.21971e-27
2.43097e-28
-1.50645e-27
2.94563e-28
-1.85313e-27
3.57342e-28
-2.27298e-27
4.33771e-28
-2.78194e-27
5.2668e-28
-3.3991e-27
6.39536e-28
-4.14735e-27
7.76673e-28
-5.05397e-27
9.43614e-28
-6.15151e-27
1.14756e-27
-7.47882e-27
1.39816e-27
-9.08214e-27
1.70872e-27
-1.10166e-26
2.09828e-27
-1.33477e-26
2.59519e-27
-1.61539e-26
3.24375e-27
-1.95313e-26
4.11767e-27
-2.36039e-26
5.3516e-27
-2.85543e-26
7.23001e-27
-3.47044e-26
1.04848e-26
-4.26867e-26
1.74249e-26
-5.32917e-26
3.50672e-26
-5.93828e-26
1.04472e-25
6.15646e-31
1.06843e-28
3.9336e-30
1.06136e-28
7.25614e-30
1.00165e-28
1.08962e-29
8.89916e-29
1.49437e-29
7.21467e-29
1.94854e-29
4.90082e-29
2.46122e-29
1.88131e-29
3.04281e-29
-1.93468e-29
3.70634e-29
-6.65437e-29
4.46898e-29
-1.24053e-28
5.35383e-29
-1.93416e-28
6.39164e-29
-2.76533e-28
7.62261e-29
-3.75778e-28
9.0981e-29
-4.94146e-28
1.08822e-28
-6.35426e-28
1.30532e-28
-8.04398e-28
1.57056e-28
-1.00705e-27
1.89513e-28
-1.25083e-27
2.2923e-28
-1.5449e-27
2.77769e-28
-1.90047e-27
3.36983e-28
-2.33113e-27
4.09085e-28
-2.85325e-27
4.9675e-28
-3.4865e-27
6.03272e-28
-4.25445e-27
7.32771e-28
-5.18531e-27
8.90522e-28
-6.31285e-27
1.08343e-27
-7.67758e-27
1.32078e-27
-9.32817e-27
1.61547e-27
-1.13233e-26
1.98603e-27
-1.37342e-26
2.4601e-27
-1.66484e-26
3.08085e-27
-2.01772e-26
3.91965e-27
-2.44731e-26
5.10559e-27
-2.97764e-26
6.91072e-27
-3.65516e-26
1.00606e-26
-4.58839e-26
1.71815e-26
-6.04604e-26
4.162e-26
-8.38398e-26
-6.75921e-26
5.87373e-31
1.0938e-28
3.69474e-30
1.08637e-28
6.80922e-30
1.02508e-28
1.02224e-29
9.10588e-29
1.40181e-29
7.38088e-29
1.82776e-29
5.01207e-29
2.30858e-29
1.9213e-29
2.85402e-29
-1.98437e-29
3.4763e-29
-6.81462e-29
4.19153e-29
-1.26999e-28
5.02136e-29
-1.9798e-28
5.99466e-29
-2.83033e-28
7.14914e-29
-3.84586e-28
8.53297e-29
-5.05706e-28
1.02063e-28
-6.50272e-28
1.22426e-28
-8.23175e-28
1.47304e-28
-1.03055e-27
1.7775e-28
-1.28002e-27
2.15007e-28
-1.58097e-27
2.60543e-28
-1.94488e-27
3.16099e-28
-2.38568e-27
3.83754e-28
-2.92017e-27
4.66032e-28
-3.56853e-27
5.66038e-28
-4.35501e-27
6.8767e-28
-5.30868e-27
8.35932e-28
-6.46448e-27
1.0174e-27
-7.86455e-27
1.24097e-27
-9.5599e-27
1.51904e-27
-1.16127e-26
1.86946e-27
-1.40996e-26
2.31894e-27
-1.7117e-26
2.90901e-27
-2.0791e-26
3.70752e-27
-2.53003e-26
4.83458e-27
-3.09375e-26
6.53743e-27
-3.8294e-26
9.47755e-27
-4.88686e-26
1.62464e-26
-6.72741e-26
4.22721e-26
-1.0987e-25
-2.2407e-25
5.5766e-31
1.11753e-28
3.44956e-30
1.10974e-28
6.35126e-30
1.04695e-28
9.53243e-30
9.29872e-29
1.30706e-29
7.53587e-29
1.70413e-29
5.11574e-29
2.15235e-29
1.95847e-29
2.66081e-29
-2.03088e-29
3.24089e-29
-6.96429e-29
3.9076e-29
-1.29749e-28
4.68115e-29
-2.02239e-28
5.58844e-29
-2.89096e-28
6.66466e-29
-3.92801e-28
7.95471e-29
-5.16487e-28
9.51468e-29
-6.64115e-28
1.14131e-28
-8.40683e-28
1.37326e-28
-1.05246e-27
1.65712e-28
-1.30723e-27
2.0045e-28
-1.6146e-27
2.42911e-28
-1.98629e-27
2.94719e-28
-2.43655e-27
3.5782e-28
-2.98258e-27
4.34573e-28
-3.64506e-27
5.27891e-28
-4.44884e-27
6.41438e-28
-5.42385e-27
7.79929e-28
-6.60613e-27
9.4959e-28
-8.03936e-27
1.15886e-27
-9.7768e-27
1.41956e-27
-1.1884e-26
1.74877e-27
-1.44428e-26
2.17198e-27
-1.75581e-26
2.72864e-27
-2.13698e-26
3.48203e-27
-2.60804e-26
4.54032e-27
-3.20277e-26
6.11444e-27
-3.99053e-26
8.74132e-27
-5.15374e-26
1.45426e-26
-7.31174e-26
3.77049e-26
-1.33026e-25
-3.98531e-25
5.26479e-31
1.13959e-28
3.1984e-30
1.13142e-28
5.88297e-30
1.06722e-28
8.82729e-30
9.47737e-29
1.21025e-29
7.67937e-29
1.57784e-29
5.21166e-29
1.99278e-29
1.99274e-29
2.46348e-29
-2.07415e-29
3.00046e-29
-7.10311e-29
3.61765e-29
-1.32299e-28
4.33373e-29
-2.06185e-28
5.17362e-29
-2.94712e-28
6.16991e-29
-4.0041e-28
7.3642e-29
-5.2647e-28
8.8084e-29
-6.76933e-28
1.0566e-28
-8.56895e-28
1.27135e-28
-1.07274e-27
1.53417e-28
-1.33243e-27
1.85583e-28
-1.64573e-27
2.249e-28
-2.02463e-27
2.72878e-28
-2.48367e-27
3.31321e-28
-3.04039e-27
4.02422e-28
-3.71595e-27
4.88891e-28
-4.5358e-27
5.94146e-28