/*--------------------------------*- C++ -*----------------------------------*\
| =========                 |                                                 |
| \\      /  F ield         | OpenFOAM: The Open Source CFD Toolbox           |
|  \\    /   O peration     | Version:  4.1                                   |
|   \\  /    A nd           | Web:      www.OpenFOAM.org                      |
|    \\/     M anipulation  |                                                 |
\*---------------------------------------------------------------------------*/
FoamFile
{
    version     2.0;
    format      ascii;
    class       volVectorField;
    location    "1";
    object      U;
}
// * * * * * * * * * * * * * * * * * * * * * * * * * * * * * * * * * * * * * //

dimensions      [0 1 -1 0 0 0 0];

internalField   nonuniform List<vector> 
1705
(
(-1.03911e-63 -1.86423e-28 1.18059e-30)
(-6.12829e-62 3.87745e-29 1.61462e-30)
(-1.03796e-63 -1.8555e-28 4.86687e-30)
(3.59447e-61 -4.2116e-28 2.66839e-30)
(6.64816e-58 -1.75702e-28 -1.70865e-30)
(1.29321e-54 3.16386e-29 1.68581e-29)
(5.29002e-53 -2.11091e-28 2.53626e-30)
(9.46546e-50 -4.25811e-28 -6.37176e-30)
(5.8036e-47 -1.6522e-28 -4.2737e-30)
(2.17141e-44 2.02378e-29 3.31567e-29)
(5.76131e-47 -2.39073e-28 -6.96661e-31)
(7.7412e-50 -1.8079e-28 4.69938e-31)
(1.56453e-51 1.60943e-31 4.15238e-29)
(1.79024e-54 -2.5896e-28 8.51771e-30)
(8.45211e-52 -4.47791e-28 -1.02762e-30)
(1.09408e-48 -1.89795e-28 -3.5842e-30)
(2.96798e-47 -3.16339e-29 6.37636e-29)
(4.48125e-44 -3.07347e-28 5.37073e-30)
(3.15754e-46 -2.26559e-28 1.58928e-30)
(1.0533e-48 -7.22238e-29 8.48933e-29)
(1.4096e-50 -3.48876e-28 1.86463e-29)
(8.85239e-47 -5.06306e-28 5.248e-30)
(6.62425e-44 -2.62656e-28 -4.71604e-30)
(9.17887e-48 -1.26144e-28 1.21906e-28)
(8.32396e-49 -4.2079e-28 1.51076e-29)
(-7.1783e-46 -5.53916e-28 -6.0599e-30)
(-1.41872e-43 -3.10526e-28 -1.34067e-29)
(1.00245e-45 -1.88313e-28 1.68719e-28)
(-2.19321e-44 -5.02821e-28 8.6453e-30)
(-5.43575e-46 -3.95261e-28 -6.05941e-30)
(-2.16402e-47 -2.63691e-28 2.30225e-28)
(-1.5236e-43 -5.87898e-28 3.03857e-29)
(-4.11994e-46 -7.11227e-28 1.21117e-30)
(-1.52361e-43 -4.90426e-28 -1.94506e-29)
(-2.13182e-47 -3.60565e-28 3.12766e-28)
(-3.9062e-48 -7.19691e-28 2.2833e-29)
(2.39965e-48 -6.34079e-28 -5.8766e-30)
(1.55389e-44 -4.80296e-28 4.30508e-28)
(1.47506e-42 -8.70758e-28 5.72901e-29)
(8.11194e-39 -1.03737e-27 1.73504e-29)
(9.70937e-38 -1.17285e-27 3.59137e-28)
(9.18338e-38 -1.4169e-27 3.28042e-28)
(8.44469e-38 -1.45569e-27 2.91065e-28)
(-7.95063e-36 1.26751e-26 1.6503e-27)
(1.54265e-36 -2.75318e-28 1.89858e-27)
(-7.93585e-36 -1.39305e-26 1.4285e-27)
(7.00935e-38 -4.09753e-28 3.69909e-28)
(2.94626e-38 -4.43496e-28 3.58623e-28)
(-9.12029e-37 -6.73402e-28 7.56253e-28)
(-8.7358e-37 -8.41327e-28 7.39231e-28)
(-8.85292e-37 -1.07927e-27 7.03992e-28)
(-9.59786e-37 -1.1263e-27 6.76267e-28)
(-3.80266e-35 1.30782e-26 1.98034e-27)
(6.98332e-36 3.7329e-29 2.05601e-27)
(-3.78545e-35 -1.36922e-26 1.86646e-27)
(2.953e-37 -1.40811e-28 7.52512e-28)
(2.60864e-36 -1.77606e-28 1.12685e-27)
(1.43051e-36 -4.09639e-28 1.12907e-27)
(1.43364e-36 -5.7612e-28 1.11433e-27)
(1.43944e-36 -8.11727e-28 1.08799e-27)
(1.77047e-36 -8.55053e-28 1.06847e-27)
(1.86451e-34 1.34564e-26 2.31724e-27)
(-3.51608e-35 2.16914e-28 2.16235e-27)
(1.83596e-34 -1.35896e-26 2.32148e-27)
(-2.53609e-36 1.41435e-28 1.44592e-27)
(-1.09666e-37 9.52822e-29 1.45071e-27)
(-9.35142e-38 -1.44344e-28 1.45605e-27)
(-8.1801e-38 -3.13139e-28 1.44973e-27)
(-7.05652e-38 -5.53051e-28 1.43199e-27)
(-2.97168e-37 -5.9629e-28 1.4203e-27)
(-1.22949e-34 1.40171e-26 2.62784e-27)
(1.268e-35 7.48025e-28 2.19857e-27)
(-1.04842e-35 -1.33252e-26 2.8692e-27)
(-4.96081e-37 3.4259e-28 1.62326e-27)
(-5.03467e-37 2.73043e-28 1.62911e-27)
(-5.1145e-37 1.79278e-29 1.64095e-27)
(-5.19404e-37 -1.64769e-28 1.64005e-27)
(-5.27337e-37 -3.85816e-28 1.62855e-27)
(-5.33604e-37 -5.02209e-28 1.61498e-27)
(-5.30194e-36 6.95037e-27 2.17182e-27)
(3.07164e-37 5.57308e-27 4.08354e-28)
(-6.3867e-43 -1.42952e-28 -3.06002e-29)
(-9.40909e-44 -7.32945e-29 7.29126e-30)
(1.81786e-43 -3.91493e-29 -3.03294e-29)
(-6.66513e-47 -4.26034e-29 4.06931e-30)
(1.15477e-48 -3.92706e-29 -3.12359e-29)
(1.10143e-48 -7.38671e-29 -2.55835e-29)
(-1.96048e-47 -1.25886e-29 2.06465e-30)
(1.58541e-43 -3.78894e-29 -2.68392e-29)
(-1.52363e-43 -4.82854e-29 -2.20857e-29)
(-2.71259e-47 -1.64885e-29 -8.5685e-32)
(-9.73793e-49 -1.06124e-29 -2.41411e-29)
(-2.24851e-47 -1.85994e-29 -1.34618e-30)
(3.48635e-44 -4.81501e-29 -2.53843e-29)
(-1.57167e-43 -2.49467e-29 -2.11075e-29)
(-2.6579e-47 -2.04655e-29 -2.50537e-30)
(-7.50117e-49 -1.69875e-29 -2.1719e-29)
(-1.7569e-44 -2.62244e-29 -3.77916e-30)
(1.4578e-43 -5.1271e-29 -2.25658e-29)
(-1.53365e-43 -9.71039e-30 -1.85659e-29)
(-2.61316e-47 -2.60722e-29 -3.773e-30)
(-1.05526e-48 -5.23406e-29 -1.83947e-29)
(-1.05356e-48 -8.17757e-30 -1.56299e-29)
(-2.0595e-47 -2.56481e-29 -2.5813e-30)
(-1.57221e-43 -2.32756e-29 -1.51467e-29)
(-2.06104e-47 -3.10576e-29 -3.59462e-30)
(-1.0597e-48 -4.27467e-29 -1.45074e-29)
(-1.0761e-48 -4.25738e-30 -1.18733e-29)
(-2.41257e-47 -1.93613e-29 -2.10947e-30)
(-1.564e-43 -1.89251e-29 -1.16189e-29)
(-4.74504e-47 -2.28937e-29 -2.66578e-30)
(-1.51287e-43 -2.70472e-29 -1.11568e-29)
(-8.51464e-48 -3.48875e-30 -9.08002e-30)
(-2.61366e-47 -1.27363e-29 -1.22862e-30)
(-1.57287e-43 -1.70633e-29 -8.84411e-30)
(-8.16741e-48 -5.62539e-30 -7.59841e-30)
(-4.98085e-49 2.00273e-30 2.25988e-31)
(-1.07431e-48 -3.25323e-30 -7.96205e-30)
(-2.49202e-47 1.16882e-30 1.02354e-30)
(-1.51339e-43 6.70131e-30 -8.10792e-30)
(-2.44409e-304 1.79289e-34 -8.96489e-34)
(-1.86908e-297 -7.07392e-35 -1.25276e-32)
(-1.41753e-290 -8.10921e-35 -3.37351e-32)
(-1.06581e-283 6.44175e-35 -5.55398e-32)
(-7.9415e-277 2.91134e-34 -7.94136e-32)
(-5.8617e-270 5.94994e-34 -1.06006e-31)
(-4.28405e-263 9.83283e-34 -1.35913e-31)
(-3.09879e-256 1.46967e-33 -1.69761e-31)
(-2.21727e-249 2.07384e-33 -2.08291e-31)
(-1.56857e-242 2.8217e-33 -2.52441e-31)
(-1.09646e-235 3.7456e-33 -3.03453e-31)
(-7.56864e-229 4.88466e-33 -3.62979e-31)
(-5.15565e-222 6.28522e-33 -4.33197e-31)
(-3.46316e-215 8.0016e-33 -5.16914e-31)
(-2.29213e-208 1.00972e-32 -6.1767e-31)
(-1.49351e-201 1.26462e-32 -7.39832e-31)
(-9.57111e-195 1.57355e-32 -8.88694e-31)
(-6.02631e-188 1.94682e-32 -1.07057e-30)
(-3.72369e-181 2.39675e-32 -1.29291e-30)
(-2.25515e-174 2.93813e-32 -1.56445e-30)
(-1.33671e-167 3.58882e-32 -1.89542e-30)
(-7.7422e-161 4.37036e-32 -2.29776e-30)
(-4.37399e-154 5.30839e-32 -2.7855e-30)
(-2.40541e-147 6.43321e-32 -3.3751e-30)
(-1.28464e-140 7.77963e-32 -4.08594e-30)
(-6.64477e-134 9.38596e-32 -4.9407e-30)
(-3.3183e-127 1.12917e-31 -5.96568e-30)
(-1.59395e-120 1.35312e-31 -7.19061e-30)
(-7.33215e-114 1.61219e-31 -8.64771e-30)
(-3.2126e-107 1.90402e-31 -1.03689e-29)
(-1.33196e-100 2.21774e-31 -1.23793e-29)
(-5.1828e-94 2.52574e-31 -1.46855e-29)
(-1.87297e-87 2.76967e-31 -1.72508e-29)
(-6.20084e-81 2.83842e-31 -1.99545e-29)
(-1.84648e-74 2.54023e-31 -2.25248e-29)
(-4.82024e-68 1.5852e-31 -2.44499e-29)
(-1.06225e-61 -3.71389e-32 -2.49013e-29)
(-1.8614e-55 -3.52767e-31 -2.278e-29)
(-2.33008e-49 -7.90769e-31 -1.8029e-29)
(-2.27178e-308 -1.70991e-33 -9.47045e-34)
(-1.72184e-301 -2.34114e-33 -1.25818e-32)
(-1.29379e-294 -2.32552e-33 -3.37121e-32)
(-9.63414e-288 -1.88189e-33 -5.54708e-32)
(-7.10669e-281 -1.17337e-33 -7.93139e-32)
(-5.19088e-274 -2.03179e-34 -1.05875e-31)
(-3.75261e-267 1.0548e-33 -1.35746e-31)
(-2.68368e-260 2.64209e-33 -1.69554e-31)
(-1.8976e-253 4.61416e-33 -2.08034e-31)
(-1.32589e-246 7.04095e-33 -2.52123e-31)
(-9.14902e-240 1.00083e-32 -3.03061e-31)
(-6.23045e-233 1.36202e-32 -3.62496e-31)
(-4.18439e-226 1.80016e-32 -4.32604e-31)
(-2.76934e-219 2.33028e-32 -5.16188e-31)
(-1.80462e-212 2.97049e-32 -6.16785e-31)
(-1.1568e-205 3.74264e-32 -7.38759e-31)
(-7.28724e-199 4.67319e-32 -8.87395e-31)
(-4.50624e-192 5.79421e-32 -1.069e-30)
(-2.73201e-185 7.14454e-32 -1.29102e-30)
(-1.62173e-178 8.7712e-32 -1.56218e-30)
(-9.41128e-172 1.07309e-31 -1.89269e-30)
(-5.33033e-165 1.30914e-31 -2.29449e-30)
(-2.94081e-158 1.59332e-31 -2.78157e-30)
(-1.57704e-151 1.93502e-31 -3.3704e-30)
(-8.19976e-145 2.34491e-31 -4.08033e-30)
(-4.12187e-138 2.83469e-31 -4.93404e-30)
(-1.99648e-131 3.41627e-31 -5.95783e-30)
(-9.281e-125 4.09998e-31 -7.18148e-30)
(-4.12127e-118 4.891e-31 -8.63734e-30)
(-1.73816e-111 5.78224e-31 -1.03575e-29)
(-6.91371e-105 6.74104e-31 -1.23678e-29)
(-2.57078e-98 7.68475e-31 -1.46755e-29)
(-8.83558e-92 8.43867e-31 -1.72458e-29)
(-2.76526e-85 8.66993e-31 -1.99605e-29)
(-7.7213e-79 7.80304e-31 -2.25516e-29)
(-1.86768e-72 4.96563e-31 -2.451e-29)
(-3.73825e-66 -8.86221e-32 -2.50054e-29)
(-5.71057e-60 -1.03477e-30 -2.29324e-29)
(-5.54127e-54 -2.16927e-30 -1.78406e-29)
(1.66418e-305 -5.74952e-33 -1.02328e-33)
(1.28124e-298 -6.54146e-33 -1.26529e-32)
(9.78305e-292 -6.41399e-33 -3.36473e-32)
(7.40575e-285 -5.66024e-33 -5.53148e-32)
(5.55575e-278 -4.44262e-33 -7.90843e-32)
(4.12866e-271 -2.75216e-33 -1.05568e-31)
(3.03787e-264 -5.3993e-34 -1.35352e-31)
(2.21212e-257 2.26372e-33 -1.6906e-31)
(1.5933e-250 5.74639e-33 -2.07425e-31)
(1.13446e-243 1.00147e-32 -2.51379e-31)
(7.98007e-237 1.51975e-32 -3.02157e-31)
(5.54196e-230 2.14512e-32 -3.61406e-31)
(3.797e-223 2.89665e-32 -4.31291e-31)
(2.56443e-216 3.79787e-32 -5.1461e-31)
(1.70582e-209 4.87784e-32 -6.14889e-31)
(1.11649e-202 6.17259e-32 -7.36481e-31)
(7.18289e-196 7.72666e-32 -8.84656e-31)
(4.53691e-189 9.59491e-32 -1.0657e-30)
(2.80982e-182 1.18445e-31 -1.28705e-30)
(1.70386e-175 1.45569e-31 -1.55739e-30)
(1.01002e-168 1.78306e-31 -1.88691e-30)
(5.84241e-162 2.17826e-31 -2.28752e-30)
(3.29106e-155 2.65511e-31 -2.77318e-30)
(1.80122e-148 3.2296e-31 -3.36031e-30)
(9.5531e-142 3.91986e-31 -4.06825e-30)
(4.89505e-135 4.74557e-31 -4.91964e-30)
(2.41483e-128 5.72675e-31 -5.94081e-30)
(1.14223e-121 6.88074e-31 -7.16165e-30)
(5.15526e-115 8.2163e-31 -8.61471e-30)
(2.20731e-108 9.72193e-31 -1.03326e-29)
(8.90291e-102 1.13438e-30 -1.23422e-29)
(3.35336e-95 1.29457e-30 -1.46526e-29)
(1.16667e-88 1.42386e-30 -1.72323e-29)
(3.69647e-82 1.46706e-30 -1.99686e-29)
(1.04662e-75 1.32841e-30 -2.26006e-29)
(2.57963e-69 8.61802e-31 -2.46256e-29)
(5.32551e-63 -1.09696e-31 -2.52095e-29)
(8.66442e-57 -1.69278e-30 -2.31978e-29)
(9.9769e-51 -3.49929e-30 -1.74998e-29)
(-2.34273e-304 -9.6027e-33 -1.10543e-33)
(-1.79114e-297 -1.03949e-32 -1.27147e-32)
(-1.3581e-290 -1.00966e-32 -3.35359e-32)
(-1.02088e-283 -9.02408e-33 -5.50765e-32)
(-7.60498e-277 -7.29947e-33 -7.87323e-32)
(-5.61203e-270 -4.89735e-33 -1.05094e-31)
(-4.10065e-263 -1.74631e-33 -1.34743e-31)
(-2.96549e-256 2.25083e-33 -1.68296e-31)
(-2.12146e-249 7.21371e-33 -2.06484e-31)
(-1.50049e-242 1.32862e-32 -2.50233e-31)
(-1.04868e-235 2.06414e-32 -3.00773e-31)
(-7.23766e-229 2.94899e-32 -3.59743e-31)
(-4.92949e-222 4.00907e-32 -4.29299e-31)
(-3.31086e-215 5.27657e-32 -5.12226e-31)
(-2.19114e-208 6.79172e-32 -6.12036e-31)
(-1.42763e-201 8.6048e-32 -7.33061e-31)
(-9.14882e-195 1.07784e-31 -8.8055e-31)
(-5.76064e-188 1.33901e-31 -1.06076e-30)
(-3.55987e-181 1.65349e-31 -1.28109e-30)
(-2.15628e-174 2.03286e-31 -1.55021e-30)
(-1.2784e-167 2.49103e-31 -1.87824e-30)
(-7.40684e-161 3.0446e-31 -2.27704e-30)
(-4.18626e-154 3.71307e-31 -2.76055e-30)
(-2.30337e-147 4.519e-31 -3.34511e-30)
(-1.23093e-140 5.48787e-31 -4.05001e-30)
(-6.3719e-134 6.64742e-31 -4.89791e-30)
(-3.18497e-127 8.02583e-31 -5.91512e-30)
(-1.53156e-120 9.64767e-31 -7.13169e-30)
(-7.05401e-114 1.15258e-30 -8.58051e-30)
(-3.09517e-107 1.36451e-30 -1.0295e-29)
(-1.28537e-100 1.59325e-30 -1.23033e-29)
(-5.01072e-94 1.82006e-30 -1.46176e-29)
(-1.81448e-87 2.0051e-30 -1.72113e-29)
(-6.02078e-81 2.07186e-30 -1.99796e-29)
(-1.79727e-74 1.88674e-30 -2.26726e-29)
(-4.70407e-68 1.24404e-30 -2.47976e-29)
(-1.03944e-61 -1.09768e-31 -2.55164e-29)
(-1.82614e-55 -2.34553e-30 -2.36103e-29)
(-2.29273e-49 -5.17314e-30 -1.80541e-29)
(6.99404e-306 -1.32902e-32 -1.18171e-33)
(5.38445e-299 -1.39961e-32 -1.27516e-32)
(4.11118e-292 -1.34994e-32 -3.33731e-32)
(3.11201e-285 -1.21016e-32 -5.47554e-32)
(2.3345e-278 -9.87217e-33 -7.8259e-32)
(1.73475e-271 -6.766e-33 -1.04457e-31)
(1.27636e-264 -2.68915e-33 -1.33922e-31)
(9.2937e-258 2.48274e-33 -1.67268e-31)
(6.69345e-251 8.90119e-33 -2.05217e-31)
(4.7655e-244 1.67476e-32 -2.48693e-31)
(3.35193e-237 2.62402e-32 -2.98917e-31)
(2.32764e-230 3.76448e-32 -3.57516e-31)
(1.59461e-223 5.12897e-32 -4.26636e-31)
(1.07686e-216 6.7585e-32 -5.09045e-31)
(7.16237e-210 8.70454e-32 -6.08233e-31)
(4.68733e-203 1.10317e-31 -7.28507e-31)
(3.01516e-196 1.38205e-31 -8.75085e-31)
(1.90416e-189 1.7171e-31 -1.05419e-30)
(1.17909e-182 2.1206e-31 -1.27317e-30)
(7.14855e-176 2.60747e-31 -1.54064e-30)
(4.23662e-169 3.19571e-31 -1.86668e-30)
(2.45003e-162 3.90671e-31 -2.26308e-30)
(1.37972e-155 4.7656e-31 -2.74369e-30)
(7.54877e-149 5.80147e-31 -3.32482e-30)
(4.00208e-142 7.04717e-31 -4.02568e-30)
(2.04977e-135 8.5385e-31 -4.86888e-30)
(1.01066e-128 1.03119e-30 -5.88081e-30)
(4.77751e-122 1.23996e-30 -7.09165e-30)
(2.15467e-115 1.48191e-30 -8.53476e-30)
(9.2175e-109 1.7553e-30 -1.02445e-29)
(3.71386e-102 2.0511e-30 -1.22511e-29)
(1.39708e-95 2.3459e-30 -1.45702e-29)
(4.8531e-89 2.5895e-30 -1.7182e-29)
(1.53474e-82 2.68492e-30 -1.99923e-29)
(4.33533e-76 2.46131e-30 -2.27662e-29)
(1.06542e-69 1.65245e-30 -2.50249e-29)
(2.19125e-63 -7.70318e-32 -2.59274e-29)
(3.54657e-57 -2.97723e-30 -2.42105e-29)
(4.04839e-51 -6.78349e-30 -1.89888e-29)
(5.84292e-305 -1.68364e-32 -1.24663e-33)
(4.43665e-298 -1.74206e-32 -1.27566e-32)
(3.33507e-291 -1.67164e-32 -3.3157e-32)
(2.48036e-284 -1.49892e-32 -5.43511e-32)
(1.82386e-277 -1.22576e-32 -7.76652e-32)
(1.32497e-270 -8.45438e-33 -1.03658e-31)
(9.50137e-264 -3.46304e-33 -1.32893e-31)
(6.71907e-257 2.86769e-33 -1.65978e-31)
(4.68046e-250 1.07211e-32 -2.03631e-31)
(3.20743e-243 2.03162e-32 -2.46765e-31)
(2.15896e-236 3.19165e-32 -2.96594e-31)
(1.42475e-229 4.58437e-32 -3.54733e-31)
(9.19711e-223 6.24959e-32 -4.23311e-31)
(5.79056e-216 8.2372e-32 -5.05075e-31)
(3.54242e-209 1.06099e-31 -6.03489e-31)
(2.09481e-202 1.34465e-31 -7.22829e-31)
(1.18853e-195 1.68456e-31 -8.68271e-31)
(6.39499e-189 2.09295e-31 -1.04599e-30)
(3.1982e-182 2.58482e-31 -1.26329e-30)
(1.42721e-175 3.17846e-31 -1.5287e-30)
(5.09388e-169 3.89585e-31 -1.85225e-30)
(7.85112e-163 4.76316e-31 -2.24565e-30)
(-9.10682e-156 5.81111e-31 -2.72265e-30)
(-1.32226e-148 7.07528e-31 -3.29948e-30)
(-1.18806e-141 8.59589e-31 -3.99527e-30)
(-8.87042e-135 1.04169e-30 -4.83261e-30)
(-5.90988e-128 1.25832e-30 -5.8379e-30)
(-3.60745e-121 1.51349e-30 -7.04155e-30)
(-2.03907e-114 1.80952e-30 -8.47744e-30)
(-1.07066e-107 2.14459e-30 -1.01811e-29)
(-5.21528e-101 2.50824e-30 -1.21852e-29)
(-2.34531e-94 2.87285e-30 -1.45099e-29)
(-9.65716e-88 3.17872e-30 -1.71435e-29)
(-3.59721e-81 3.30945e-30 -2.00052e-29)
(-1.19137e-74 3.05784e-30 -2.28791e-29)
(-3.42208e-68 2.09608e-30 -2.53053e-29)
(-8.21407e-62 8.06577e-34 -2.64423e-29)
(-1.55252e-55 -3.57453e-30 -2.49516e-29)
(-2.07671e-49 -8.62043e-30 -1.96742e-29)
(5.25753e-305 -2.02644e-32 -1.29855e-33)
(3.98507e-298 -2.07209e-32 -1.27276e-32)
(2.98951e-291 -1.98094e-32 -3.28868e-32)
(2.21815e-284 -1.77512e-32 -5.38636e-32)
(1.62664e-277 -1.45204e-32 -7.6952e-32)
(1.17799e-270 -1.00271e-32 -1.02698e-31)
(8.41645e-264 -4.13186e-33 -1.31658e-31)
(5.92631e-257 3.34325e-33 -1.64431e-31)
(4.10728e-250 1.26131e-32 -2.01728e-31)
(2.79759e-243 2.39341e-32 -2.44454e-31)
(1.86931e-236 3.76153e-32 -2.93811e-31)
(1.22255e-229 5.40339e-32 -3.514e-31)
(7.80376e-223 7.36583e-32 -4.1933e-31)
(4.84346e-216 9.70757e-32 -5.00324e-31)
(2.90791e-209 1.25025e-31 -5.97814e-31)
(1.67618e-202 1.58437e-31 -7.16036e-31)
(9.16787e-196 1.98475e-31 -8.60119e-31)
(4.66133e-189 2.46582e-31 -1.03619e-30)
(2.11233e-182 3.04532e-31 -1.25146e-30)
(7.60338e-176 3.74482e-31 -1.51442e-30)
(1.08371e-169 4.59027e-31 -1.83498e-30)
(-1.57247e-162 5.61257e-31 -2.22477e-30)
(-2.26337e-155 6.84802e-31 -2.69745e-30)
(-2.07823e-148 8.33865e-31 -3.26912e-30)
(-1.59866e-141 1.01321e-30 -3.95885e-30)
(-1.10324e-134 1.22804e-30 -4.78914e-30)
(-7.01011e-128 1.48374e-30 -5.78645e-30)
(-4.14675e-121 1.78515e-30 -6.98141e-30)
(-2.29265e-114 2.13523e-30 -8.40854e-30)
(-1.18448e-107 2.53229e-30 -1.01047e-29)
(-5.69996e-101 2.96477e-30 -1.21054e-29)
(-2.53968e-94 3.40147e-30 -1.44361e-29)
(-1.03843e-87 3.77413e-30 -1.70946e-29)
(-3.84782e-81 3.94833e-30 -2.00165e-29)
(-1.26961e-74 3.68173e-30 -2.30088e-29)
(-3.63817e-68 2.5839e-30 -2.56363e-29)
(-8.72314e-62 1.36603e-31 -2.70615e-29)
(-1.64871e-55 -4.11432e-30 -2.59347e-29)
(-2.20558e-49 -1.03816e-29 -2.14525e-29)
(6.09411e-309 -2.35926e-32 -1.33793e-33)
(4.58667e-302 -2.39301e-32 -1.26656e-32)
(3.41667e-295 -2.28156e-32 -3.2563e-32)
(2.51744e-288 -2.04265e-32 -5.32933e-32)
(1.83347e-281 -1.67003e-32 -7.61204e-32)
(1.31892e-274 -1.15241e-32 -1.0158e-31)
(9.3632e-268 -4.73563e-33 -1.30219e-31)
(6.55349e-261 3.86969e-33 -1.62629e-31)
(4.51739e-254 1.45379e-32 -1.99513e-31)
(3.06278e-247 2.75629e-32 -2.41765e-31)
(2.03945e-240 4.32985e-32 -2.90574e-31)
(1.3314e-233 6.21777e-32 -3.47524e-31)
(8.50294e-227 8.47385e-32 -4.14702e-31)
(5.2982e-220 1.11656e-31 -4.94801e-31)
(3.20993e-213 1.43781e-31 -5.91217e-31)
(1.88226e-206 1.82184e-31 -7.08139e-31)
(1.06143e-199 2.28205e-31 -8.50642e-31)
(5.70109e-193 2.83506e-31 -1.02478e-30)
(2.87107e-186 3.50129e-31 -1.23771e-30)
(1.31635e-179 4.30559e-31 -1.4978e-30)
(5.13256e-173 5.27785e-31 -1.8149e-30)
(1.33112e-166 6.45363e-31 -2.20049e-30)
(-2.27527e-160 7.87477e-31 -2.66813e-30)
(-6.90682e-153 9.58976e-31 -3.2338e-30)
(-6.83763e-146 1.16536e-30 -3.91644e-30)
(-5.22091e-139 1.41268e-30 -4.7385e-30)
(-3.46844e-132 1.7072e-30 -5.72648e-30)
(-2.08476e-125 2.05467e-30 -6.91125e-30)
(-1.1512e-118 2.4588e-30 -8.32802e-30)
(-5.87017e-112 2.91823e-30 -1.00152e-29)
(-2.7627e-105 3.4207e-30 -1.20114e-29)
(-1.1945e-98 3.93212e-30 -1.43481e-29)
(-4.7048e-92 4.37684e-30 -1.70341e-29)
(-1.66663e-85 4.60413e-30 -2.00237e-29)
(-5.21149e-79 4.33806e-30 -2.3152e-29)
(-1.3992e-72 3.12482e-30 -2.60143e-29)
(-3.08839e-66 3.43579e-31 -2.77819e-29)
(-5.19436e-60 -4.5745e-30 -2.70553e-29)
(-5.6401e-54 -1.16666e-29 -2.28361e-29)
(8.05534e-308 -2.68347e-32 -1.36605e-33)
(6.03974e-301 -2.70673e-32 -1.25722e-32)
(4.48755e-294 -2.57553e-32 -3.21861e-32)
(3.30273e-287 -2.30371e-32 -5.26406e-32)
(2.40663e-280 -1.88201e-32 -7.51715e-32)
(1.73542e-273 -1.29689e-32 -1.00305e-31)
(1.23773e-266 -5.29826e-33 -1.28579e-31)
(8.72628e-260 4.42262e-33 -1.60576e-31)
(6.07772e-253 1.64708e-32 -1.96989e-31)
(4.17896e-246 3.1177e-32 -2.38702e-31)
(2.8346e-239 4.89398e-32 -2.86888e-31)
(1.89524e-232 7.02473e-32 -3.43112e-31)
(1.24797e-225 9.57064e-32 -4.09435e-31)
(8.08524e-219 1.2608e-31 -4.88516e-31)
(5.14834e-212 1.62328e-31 -5.83709e-31)
(3.21822e-205 2.05661e-31 -6.99151e-31)
(1.97228e-198 2.57593e-31 -8.39855e-31)
(1.1833e-191 3.20003e-31 -1.0118e-30)
(6.93868e-185 3.95199e-31 -1.22205e-30)
(3.96927e-178 4.85988e-31 -1.47889e-30)
(2.21045e-171 5.95748e-31 -1.79202e-30)
(1.19547e-164 7.28502e-31 -2.17284e-30)
(6.26137e-158 8.88982e-31 -2.63473e-30)
(3.16562e-151 1.08268e-30 -3.19355e-30)
(1.53898e-144 1.31584e-30 -3.8681e-30)
(7.16117e-138 1.59536e-30 -4.68077e-30)
(3.1715e-131 1.92843e-30 -5.65805e-30)
(1.32744e-124 2.32175e-30 -6.83109e-30)
(5.20349e-118 2.77993e-30 -8.23583e-30)
(1.88724e-111 3.30215e-30 -9.91236e-30)
(6.22473e-105 3.87589e-30 -1.19027e-29)
(1.8179e-98 4.46496e-30 -1.42449e-29)
(4.48211e-92 4.9877e-30 -1.69602e-29)
(8.35568e-86 5.27902e-30 -2.00242e-29)
(7.21054e-80 5.03156e-30 -2.33047e-29)
(-2.19485e-73 3.72769e-30 -2.64352e-29)
(-1.23241e-66 6.35199e-31 -2.86014e-29)
(-3.11304e-60 -4.94863e-30 -2.83368e-29)
(-4.33166e-54 -1.31043e-29 -2.42762e-29)
(6.31511e-304 -3.00001e-32 -1.38445e-33)
(4.81827e-297 -3.01427e-32 -1.24497e-32)
(3.64407e-290 -2.86387e-32 -3.1757e-32)
(2.73079e-283 -2.55942e-32 -5.19062e-32)
(2.02675e-276 -2.08918e-32 -7.41068e-32)
(1.48906e-269 -1.43743e-32 -9.88758e-32)
(1.08243e-262 -5.83353e-33 -1.26741e-31)
(7.78068e-256 4.98728e-33 -1.58275e-31)
(5.52712e-249 1.83958e-32 -1.94162e-31)
(3.87753e-242 3.47592e-32 -2.35271e-31)
(2.68455e-235 5.45201e-32 -2.8276e-31)
(1.83276e-228 7.82213e-32 -3.38171e-31)
(1.23276e-221 1.06538e-31 -4.03536e-31)
(8.16156e-215 1.40318e-31 -4.81477e-31)
(5.31291e-208 1.80632e-31 -5.75301e-31)
(3.39662e-201 2.28828e-31 -6.89086e-31)
(2.12984e-194 2.86591e-31 -8.27774e-31)
(1.30797e-187 3.56014e-31 -9.97261e-31)
(7.85376e-181 4.39668e-31 -1.20451e-30)
(4.60232e-174 5.40679e-31 -1.4577e-30)
(2.62641e-167 6.62811e-31 -1.76639e-30)
(1.456e-160 8.10546e-31 -2.14185e-30)
(7.81854e-154 9.89164e-31 -2.59729e-30)
(4.05304e-147 1.2048e-30 -3.14842e-30)
(2.02007e-140 1.46444e-30 -3.8139e-30)
(9.63245e-134 1.77584e-30 -4.61599e-30)
(4.36737e-127 2.14714e-30 -5.5812e-30)
(1.86804e-120 2.58608e-30 -6.74095e-30)
(7.45844e-114 3.09828e-30 -8.13194e-30)
(2.73849e-107 3.68372e-30 -9.79601e-30)
(9.03567e-101 4.3301e-30 -1.17788e-29)
(2.57224e-94 5.00002e-30 -1.41257e-29)
(5.76566e-88 5.6073e-30 -1.68713e-29)
(7.13175e-82 5.97488e-30 -2.0015e-29)
(-1.47305e-75 5.76667e-30 -2.34623e-29)
(-1.3202e-68 4.4014e-30 -2.68936e-29)
(-4.93494e-62 1.02569e-30 -2.95172e-29)
(-1.20843e-55 -5.22074e-30 -2.98032e-29)
(-1.92445e-49 -1.43274e-29 -2.66994e-29)
(6.63708e-308 -3.30941e-32 -1.39458e-33)
(5.01969e-301 -3.31603e-32 -1.23e-32)
(3.7621e-294 -3.14696e-32 -3.12764e-32)
(2.79286e-287 -2.81026e-32 -5.10912e-32)
(2.05273e-280 -2.29212e-32 -7.29276e-32)
(1.493e-273 -1.57469e-32 -9.72937e-32)
(1.074e-266 -6.3491e-33 -1.24707e-31)
(7.6367e-260 5.55474e-33 -1.5573e-31)
(5.36407e-253 2.03025e-32 -1.91035e-31)
(3.71938e-246 3.82971e-32 -2.31477e-31)
(2.54397e-239 6.00249e-32 -2.78196e-31)
(1.715e-232 8.60822e-32 -3.32708e-31)
(1.13852e-225 1.17211e-31 -3.97015e-31)
(7.43553e-219 1.54346e-31 -4.73697e-31)
(4.77216e-212 1.98663e-31 -5.66007e-31)
(3.00627e-205 2.51647e-31 -6.77959e-31)
(1.85641e-198 3.15152e-31 -8.14418e-31)
(1.12205e-191 3.91482e-31 -9.81185e-31)
(6.62698e-185 4.83467e-31 -1.18512e-30)
(3.81745e-178 5.94548e-31 -1.43426e-30)
(2.14022e-171 7.28869e-31 -1.73805e-30)
(1.16496e-164 8.9137e-31 -2.10756e-30)
(6.13913e-158 1.08787e-30 -2.55588e-30)
(3.12193e-151 1.32515e-30 -3.09849e-30)
(1.52608e-144 1.61094e-30 -3.7539e-30)
(7.13775e-138 1.95385e-30 -4.54423e-30)
(3.1763e-131 2.36304e-30 -5.496e-30)
(1.33539e-124 2.84733e-30 -6.64086e-30)
(5.25659e-118 3.41348e-30 -8.0163e-30)
(1.91419e-111 4.06256e-30 -9.66599e-30)
(6.33967e-105 4.78301e-30 -1.16394e-29)
(1.8603e-98 5.53714e-30 -1.39894e-29)
(4.61806e-92 6.23596e-30 -1.67653e-29)
(8.73088e-86 6.69317e-30 -1.99924e-29)
(8.07651e-80 6.54741e-30 -2.36194e-29)
(-2.04001e-73 5.15482e-30 -2.73834e-29)
(-1.21641e-66 1.53022e-30 -3.05258e-29)
(-3.1279e-60 -5.37933e-30 -3.14074e-29)
(-4.44164e-54 -1.58197e-29 -2.85771e-29)
(-6.73616e-308 -3.61197e-32 -1.39769e-33)
(-5.05578e-301 -3.61209e-32 -1.21248e-32)
(-3.76127e-294 -3.42484e-32 -3.07454e-32)
(-2.77256e-287 -3.05635e-32 -5.01965e-32)
(-2.02415e-280 -2.49102e-32 -7.16356e-32)
(-1.46294e-273 -1.70897e-32 -9.55614e-32)
(-1.04622e-266 -6.84909e-33 -1.2248e-31)
(-7.39949e-260 6.11947e-33 -1.52945e-31)
(-5.1728e-253 2.21835e-32 -1.87613e-31)
(-3.57217e-246 4.17814e-32 -2.27327e-31)
(-2.43522e-239 6.54422e-32 -2.73203e-31)
(-1.63772e-232 9.3815e-32 -3.26733e-31)
(-1.08568e-225 1.27708e-31 -3.89883e-31)
(-7.08871e-219 1.68139e-31 -4.65187e-31)
(-4.55449e-212 2.16391e-31 -5.55841e-31)
(-2.87667e-205 2.74081e-31 -6.65788e-31)
(-1.78421e-198 3.4323e-31 -7.99807e-31)
(-1.08539e-191 4.26351e-31 -9.63598e-31)
(-6.46752e-185 5.26526e-31 -1.1639e-30)
(-3.76932e-178 6.4751e-31 -1.40861e-30)
(-2.14512e-171 7.93821e-31 -1.70703e-30)
(-1.1899e-164 9.70849e-31 -2.07004e-30)
(-6.42016e-158 1.18495e-30 -2.51054e-30)
(-3.36159e-151 1.44354e-30 -3.04381e-30)
(-1.70356e-144 1.75511e-30 -3.68816e-30)
(-8.33027e-138 2.12915e-30 -4.46557e-30)
(-3.91669e-131 2.57583e-30 -5.40251e-30)
(-1.76338e-124 3.10514e-30 -6.53086e-30)
(-7.56526e-118 3.72513e-30 -7.88889e-30)
(-3.07476e-111 4.43825e-30 -9.52211e-30)
(-1.17548e-104 5.23419e-30 -1.14839e-29)
(-4.18975e-98 6.07601e-30 -1.38351e-29)
(-1.37671e-91 6.87374e-30 -1.66401e-29)
(-4.10933e-85 7.43495e-30 -1.99527e-29)
(-1.09203e-78 7.37733e-30 -2.377e-29)
(-2.51018e-72 5.99677e-30 -2.7897e-29)
(-4.77263e-66 2.16533e-30 -3.1624e-29)
(-6.9403e-60 -5.39766e-30 -3.32731e-29)
(-6.48295e-54 -1.70773e-29 -3.1182e-29)
(-5.30288e-304 -3.90775e-32 -1.39481e-33)
(-4.05114e-297 -3.90229e-32 -1.19257e-32)
(-3.0687e-290 -3.69733e-32 -3.01649e-32)
(-2.30398e-283 -3.29758e-32 -4.92235e-32)
(-1.71386e-276 -2.68587e-32 -7.02328e-32)
(-1.26256e-269 -1.84034e-32 -9.36814e-32)
(-9.20676e-263 -7.33552e-33 -1.20065e-31)
(-6.64237e-256 6.67793e-33 -1.49924e-31)
(-4.73878e-249 2.40336e-32 -1.83902e-31)
(-3.34106e-242 4.52045e-32 -2.22826e-31)
(-2.3265e-235 7.07616e-32 -2.67789e-31)
(-1.59892e-228 1.01406e-31 -3.20255e-31)
(-1.08377e-221 1.38011e-31 -3.8215e-31)
(-7.2391e-215 1.81676e-31 -4.5596e-31)
(-4.76091e-208 2.33788e-31 -5.44818e-31)
(-3.0799e-201 2.96095e-31 -6.52592e-31)
(-1.9578e-194 3.70783e-31 -7.83964e-31)
(-1.22148e-187 4.60566e-31 -9.44526e-31)
(-7.47031e-181 5.6878e-31 -1.14088e-30)
(-4.47207e-174 6.99484e-31 -1.3808e-30)
(-2.61646e-167 8.57567e-31 -1.67338e-30)
(-1.49347e-160 1.04886e-30 -2.02934e-30)
(-8.3003e-154 1.28026e-30 -2.46134e-30)
(-4.48167e-147 1.55981e-30 -2.98446e-30)
(-2.34495e-140 1.89675e-30 -3.61677e-30)
(-1.18553e-133 2.30148e-30 -4.38009e-30)
(-5.77185e-127 2.78519e-30 -5.3008e-30)
(-2.69554e-120 3.35915e-30 -6.411e-30)
(-1.20197e-113 4.03282e-30 -7.74968e-30)
(-5.08943e-107 4.81031e-30 -9.36418e-30)
(-2.03265e-100 5.68313e-30 -1.13119e-29)
(-7.59427e-94 6.61615e-30 -1.36615e-29)
(-2.62673e-87 7.5204e-30 -1.64935e-29)
(-8.29826e-81 8.20084e-30 -1.98917e-29)
(-2.35159e-74 8.25945e-30 -2.3907e-29)
(-5.82923e-68 6.93598e-30 -2.84258e-29)
(-1.21803e-61 2.9488e-30 -3.28047e-29)
(-2.02289e-55 -5.25237e-30 -3.52559e-29)
(-2.40413e-49 -1.82206e-29 -3.30869e-29)
(-1.77723e-303 -4.19669e-32 -1.38676e-33)
(-1.3564e-296 -4.18638e-32 -1.17039e-32)
(-1.02625e-289 -3.96415e-32 -2.9536e-32)
(-7.69424e-283 -3.53375e-32 -4.81736e-32)
(-5.71391e-276 -2.87653e-32 -6.87211e-32)
(-4.20101e-269 -1.96878e-32 -9.16567e-32)
(-3.05638e-262 -7.80927e-33 -1.17464e-31)
(-2.19917e-255 7.22772e-33 -1.46671e-31)
(-1.56405e-248 2.58484e-32 -1.79908e-31)
(-1.09877e-241 4.85597e-32 -2.17981e-31)
(-7.61942e-235 7.59738e-32 -2.61963e-31)
(-5.21162e-228 1.08842e-31 -3.13284e-31)
(-3.51316e-221 1.48103e-31 -3.73829e-31)
(-2.33187e-214 1.94934e-31 -4.46031e-31)
(-1.52251e-207 2.50826e-31 -5.32957e-31)
(-9.76759e-201 3.17654e-31 -6.38389e-31)
(-6.14976e-194 3.97765e-31 -7.66913e-31)
(-3.79476e-187 4.94075e-31 -9.23998e-31)
(-2.29145e-180 6.10163e-31 -1.11611e-30)
(-1.35176e-173 7.5039e-31 -1.35086e-30)
(-7.77534e-167 9.20008e-31 -1.63715e-30)
(-4.35138e-160 1.12529e-30 -1.98551e-30)
(-2.36343e-153 1.37365e-30 -2.40835e-30)
(-1.24229e-146 1.67377e-30 -2.92051e-30)
(-6.29831e-140 2.03564e-30 -3.53983e-30)
(-3.06794e-133 2.47056e-30 -4.28788e-30)
(-1.42915e-126 2.99083e-30 -5.19097e-30)
(-6.33116e-120 3.60898e-30 -6.28134e-30)
(-2.64904e-113 4.33609e-30 -7.59866e-30)
(-1.03792e-106 5.17821e-30 -9.19205e-30)
(-3.76617e-100 6.12922e-30 -1.11227e-29)
(-1.24706e-93 7.15691e-30 -1.34676e-29)
(-3.6906e-87 8.17539e-30 -1.63231e-29)
(-9.45835e-81 8.9909e-30 -1.98049e-29)
(-1.98772e-74 9.19607e-30 -2.40229e-29)
(-3.03826e-68 7.98089e-30 -2.89592e-29)
(-2.05675e-62 3.89986e-30 -3.40617e-29)
(4.21149e-56 -4.91758e-30 -3.7507e-29)
(1.44276e-49 -1.85358e-29 -3.63593e-29)
(-2.67355e-307 -4.4786e-32 -1.3742e-33)
(-2.01794e-300 -4.46403e-32 -1.14606e-32)
(-1.50932e-293 -4.22497e-32 -2.88597e-32)
(-1.11818e-286 -3.76456e-32 -4.70483e-32)
(-8.20164e-280 -3.0628e-32 -6.71029e-32)
(-5.9528e-273 -2.09418e-32 -8.94902e-32)
(-4.27301e-266 -8.27053e-33 -1.14682e-31)
(-3.03164e-259 7.7671e-33 -1.43192e-31)
(-2.12456e-252 2.76243e-32 -1.75636e-31)
(-1.4696e-245 5.18412e-32 -2.12801e-31)
(-1.0026e-238 8.107e-32 -2.55733e-31)
(-6.74032e-232 1.16112e-31 -3.05829e-31)
(-4.46114e-225 1.57967e-31 -3.64932e-31)
(-2.90381e-218 2.07893e-31 -4.35416e-31)
(-1.85668e-211 2.67478e-31 -5.20274e-31)
(-1.16462e-204 3.38725e-31 -6.23204e-31)
(-7.15587e-198 4.24137e-31 -7.4868e-31)
(-4.29975e-191 5.26825e-31 -9.02046e-31)
(-2.52166e-184 6.50611e-31 -1.08962e-30)
(-1.44019e-177 8.00149e-31 -1.31883e-30)
(-7.98925e-171 9.81048e-31 -1.5984e-30)
(-4.2913e-164 1.20001e-30 -1.93861e-30)
(-2.22344e-157 1.46498e-30 -2.35164e-30)
(-1.10606e-150 1.78525e-30 -2.85206e-30)
(-5.25092e-144 2.17157e-30 -3.45742e-30)
(-2.36009e-137 2.63615e-30 -4.18905e-30)
(-9.93043e-131 3.19241e-30 -5.07312e-30)
(-3.84504e-124 3.85425e-30 -6.14195e-30)
(-1.33019e-117 4.63449e-30 -7.43583e-30)
(-3.8653e-111 5.54139e-30 -9.00555e-30)
(-7.7988e-105 6.5718e-30 -1.09161e-29)
(1.59356e-99 7.69747e-30 -1.32523e-29)
(1.19073e-91 8.83784e-30 -1.61267e-29)
(7.55216e-85 9.80461e-30 -1.96875e-29)
(3.2593e-78 1.01887e-29 -2.4109e-29)
(1.09373e-71 9.13953e-30 -2.9485e-29)
(2.91289e-65 5.03932e-30 -3.53844e-29)
(6.12496e-59 -4.3921e-30 -3.9743e-29)
(1.04653e-52 -1.82194e-29 -3.8344e-29)
(-5.22362e-304 -4.75326e-32 -1.35761e-33)
(-3.99003e-297 -4.73486e-32 -1.11967e-32)
(-3.02197e-290 -4.47943e-32 -2.81371e-32)
(-2.26856e-283 -3.9897e-32 -4.58493e-32)
(-1.68724e-276 -3.24443e-32 -6.53804e-32)
(-1.24275e-269 -2.21639e-32 -8.71852e-32)
(-9.06079e-263 -8.71912e-33 -1.11722e-31)
(-6.53591e-256 8.29473e-33 -1.39492e-31)
(-4.66197e-249 2.93581e-32 -1.71093e-31)
(-3.28627e-242 5.50433e-32 -2.07292e-31)
(-2.28789e-235 8.6042e-32 -2.49108e-31)
(-1.57206e-228 1.23204e-31 -2.97904e-31)
(-1.06533e-221 1.67589e-31 -3.55473e-31)
(-7.11432e-215 2.20533e-31 -4.24129e-31)
(-4.67772e-208 2.8372e-31 -5.06791e-31)
(-3.02533e-201 3.59275e-31 -6.07058e-31)
(-1.92261e-194 4.49857e-31 -7.29293e-31)
(-1.1992e-187 5.58766e-31 -8.78703e-31)
(-7.33193e-181 6.90061e-31 -1.06145e-30)
(-4.38791e-174 8.48683e-31 -1.28477e-30)
(-2.56643e-167 1.04059e-30 -1.55718e-30)