/*--------------------------------*- C++ -*----------------------------------*\
| =========                 |                                                 |
| \\      /  F ield         | OpenFOAM: The Open Source CFD Toolbox           |
|  \\    /   O peration     | Version:  4.1                                   |
|   \\  /    A nd           | Web:      www.OpenFOAM.org                      |
|    \\/     M anipulation  |                                                 |
\*---------------------------------------------------------------------------*/
FoamFile
{
    version     2.0;
    format      ascii;
    class       volScalarField;
    location    "1";
    object      p;
}
// * * * * * * * * * * * * * * * * * * * * * * * * * * * * * * * * * * * * * //

dimensions      [0 2 -2 0 0 0 0];

internalField   nonuniform List<scalar> 
26785
(
0.0449446
0.0457591
0.0448611
0.0432594
0.0417491
0.0406394
0.0401262
0.0401099
0.0404937
0.041095
0.0418136
0.0425578
0.0433166
0.0440742
0.0448064
0.0453554
0.0457683
0.0459975
0.0462006
0.0464245
0.0468067
0.0474169
0.0483085
0.0495506
0.051161
0.0532136
0.0556788
0.0585872
0.0618565
0.065451
0.0692813
0.0733178
0.0774813
0.0817319
0.085984
0.0901735
0.0942362
0.0981505
0.10188
0.105395
0.108638
0.111535
0.114022
0.116072
0.117688
0.118906
0.119766
0.120282
0.120451
0.120265
0.119725
0.118874
0.11778
0.116502
0.115088
0.113564
0.111936
0.110195
0.108327
0.106333
0.104238
0.102084
0.0999121
0.0977524
0.0956198
0.0935179
0.0914471
0.089408
0.0874027
0.0854313
0.0834864
0.0815512
0.0796004
0.0776076
0.0755697
0.0734948
0.0713726
0.0691871
0.0669237
0.0645694
0.0621145
0.0595552
0.0568929
0.0541294
0.0512677
0.0483104
0.0452597
0.0421197
0.0388991
0.035609
0.0322633
0.0288796
0.0254773
0.0220833
0.0187158
0.0153909
0.0120562
0.00869127
0.00527508
0.00178696
0.0449698
0.0457793
0.0448777
0.0432735
0.0417643
0.0406574
0.040149
0.0401372
0.0405261
0.0411315
0.0418537
0.0426002
0.0433611
0.0441193
0.0448519
0.0453995
0.0458107
0.0460372
0.046238
0.0464594
0.0468388
0.0474466
0.0483355
0.0495762
0.0511854
0.053238
0.0557037
0.0586143
0.0618849
0.0654817
0.069314
0.0733529
0.0775191
0.0817738
0.0860288
0.0902211
0.0942861
0.0982013
0.101932
0.105447
0.108689
0.111588
0.114078
0.116132
0.117752
0.118973
0.119833
0.120348
0.120515
0.120328
0.119789
0.11894
0.117847
0.116569
0.115152
0.113624
0.111991
0.110244
0.108372
0.106376
0.10428
0.102124
0.0999488
0.0977846
0.0956474
0.0935418
0.091468
0.0894267
0.0874192
0.0854453
0.0834981
0.0815605
0.0796072
0.0776122
0.0755713
0.0734941
0.0713705
0.0691842
0.0669197
0.0645648
0.0621097
0.0595508
0.056889
0.0541261
0.0512644
0.0483066
0.0452555
0.0421154
0.0388944
0.0356043
0.0322595
0.0288768
0.0254752
0.0220814
0.0187139
0.0153883
0.0120533
0.0086896
0.00527422
0.00178638
0.0450192
0.0458195
0.0449102
0.0433019
0.0417946
0.040694
0.0401944
0.0401921
0.0405904
0.0412046
0.0419337
0.0426855
0.0434499
0.0442099
0.0449422
0.0454876
0.0458951
0.046117
0.0463128
0.0465292
0.0469027
0.0475056
0.0483895
0.0496271
0.0512347
0.0532873
0.0557542
0.0586678
0.0619415
0.0655423
0.0693795
0.0734235
0.0775956
0.0818573
0.0861182
0.0903161
0.0943864
0.0983041
0.102036
0.105551
0.108793
0.111693
0.114189
0.116252
0.117881
0.119108
0.119968
0.120479
0.120643
0.120455
0.119919
0.119073
0.117982
0.116702
0.11528
0.113743
0.1121
0.110343
0.108463
0.106463
0.104363
0.102203
0.100022
0.0978488
0.095703
0.0935899
0.0915099
0.0894635
0.0874517
0.0854735
0.0835218
0.0815792
0.0796211
0.0776219
0.0755758
0.0734943
0.0713672
0.0691783
0.066912
0.0645561
0.0621013
0.0595431
0.0568817
0.0541191
0.0512574
0.0482992
0.0452474
0.0421069
0.0388862
0.0355968
0.0322534
0.0288721
0.0254712
0.0220764
0.018709
0.0153842
0.0120498
0.00868708
0.00527245
0.00178517
0.0450934
0.0458798
0.0449588
0.0433447
0.04184
0.0407488
0.0402625
0.0402746
0.040687
0.0413143
0.0420537
0.0428135
0.0435831
0.0443459
0.0450773
0.0456198
0.0460215
0.0462368
0.0464249
0.0466337
0.0469982
0.0475938
0.0484706
0.0497034
0.0513092
0.0533614
0.05583
0.0587478
0.0620261
0.0656328
0.0694779
0.0735295
0.0777102
0.0819823
0.0862522
0.0904587
0.0945374
0.0984594
0.102192
0.105708
0.108948
0.111851
0.114357
0.116433
0.118075
0.11931
0.120169
0.120675
0.120834
0.120645
0.120112
0.119273
0.118184
0.116902
0.115472
0.113922
0.112263
0.11049
0.1086
0.106593
0.104489
0.102322
0.10013
0.0979449
0.0957864
0.0936619
0.0915725
0.0895188
0.0875009
0.0855165
0.0835577
0.0816076
0.0796424
0.0776372
0.0755835
0.0734951
0.0713623
0.0691691
0.0669003
0.0645432
0.0620883
0.0595309
0.0568703
0.0541078
0.051246
0.0482874
0.0452351
0.0420943
0.0388743
0.0355866
0.0322447
0.0288646
0.0254646
0.0220693
0.0187023
0.0153783
0.0120456
0.00868415
0.0052701
0.00178365
0.0451909
0.0459601
0.0450232
0.0434016
0.0419007
0.040822
0.0403532
0.0403846
0.040816
0.0414605
0.0422139
0.0429845
0.0437608
0.0445272
0.0452576
0.0457961
0.0461901
0.0463967
0.0465742
0.0467726
0.0471254
0.0477112
0.048579
0.0498056
0.051409
0.0534605
0.0559312
0.0588541
0.0621386
0.0657531
0.0696089
0.0736707
0.0778628
0.0821483
0.0864308
0.0906491
0.0947394
0.0986676
0.102402
0.105917
0.109156
0.112062
0.114581
0.116675
0.118334
0.119578
0.120437
0.120936
0.121088
0.120898
0.120371
0.119539
0.118454
0.117169
0.115727
0.11416
0.112479
0.110686
0.108781
0.106766
0.104655
0.102479
0.100274
0.0980725
0.0958971
0.0937576
0.0916564
0.0895935
0.0875677
0.0855749
0.0836066
0.0816465
0.079672
0.0776586
0.0755946
0.0734967
0.071356
0.0691568
0.0668841
0.0645252
0.06207
0.0595131
0.0568532
0.0540912
0.0512293
0.0482704
0.0452179
0.0420776
0.0388587
0.0355729
0.0322332
0.0288546
0.0254552
0.0220595
0.0186944
0.0153716
0.0120401
0.00868056
0.00526775
0.00178227
0.0453149
0.0460603
0.0451034
0.0434727
0.0419764
0.0409135
0.0404666
0.0405223
0.0409772
0.0416435
0.0424141
0.0431983
0.0439829
0.0447539
0.0454831
0.0460169
0.0464011
0.0465965
0.0467605
0.0469457
0.047284
0.047858
0.0487152
0.049934
0.0515344
0.0535847
0.0560578
0.0589867
0.0622791
0.0659032
0.0697721
0.0738468
0.078053
0.0823552
0.0866539
0.0908877
0.0949928
0.0989292
0.102665
0.10618
0.109417
0.112327
0.114861
0.116976
0.118655
0.119911
0.12077
0.121261
0.121405
0.121215
0.120695
0.119872
0.118792
0.117502
0.116046
0.114456
0.112749
0.110931
0.109008
0.106981
0.104861
0.102674
0.100453
0.0982311
0.0960349
0.0938774
0.0917621
0.0896882
0.0876524
0.0856493
0.0836693
0.0816971
0.0797109
0.0776865
0.0756096
0.0734992
0.0713481
0.0691409
0.0668629
0.0645012
0.0620452
0.0594887
0.0568295
0.0540682
0.0512067
0.0482478
0.0451956
0.0420564
0.0388396
0.0355559
0.0322181
0.0288413
0.0254435
0.0220483
0.0186843
0.0153634
0.0120342
0.00867675
0.00526547
0.00178119
0.0454639
0.0461804
0.0451994
0.0435578
0.0420671
0.0410233
0.0406027
0.0406877
0.0411709
0.0418633
0.0426547
0.0434552
0.0442496
0.0450261
0.0457539
0.0462822
0.0466545
0.0468363
0.0469834
0.0471528
0.0474742
0.0480343
0.0488794
0.0500889
0.0516854
0.053734
0.0562096
0.0591455
0.0624474
0.0660829
0.0699673
0.0740576
0.0782806
0.0826027
0.0869215
0.0911746
0.0952976
0.0992444
0.102982
0.106495
0.109731
0.112645
0.115197
0.117337
0.119039
0.120308
0.121167
0.121649
0.121785
0.121595
0.121084
0.120273
0.119197
0.117901
0.116427
0.114811
0.113072
0.111225
0.109279
0.107238
0.105107
0.102906
0.100665
0.0984203
0.0962
0.0940217
0.0918903
0.0898034
0.0877559
0.0857405
0.0837472
0.0817607
0.0797601
0.0777215
0.0756288
0.0735029
0.0713385
0.0691211
0.0668362
0.0644705
0.062013
0.0594566
0.0567985
0.0540382
0.0511773
0.0482191
0.0451679
0.0420306
0.0388162
0.0355352
0.0321998
0.0288252
0.0254294
0.0220346
0.018673
0.0153543
0.0120279
0.00867301
0.00526335
0.00178048
0.0456366
0.0463202
0.0453108
0.0436568
0.0421728
0.0411514
0.0407616
0.0408808
0.0413971
0.0421201
0.0429356
0.0437551
0.044561
0.0453437
0.0460702
0.0465922
0.0469505
0.0471159
0.0472429
0.0473936
0.0476958
0.0482402
0.049072
0.0502708
0.0518622
0.0539085
0.0563867
0.0593303
0.0626433
0.0662923
0.0701944
0.0743027
0.0785455
0.0828907
0.0872338
0.09151
0.095654
0.0996133
0.103354
0.106865
0.110099
0.113018
0.115589
0.117757
0.119485
0.120769
0.121628
0.1221
0.122228
0.122039
0.121539
0.12074
0.11967
0.118365
0.11687
0.115222
0.113447
0.111565
0.109594
0.107536
0.105393
0.103175
0.100911
0.0986397
0.0963926
0.0941912
0.0920416
0.0899401
0.0878791
0.0858499
0.0838414
0.0818384
0.0798204
0.0777639
0.0756523
0.0735077
0.0713271
0.0690969
0.0668031
0.0644323
0.0619727
0.0594164
0.0567595
0.0540003
0.0511405
0.0481837
0.0451348
0.0420001
0.0387886
0.0355107
0.0321785
0.0288067
0.0254131
0.0220198
0.0186607
0.0153444
0.0120211
0.00866887
0.00526112
0.00177996
0.0458367
0.0464798
0.0454377
0.0437694
0.0422932
0.0412976
0.0409432
0.0411019
0.0416561
0.0424139
0.043257
0.0440983
0.0449172
0.0457069
0.0464322
0.0469471
0.0472891
0.0474354
0.0475388
0.0476681
0.047949
0.0484761
0.0492931
0.0504797
0.0520646
0.0541079
0.0565889
0.0595411
0.0628667
0.0665312
0.0704531
0.0745821
0.0788478
0.0832193
0.0875906
0.0918941
0.096062
0.100036
0.10378
0.107289
0.110521
0.113446
0.116037
0.118236
0.119992
0.121293
0.122153
0.122615
0.122735
0.122547
0.122059
0.121274
0.120209
0.118893
0.117374
0.11569
0.113873
0.111952
0.109952
0.107875
0.105716
0.103479
0.101191
0.0988893
0.0966131
0.0943865
0.092217
0.0900991
0.0880232
0.0859787
0.0839533
0.0819313
0.0798926
0.0778142
0.0756802
0.0735135
0.0713135
0.0690678
0.0667632
0.0643862
0.0619241
0.0593677
0.0567118
0.0539542
0.0510963
0.048142
0.045096
0.0419648
0.0387571
0.035483
0.0321544
0.0287859
0.025395
0.022004
0.0186474
0.0153337
0.0120134
0.00866388
0.00525827
0.00177928
0.0460582
0.0466589
0.0455797
0.0438956
0.0424284
0.041462
0.0411476
0.0413509
0.0419479
0.0427451
0.0436193
0.0444848
0.0453184
0.0461156
0.04684
0.0473469
0.0476705
0.0477946
0.0478711
0.0479763
0.0482339
0.0487419
0.0495428
0.0507158
0.0522927
0.0543323
0.0568163
0.0597776
0.0631177
0.0667999
0.0707437
0.0748961
0.0791878
0.0835885
0.0879918
0.0923266
0.0965211
0.100512
0.104261
0.107767
0.110998
0.11393
0.116542
0.118774
0.12056
0.121879
0.122741
0.123193
0.123306
0.12312
0.122644
0.121874
0.120813
0.119484
0.117937
0.116213
0.114349
0.112386
0.110352
0.108253
0.106076
0.103818
0.101502
0.0991694
0.0968622
0.0946086
0.0924173
0.0902814
0.088189
0.0861278
0.0840836
0.0820401
0.0799769
0.0778724
0.0757124
0.07352
0.0712973
0.0690336
0.0667164
0.0643322
0.0618672
0.0593104
0.0566555
0.0539
0.0510449
0.048094
0.045052
0.0419252
0.0387219
0.0354522
0.0321277
0.0287626
0.0253752
0.0219874
0.0186335
0.0153221
0.0120045
0.00865742
0.0052541
0.00177793
0.0463084
0.0468574
0.0457366
0.0440351
0.0425781
0.0416445
0.0413748
0.0416281
0.0422728
0.0431137
0.0440224
0.0449149
0.0457646
0.0465702
0.0472935
0.0477917
0.0480946
0.0481937
0.0482399
0.0483182
0.0485508
0.0490379
0.049821
0.050979
0.0525462
0.0545812
0.0570685
0.0600399
0.063396
0.0670984
0.0710664
0.0752447
0.0795656
0.0839985
0.0884373
0.0928071
0.0970308
0.101041
0.104796
0.1083
0.11153
0.11447
0.117105
0.11937
0.121188
0.122528
0.123393
0.123836
0.123942
0.123758
0.123295
0.122539
0.12148
0.120135
0.118557
0.116789
0.114874
0.112864
0.110795
0.10867
0.106472
0.104192
0.101846
0.0994804
0.0971407
0.0948586
0.0926436
0.0904881
0.0883778
0.086298
0.084233
0.0821649
0.0800735
0.0779383
0.0757485
0.073527
0.0712783
0.0689941
0.0666628
0.0642705
0.061802
0.0592446
0.056591
0.0538381
0.0509869
0.0480405
0.0450035
0.0418817
0.0386834
0.0354185
0.0320985
0.0287378
0.0253546
0.0219708
0.0186193
0.0153094
0.0119936
0.00864865
0.00524781
0.00177537
0.0465845
0.0470752
0.0459081
0.0441876
0.0427421
0.0418451
0.041625
0.0419336
0.042631
0.0435202
0.0444669
0.0453889
0.0462562
0.0470705
0.0477929
0.0482813
0.0485613
0.0486327
0.0486455
0.0486941
0.0488997
0.0493641
0.0501278
0.0512691
0.0528248
0.0548543
0.0573454
0.0603276
0.0637017
0.0674271
0.0714216
0.0756285
0.0799818
0.0844493
0.0889267
0.0933352
0.0975905
0.101621
0.105385
0.108888
0.112119
0.115067
0.117725
0.120026
0.121878
0.12324
0.12411
0.124545
0.124643
0.124462
0.12401
0.123267
0.122208
0.120845
0.119232
0.117415
0.115446
0.113386
0.111278
0.109125
0.106904
0.104598
0.102223
0.099823
0.0974498
0.0951375
0.0928971
0.0907202
0.0885902
0.0864898
0.0844013
0.0823055
0.0801818
0.0780117
0.0757883
0.0735344
0.0712565
0.0689495
0.0666029
0.0642017
0.0617293
0.0591711
0.056519
0.0537695
0.050923
0.0479822
0.0449509
0.0418349
0.0386422
0.0353828
0.0320682
0.0287127
0.0253339
0.0219543
0.0186045
0.015295
0.0119801
0.00863666
0.00523871
0.00177126
0.0468827
0.0473121
0.0460941
0.0443528
0.0429204
0.0420637
0.0418982
0.0422675
0.0430228
0.0439648
0.044953
0.0459069
0.0467932
0.0476168
0.0483381
0.0488156
0.0490707
0.0491118
0.049088
0.0491043
0.049281
0.0497205
0.0504627
0.0515857
0.0531281
0.0551512
0.0576466
0.0606407
0.0640349
0.0677862
0.0718099
0.0760479
0.0804367
0.0849413
0.0894598
0.0939102
0.0981994
0.102253
0.106027
0.10953
0.112763
0.115722
0.118404
0.120741
0.12263
0.124016
0.124893
0.125321
0.125411
0.125231
0.124788
0.124056
0.122995
0.12161
0.119959
0.118091
0.116064
0.113951
0.111801
0.109617
0.107371
0.105039
0.102632
0.100198
0.0977902
0.0954465
0.0931788
0.0909783
0.0888264
0.0867029
0.0845879
0.0824608
0.080301
0.0780918
0.0758314
0.0735419
0.0712324
0.0689006
0.0665374
0.0641268
0.0616501
0.059091
0.0564406
0.0536953
0.0508546
0.0479202
0.0448954
0.0417857
0.0385994
0.0353464
0.0320379
0.028688
0.0253136
0.0219376
0.0185883
0.0152779
0.0119628
0.00862079
0.00522646
0.00176549
0.0472132
0.047568
0.0462941
0.0445305
0.0431126
0.0423002
0.0421944
0.04263
0.0434484
0.0444477
0.045481
0.0464694
0.047376
0.0482092
0.048929
0.0493945
0.0496225
0.0496309
0.049568
0.0495492
0.0496949
0.0501071
0.0508256
0.0519284
0.0534557
0.0554713
0.0579718
0.0609791
0.0643954
0.0681761
0.0722318
0.0765036
0.0809306
0.0854744
0.090036
0.0945312
0.0988567
0.102936
0.106722
0.110227
0.113464
0.116436
0.119143
0.121517
0.123444
0.124856
0.125742
0.126166
0.126247
0.126065
0.12563
0.124904
0.123838
0.122428
0.120735
0.118813
0.116727
0.114559
0.112364
0.110146
0.107872
0.105512
0.103075
0.100606
0.098163
0.0957864
0.0934893
0.0912627
0.0890862
0.0869367
0.0847916
0.0826294
0.0804296
0.0781778
0.0758774
0.0735497
0.0712065
0.0688486
0.0664678
0.0640473
0.0615661
0.0590059
0.0563577
0.0536172
0.050783
0.0478557
0.044838
0.0417353
0.038556
0.0353099
0.0320081
0.0286638
0.0252933
0.0219198
0.0185701
0.0152576
0.0119414
0.00860091
0.00521128
0.00175826
0.0475624
0.0478425
0.0465077
0.0447202
0.0433186
0.0425546
0.0425137
0.0430214
0.0439081
0.0449695
0.0460513
0.0470767
0.0480048
0.0488479
0.0495654
0.0500177
0.0502168
0.0501904
0.0500859
0.0500293
0.0501415
0.050524
0.051216
0.0522968
0.0538072
0.0558142
0.0583204
0.0613424
0.0647834
0.0685971
0.0726878
0.076996
0.081464
0.0860488
0.0906552
0.0951976
0.0995615
0.103667
0.10747
0.11098
0.114223
0.11721
0.119943
0.122355
0.124322
0.125763
0.126659
0.127078
0.12715
0.126964
0.126532
0.125809
0.124735
0.123297
0.12156
0.11958
0.117433
0.115208
0.112965
0.11071
0.108407
0.106019
0.103551
0.101048
0.0985688
0.0961578
0.0938292
0.0915735
0.0893688
0.0871897
0.0850107
0.0828092
0.0805656
0.0782685
0.0759259
0.0735582
0.07118
0.068795
0.0663961
0.0639653
0.0614794
0.058918
0.0562724
0.0535372
0.0507099
0.04779
0.0447795
0.0416841
0.0385123
0.0352737
0.0319787
0.0286397
0.0252724
0.0219001
0.0185493
0.0152341
0.0119159
0.00857754
0.00519383
0.00175008
0.0479436
0.0481351
0.0467346
0.0449217
0.0435382
0.0428269
0.0428563
0.0434418
0.0444023
0.0455304
0.0466645
0.0477291
0.0486799
0.049533
0.0502473
0.050685
0.0508534
0.0507903
0.0506422
0.050545
0.0506212
0.0509709
0.0516337
0.0526902
0.054182
0.0561794
0.0586921
0.0617304
0.0651988
0.0690493
0.0731783
0.0775254
0.0820367
0.0866644
0.091317
0.0959088
0.100313
0.104448
0.108271
0.111789
0.11504
0.118046
0.120807
0.123255
0.125264
0.126736
0.127644
0.12806
0.128121
0.127927
0.127494
0.126769
0.125682
0.124214
0.12243
0.120391
0.118182
0.115898
0.113605
0.111311
0.108976
0.106559
0.10406
0.101523
0.099008
0.0965609
0.0941982
0.0919099
0.0896731
0.0874601
0.085243
0.0829979
0.080707
0.0783626
0.0759767
0.0735678
0.0711542
0.0687421
0.0663247
0.0638832
0.0613924
0.0588297
0.0561867
0.0534571
0.0506365
0.0477237
0.0447204
0.0416323
0.0384681
0.035237
0.0319489
0.0286149
0.0252501
0.0218779
0.0185263
0.0152082
0.011887
0.00855166
0.00517509
0.00174164
0.0483521
0.0484464
0.0469743
0.0451346
0.0437711
0.0431168
0.0432222
0.0438915
0.0449313
0.046131
0.0473208
0.0484271
0.0494017
0.0502648
0.0509746
0.0513962
0.0515322
0.0514308
0.0512372
0.0510969
0.051134
0.0514479
0.0520782
0.0531083
0.0545796
0.0565664
0.0590864
0.062143
0.0656415
0.0695326
0.0737032
0.0780918
0.0826488
0.0873212
0.0920213
0.0966642
0.101112
0.105279
0.109124
0.112655
0.115918
0.118944
0.121734
0.12422
0.126272
0.127776
0.128698
0.129111
0.129159
0.128953
0.128512
0.127781
0.126677
0.125177
0.123344
0.121245
0.118974
0.11663
0.114284
0.111947
0.109578
0.107132
0.104603
0.102032
0.0994804
0.0969953
0.0945955
0.092271
0.0899975
0.0877456
0.0854857
0.0831929
0.0808516
0.078459
0.0760296
0.0735796
0.0711309
0.0686921
0.0662564
0.0638038
0.0613074
0.0587432
0.0561027
0.053378
0.0505634
0.0476569
0.04466
0.0415789
0.0384222
0.0351989
0.0319175
0.0285886
0.0252264
0.0218537
0.0185018
0.0151808
0.0118558
0.00852426
0.00515612
0.00173378
0.0487807
0.0487755
0.0472264
0.0453583
0.044017
0.0434244
0.0436116
0.0443708
0.0454955
0.0467715
0.0480209
0.0491711
0.0501704
0.0510435
0.0517473
0.0521509
0.052253
0.052112
0.0518713
0.0516852
0.0516801
0.0519548
0.0525493
0.0535504
0.0549996
0.0569748
0.0595028
0.0625796
0.0661113
0.0700466
0.0742623
0.0786951
0.0833
0.088019
0.0927681
0.0974637
0.101957
0.106158
0.11003
0.113579
0.116857
0.119908
0.122727
0.125251
0.127346
0.128884
0.12982
0.13023
0.130263
0.130039
0.129587
0.128844
0.127719
0.126184
0.124301
0.122142
0.119808
0.117404
0.115003
0.112619
0.110214
0.107737
0.105178
0.102574
0.0999852
0.0974603
0.0950201
0.0926551
0.09034
0.088044
0.0857363
0.0833917
0.0809976
0.0785567
0.0760847
0.0735946
0.0711121
0.0686476
0.0661936
0.0637293
0.0612263
0.0586601
0.0560211
0.0533002
0.0504902
0.0475885
0.0445972
0.0415227
0.0383736
0.0351582
0.031884
0.0285606
0.0252016
0.0218283
0.0184774
0.0151525
0.0118229
0.00849647
0.00513823
0.00172743
0.0492483
0.0491225
0.0474903
0.0455925
0.0442757
0.0437496
0.0440245
0.0448798
0.0460953
0.0474525
0.0487652
0.0499616
0.0509865
0.0518694
0.0525653
0.0529491
0.0530159
0.052834
0.0525447
0.0523103
0.0522597
0.0524915
0.0530468
0.0540162
0.0554416
0.0574044
0.0599409
0.0630401
0.0666078
0.0705909
0.074855
0.0793346
0.0839897
0.0887576
0.0935573
0.0983074
0.102849
0.107089
0.110992
0.114563
0.117861
0.120937
0.123789
0.126349
0.128485
0.130059
0.131009
0.131415
0.131432
0.131186
0.130715
0.129954
0.128805
0.127235
0.125302
0.123082
0.120686
0.118221
0.115761
0.113328
0.110884
0.108375
0.105784
0.103148
0.100521
0.0979543
0.0954701
0.0930602
0.0906984
0.0883527
0.0859921
0.0835921
0.0811436
0.0786553
0.0761425
0.0736141
0.0710996
0.0686104
0.0661383
0.0636612
0.0611504
0.0585809
0.0559418
0.0532227
0.0504154
0.0475171
0.0445305
0.0414624
0.0383213
0.0351144
0.0318482
0.0285314
0.025177
0.0218031
0.0184525
0.0151232
0.0117894
0.00846962
0.0051226
0.00172338
0.0497312
0.0494865
0.0477655
0.0458365
0.0445469
0.0440924
0.0444612
0.0454189
0.046731
0.0481744
0.0495541
0.0507992
0.0518504
0.0527428
0.0534287
0.0537905
0.0538206
0.0535968
0.0532575
0.0529724
0.0528726
0.0530579
0.0535704
0.0545055
0.0559053
0.0578549
0.0604004
0.0635238
0.0671305
0.0711645
0.0754801
0.0800097
0.0847174
0.0895367
0.0943893
0.0991955
0.103789
0.108071
0.11201
0.11561
0.118932
0.122036
0.124919
0.127514
0.129691
0.131298
0.132263
0.132665
0.132663
0.132391
0.131895
0.131112
0.129936
0.128329
0.126346
0.124068
0.12161
0.119081
0.11656
0.114072
0.111585
0.109042
0.106421
0.10375
0.101086
0.0984755
0.0959437
0.0934842
0.0910703
0.0886694
0.086251
0.0837925
0.081289
0.0787548
0.0762037
0.0736394
0.0710948
0.068582
0.0660914
0.0636001
0.0610795
0.0585048
0.0558634
0.0531437
0.0503371
0.047441
0.0444586
0.0413972
0.0382648
0.0350675
0.0318108
0.0285019
0.0251519
0.0217777
0.018427
0.0150933
0.0117565
0.00844476
0.00511005
0.0017221
0.0502507
0.0498666
0.0480513
0.04609
0.0448303
0.0444526
0.0449216
0.0459883
0.047403
0.0489377
0.0503882
0.0516842
0.0527625
0.0536642
0.0543377
0.0546752
0.0546672
0.0544003
0.0540097
0.0536714
0.0535189
0.0536536
0.0541201
0.0550179
0.0563906
0.0583264
0.060881
0.0640304
0.0676785
0.0717662
0.0761365
0.0807192
0.0854822
0.0903559
0.0952641
0.100129
0.104778
0.109106
0.113088
0.116722
0.120073
0.123206
0.126121
0.128748
0.130961
0.132601
0.13358
0.133976
0.133954
0.133652
0.133125
0.132316
0.131112
0.129467
0.127435
0.125101
0.12258
0.119987
0.1174
0.114852
0.112318
0.109739
0.107085
0.104381
0.101677
0.0990215
0.0964385
0.0939245
0.0914534
0.088992
0.0865113
0.0839921
0.081434
0.0788555
0.076269
0.0736714
0.0710985
0.0685625
0.0660526
0.0635452
0.0610123
0.0584298
0.0557835
0.0530609
0.0502533
0.0473588
0.044381
0.0413272
0.0382047
0.0350181
0.0317714
0.0284703
0.0251249
0.0217484
0.018401
0.0150633
0.0117249
0.00842225
0.00510133
0.00172355
0.0507997
0.0502643
0.0483471
0.0463523
0.0451255
0.0448302
0.0454062
0.0465884
0.0481118
0.0497428
0.051268
0.0526172
0.0537234
0.0546339
0.0552927
0.0556032
0.0555556
0.0552445
0.0548011
0.0544072
0.0541983
0.0542786
0.0546956
0.0555534
0.0568974
0.0588189
0.0613826
0.0645592
0.0682512
0.0723946
0.0768225
0.0814619
0.0862833
0.0912149
0.0961822
0.101108
0.105817
0.110198
0.114226
0.117901
0.121286
0.124451
0.127395
0.13005
0.132294
0.133964
0.134957
0.135347
0.135302
0.134968
0.134406
0.133567
0.132333
0.130651
0.128572
0.126183
0.1236
0.120938
0.118281
0.115668
0.113081
0.110464
0.107777
0.105037
0.102293
0.09959
0.0969523
0.0943789
0.0918455
0.0893188
0.0867721
0.0841909
0.0815792
0.0789584
0.0763391
0.0737104
0.0711106
0.0685511
0.0660204
0.0634945
0.0609465
0.0583534
0.0556994
0.052972
0.0501629
0.04727
0.0442973
0.0412519
0.0381402
0.0349653
0.0317292
0.0284367
0.0250974
0.0217198
0.0183768
0.0150328
0.0116944
0.00840309
0.00509668
0.00172694
0.0513661
0.0506783
0.0486523
0.0466228
0.0454323
0.0452253
0.0459149
0.0472196
0.0488577
0.0505902
0.0521938
0.0535986
0.0547336
0.0556524
0.0562939
0.0565747
0.0564858
0.0561291
0.0556314
0.0551794
0.0549106
0.0549325
0.0552969
0.0561118
0.0574255
0.0593325
0.0619051
0.0651098
0.0688474
0.0730484
0.0775366
0.0822366
0.08712
0.0921135
0.097144
0.102134
0.106907
0.111347
0.11543
0.119152
0.122575
0.125771
0.128743
0.131422
0.13369
0.135384
0.13639
0.136773
0.136707
0.136337
0.135737
0.134864
0.1336
0.131882
0.129758
0.127315
0.12467
0.121936
0.119203
0.116518
0.113874
0.111214
0.108492
0.105717
0.102931
0.100178
0.0974828
0.0948453
0.0922446
0.0896487
0.0870333
0.0843896
0.0817259
0.0790644
0.0764139
0.0737559
0.0711298
0.068546
0.0659923
0.0634452
0.0608791
0.0582723
0.0556086
0.0528753
0.0500642
0.0471734
0.0442068
0.0411712
0.0380717
0.0349096
0.0316848
0.0284015
0.0250704
0.0217071
0.0183537
0.0150001
0.0116662
0.00838782
0.00509522
0.00173083
0.0519802
0.0511083
0.048966
0.0469008
0.0457503
0.0456376
0.046448
0.0478821
0.0496412
0.0514804
0.0531663
0.054629
0.0557934
0.0567202
0.0573419
0.05759
0.0574578
0.057054
0.0565003
0.0559877
0.0556554
0.0556148
0.0559237
0.0566932
0.057975
0.0598673
0.0624483
0.0656815
0.0694662
0.073726
0.0782771
0.0830419
0.0879914
0.0930514
0.0981497
0.103208
0.108051
0.112557
0.116701
0.120476
0.123941
0.12717
0.130166
0.132861
0.135146
0.136859
0.137877
0.138255
0.138165
0.13776
0.137118
0.136208
0.134914
0.133163
0.130996
0.128501
0.125792
0.122981
0.120166
0.117403
0.114694
0.111988
0.109231
0.106418
0.103589
0.100785
0.0980279
0.095322
0.0926494
0.0899808
0.0872953
0.0845895
0.0818755
0.0791743
0.0764927
0.0738063
0.071154
0.0685442
0.0659651
0.0633938
0.0608069
0.0581838
0.0555088
0.0527689
0.0499563
0.0470688
0.0441102
0.0410862
0.0380006
0.0348521
0.0316394
0.0283658
0.0250438
0.0216951
0.0183286
0.0149666
0.0116414
0.00837581
0.00509482
0.00173336
0.0526064
0.051553
0.0492874
0.0471858
0.0460792
0.0460673
0.0470058
0.0485764
0.0504628
0.0524138
0.0541858
0.0557088
0.0569035
0.0578376
0.0584372
0.0586496
0.0584718
0.0580189
0.0574072
0.0568314
0.056432
0.0563253
0.0565757
0.0572974
0.0585459
0.0604233
0.0630121
0.0662737
0.0701064
0.074426
0.0790426
0.0838769
0.0888971
0.0940286
0.0992
0.104332
0.10925
0.11383
0.118042
0.121876
0.125388
0.128649
0.131664
0.134369
0.136661
0.138386
0.139414
0.139788
0.139677
0.139236
0.138551
0.137602
0.136278
0.134496
0.132287
0.129742
0.126966
0.124074
0.121171
0.118322
0.115541
0.112783
0.109988
0.107139
0.104266
0.101407
0.0985863
0.0958079
0.0930593
0.0903154
0.0875591
0.0847921
0.0820292
0.0792887
0.0765737
0.0738596
0.0711801
0.0685426
0.0659351
0.0633369
0.0607265
0.0580853
0.055398
0.0526519
0.049839
0.0469572
0.0440089
0.0409988
0.0379284
0.0347944
0.0315939
0.0283294
0.0250144
0.0216786
0.0183022
0.0149351
0.0116198
0.0083651
0.00509226
0.00173275
0.0532749
0.0520107
0.0496155
0.0474769
0.0464186
0.0465144
0.0475885
0.0493029
0.051323
0.0533908
0.0552527
0.0568384
0.0580642
0.0590052
0.0595803
0.0597541
0.0595279
0.0590236
0.0583516
0.0577099
0.0572399
0.0570631
0.0572525
0.0579241
0.0591379
0.0610006
0.0635963
0.0668859
0.0707673
0.0751471
0.079832
0.0847407
0.0898367
0.0950452
0.100295
0.105506
0.110506
0.115167
0.119455
0.123353
0.126916
0.130209
0.133236
0.135944
0.138235
0.139964
0.141001
0.141373
0.141242
0.140766
0.140036
0.139046
0.137692
0.135882
0.133634
0.131038
0.128195
0.125217
0.122217
0.119275
0.116414
0.113597
0.110761
0.107876
0.104959
0.102045
0.099157
0.0963024
0.0934741
0.0906528
0.0878258
0.0849986
0.0821878
0.0794074
0.0766564
0.0739131
0.0712051
0.0685375
0.065899
0.0632713
0.0606355
0.0579752
0.0552757
0.0525247
0.049714
0.0468405
0.043905
0.0409099
0.0378556
0.0347372
0.0315493
0.0282934
0.0249845
0.0216563
0.0182761
0.0149085
0.0116001
0.00835228
0.00508397
0.00172768
0.0539764
0.0524844
0.0499495
0.0477735
0.0467682
0.0469788
0.0481964
0.0500621
0.0522222
0.0544122
0.0563676
0.0580182
0.059276
0.0602232
0.060772
0.060904
0.0606265
0.0600678
0.0593328
0.0586224
0.0580784
0.0578278
0.0579534
0.0585728
0.0597508
0.0615988
0.0642007
0.0675176
0.0714478
0.0758885
0.0806444
0.0856329
0.0908103
0.0961018
0.101437
0.106732
0.11182
0.116571
0.120941
0.12491
0.128525
0.131849
0.134884
0.137585
0.139866
0.141592
0.142636
0.14301
0.142861
0.142351
0.141577
0.140545
0.13916
0.137322
0.135038
0.13239
0.129476
0.126407
0.123304
0.12026
0.117311
0.114429
0.111549
0.108627
0.105667
0.102697
0.0997396
0.0968059
0.0938945
0.0909942
0.0880965
0.0852099
0.0823513
0.0795297
0.0767395
0.0739642
0.0712257
0.0685257
0.0658536
0.0631945
0.0605325
0.057853
0.0551426
0.052389
0.0495829
0.0467199
0.0437992
0.0408218
0.0377858
0.0346839
0.0315085
0.0282605
0.0249554
0.0216277
0.0182501
0.0148858
0.011579
0.00833323
0.00506684
0.00171757
0.0546916
0.0529719
0.0502884
0.0480746
0.0471277
0.0474606
0.0488299
0.0508545
0.0531611
0.0554782
0.057531
0.0592486
0.0605394
0.0614922
0.0620128
0.0621
0.0617678
0.0611514
0.0603504
0.0595681
0.0589466
0.0586184
0.0586777
0.0592431
0.060384
0.0622174
0.0648249
0.0681682
0.0721473
0.0766495
0.0814794
0.0865532
0.0918182
0.097199
0.102625
0.108011
0.113194
0.118042
0.122503
0.126545
0.130214
0.133568
0.136606
0.139292
0.141554
0.14327
0.144321
0.144701
0.144538
0.143994
0.143176
0.142099
0.140683
0.138819
0.136498
0.133798
0.130811
0.127646
0.124432
0.121277
0.118231
0.115277
0.112351
0.109392
0.106388
0.103361
0.100333
0.0973183
0.0943217
0.0913407
0.0883722
0.0854263
0.0825189
0.079654
0.0768214
0.0740106
0.0712391
0.0685041
0.0657963
0.0631049
0.0604169
0.0577196
0.0550001
0.0522462
0.0494478
0.0465989
0.0436968
0.0407399
0.0377234
0.0346374
0.0314732
0.0282313
0.0249275
0.0215952
0.0182227
0.0148648
0.0115527
0.00830381
0.00503891
0.00170253
0.0554673
0.0534723
0.0506308
0.0483796
0.0474967
0.0479599
0.0494893
0.0516805
0.0541402
0.0565896
0.0587432
0.0605301
0.0618547
0.0628123
0.0633033
0.0633428
0.0629523
0.0622743
0.0614037
0.0605463
0.0598437
0.0594341
0.0594245
0.059934
0.0610366
0.0628558
0.0654681
0.0688371
0.0728654
0.0774298
0.0823372
0.0875023
0.0928613
0.0983381
0.103862
0.109345
0.11463
0.119582
0.124138
0.128258
0.131983
0.135364
0.1384
0.141065
0.143301
0.145002
0.146058
0.146447
0.146275
0.145699
0.144836
0.143714
0.142264
0.140373
0.138015
0.135259
0.132196
0.12893
0.125598
0.122324
0.119174
0.116141
0.113164
0.110169
0.107122
0.104038
0.100938
0.0978399
0.0947559
0.0916929
0.0886533
0.0856476
0.0826898
0.0797789
0.0769003
0.0740501
0.0712423
0.0684696
0.0657251
0.0630018
0.0602895
0.0575765
0.0548509
0.0521003
0.0493138
0.0464836
0.0436038
0.0406693
0.0376717
0.0345993
0.031443
0.0282041
0.0248989
0.0215589
0.0181906
0.0148375
0.0115153
0.00826067
0.00499964
0.00168318
0.0562557
0.0539839
0.0509757
0.0486875
0.0478749
0.0484768
0.0501751
0.0525409
0.0551603
0.0577469
0.0600047
0.0618631
0.0632222
0.064184
0.064644
0.064633
0.0641804
0.0634365
0.0624924
0.061556
0.0607687
0.060274
0.0601928
0.0606444
0.0617078
0.0635128
0.0661296
0.0695237
0.0736016
0.0782295
0.0832181
0.0884808
0.0939407
0.0995205
0.105149
0.110735
0.116127
0.121189
0.125847
0.130047
0.133828
0.137236
0.140265
0.142903
0.145108
0.146789
0.14785
0.148253
0.148076
0.14747
0.146562
0.145392
0.143903
0.141983
0.139587
0.136773
0.133629
0.130258
0.126802
0.123402
0.12014
0.117023
0.113991
0.110958
0.10787
0.104729
0.101555
0.0983716
0.0951981
0.0920514
0.0889398
0.0858732
0.0828626
0.079902
0.0769733
0.0740799
0.0712321
0.0684196
0.0656384
0.0628853
0.0601519
0.0574272
0.0546997
0.0519571
0.0491875
0.0463803
0.0435255
0.0406132
0.0376317
0.0345682
0.0314148
0.0281749
0.0248657
0.0215167
0.0181503
0.0147984
0.011468
0.00820348
0.0049499
0.00166039
0.0570908
0.0545032
0.0513217
0.0489975
0.0482619
0.0490115
0.0508876
0.0534363
0.056222
0.0589507
0.0613162
0.0632478
0.0646423
0.0656074
0.0660353
0.0659712
0.0654525
0.0646381
0.063616
0.0625965