/*--------------------------------*- C++ -*----------------------------------*\
| =========                 |                                                 |
| \\      /  F ield         | OpenFOAM: The Open Source CFD Toolbox           |
|  \\    /   O peration     | Version:  4.1                                   |
|   \\  /    A nd           | Web:      www.OpenFOAM.org                      |
|    \\/     M anipulation  |                                                 |
\*---------------------------------------------------------------------------*/
FoamFile
{
    version     2.0;
    format      ascii;
    class       surfaceScalarField;
    location    "1";
    object      phi;
}
// * * * * * * * * * * * * * * * * * * * * * * * * * * * * * * * * * * * * * //

dimensions      [0 3 -1 0 0 0 0];

internalField   nonuniform List<scalar> 
52920
(
16.7875
0.000638306
16.7682
0.0192334
16.7302
0.0380035
16.6739
0.0563702
16.5997
0.0742003
16.5088
0.0908588
16.4025
0.106343
16.2821
0.120419
16.1487
0.133304
16.0038
0.144917
15.8484
0.155483
15.6835
0.164885
15.5102
0.173293
15.3292
0.180963
15.1416
0.187632
14.948
0.193549
14.7495
0.198541
14.5467
0.20276
14.3404
0.206347
14.131
0.209373
13.9193
0.211724
13.7054
0.213843
13.49
0.215432
13.2734
0.21661
13.0558
0.217635
12.8376
0.218179
12.6191
0.218476
12.4004
0.2187
12.1818
0.218587
11.9636
0.218259
11.7457
0.217828
11.5288
0.216944
11.3129
0.215911
11.098
0.214829
10.8846
0.213422
10.6728
0.211838
10.4627
0.210043
10.255
0.207734
10.0498
0.205158
9.84736
0.202484
9.64766
0.199702
9.45055
0.19711
9.25582
0.194724
9.06348
0.192346
8.87362
0.189857
8.68654
0.187082
8.50264
0.183896
8.3222
0.18044
8.14518
0.177015
7.97139
0.173788
7.80069
0.170701
7.63302
0.167668
7.46847
0.164551
7.30732
0.161158
7.14989
0.157426
6.99646
0.153436
6.84713
0.149338
6.7018
0.145335
6.56026
0.141537
6.42238
0.13788
6.28813
0.134249
6.1576
0.130532
6.03095
0.126656
5.90827
0.122677
5.78956
0.118712
5.67472
0.114831
5.56367
0.111054
5.45633
0.107338
5.3527
0.103631
5.25278
0.099918
5.15658
0.0961986
5.06407
0.0925122
4.97514
0.088937
4.88957
0.0855693
4.80741
0.0821612
4.7289
0.0785088
4.6542
0.074702
4.58339
0.0708062
4.51653
0.0668594
4.45364
0.0628826
4.39476
0.0588798
4.33991
0.0548482
4.28913
0.0507784
4.24248
0.046651
4.20002
0.0424557
4.16184
0.0381872
4.128
0.0338307
4.09863
0.0293742
4.07382
0.0248143
4.05367
0.0201494
4.03827
0.0153919
4.02771
0.0105648
4.02206
0.00564387
4.02136
0.000703844
4.02561
-0.00425706
4.03431
-0.00870472
4.04792
-0.0136114
4.06662
-0.0187036
4.09057
-0.0239505
-0.0292736
16.7873
0.00113661
16.768
0.0384572
16.73
0.0760228
16.6736
0.112744
16.5994
0.148422
16.5086
0.18172
16.4022
0.212697
16.2818
0.240849
16.1485
0.266615
16.0035
0.289845
15.8481
0.310966
15.6831
0.329799
15.5098
0.346602
15.3288
0.361975
15.1412
0.375296
14.9476
0.387139
14.749
0.397101
14.5462
0.405517
14.3399
0.412668
14.1306
0.418727
13.9188
0.423453
13.705
0.4277
13.4895
0.430929
13.2728
0.433268
13.0551
0.435318
12.8369
0.436398
12.6185
0.436943
12.3997
0.437416
12.1811
0.437201
11.9629
0.436502
11.7451
0.435648
11.5281
0.433895
11.3122
0.431778
11.0974
0.429653
10.884
0.426876
10.6721
0.423673
10.462
0.420128
10.2542
0.415536
10.0491
0.410325
9.84655
0.404987
9.64682
0.399428
9.44975
0.394188
9.25503
0.389445
9.06264
0.384728
8.87277
0.379734
8.68569
0.374157
8.50185
0.36773
8.32152
0.360769
8.14459
0.353939
7.97082
0.347557
7.80008
0.341442
7.63235
0.335396
7.46774
0.329169
7.30654
0.322371
7.1491
0.314869
6.9957
0.306843
6.84644
0.29861
6.70117
0.290601
6.55966
0.283052
6.42175
0.275793
6.28746
0.268542
6.1569
0.261083
6.03027
0.253291
5.90764
0.245307
5.78896
0.237388
5.67413
0.229661
5.56305
0.222129
5.45568
0.214713
5.352
0.207309
5.25205
0.199871
5.15582
0.192432
5.06328
0.185059
4.97431
0.1779
4.88873
0.171152
4.80655
0.164341
4.72803
0.157028
4.65332
0.149406
4.58253
0.141601
4.51569
0.133692
4.45284
0.125729
4.394
0.117719
4.33919
0.109653
4.28845
0.101515
4.24184
0.093264
4.19942
0.0848715
4.16128
0.0763328
4.12748
0.0676278
4.09813
0.05872
4.07335
0.0495954
4.05323
0.0402667
4.03786
0.0307645
4.02729
0.0211252
4.02162
0.0113111
4.02086
0.00146053
4.02504
-0.00843716
4.03368
-0.0173484
4.04723
-0.0271693
4.06585
-0.0373308
4.08971
-0.047809
-0.0584511
16.7868
0.001608
16.7676
0.0576817
16.7295
0.11405
16.6731
0.169134
16.5989
0.222666
16.508
0.272605
16.4016
0.319066
16.2812
0.361303
16.1479
0.399934
16.0029
0.434796
15.8474
0.466459
15.6825
0.494765
15.5091
0.519971
15.328
0.543072
15.1402
0.563049
14.9466
0.580783
14.748
0.595672
14.5453
0.608245
14.339
0.618928
14.1297
0.628051
13.9179
0.635229
13.704
0.641633
13.4884
0.646555
13.2716
0.650045
13.0539
0.653063
12.8356
0.654684
12.6171
0.65544
12.3984
0.656135
12.1797
0.655842
11.9615
0.654726
11.7437
0.653413
11.5268
0.650838
11.3109
0.647629
11.0961
0.644447
10.8826
0.640369
10.6708
0.635542
10.4606
0.630249
10.2527
0.62345
10.0475
0.615578
9.8449
0.607547
9.64509
0.599237
9.44798
0.591301
9.25326
0.584162
9.06088
0.577108
8.87107
0.569546
8.68412
0.561096
8.50043
0.551422
8.32019
0.541002
8.14329
0.530831
7.96951
0.521336
7.79873
0.512221
7.63097
0.503161
7.46634
0.493803
7.30513
0.483586
7.14773
0.472279
6.99439
0.460186
6.84517
0.447836
6.69993
0.43585
6.55841
0.424572
6.42049
0.413716
6.28622
0.402812
6.15573
0.391573
6.02915
0.379864
5.90656
0.367898
5.78789
0.356059
5.67302
0.344524
5.5619
0.333253
5.45447
0.322138
5.35074
0.311041
5.25073
0.299889
5.15442
0.288739
5.06179
0.27769
4.97275
0.266939
4.88712
0.256783
4.80489
0.246574
4.72633
0.235583
4.65162
0.224113
4.58085
0.212373
4.51406
0.200473
4.45129
0.188499
4.39253
0.176473
4.33782
0.164365
4.28719
0.152143
4.24069
0.139764
4.19837
0.127187
4.16032
0.114388
4.1266
0.101338
4.09733
0.0879918
4.07261
0.0743217
4.05252
0.0603495
4.03714
0.0461392
4.02652
0.0317443
4.02075
0.0170781
4.01989
0.00232062
4.02394
-0.0124907
4.03242
-0.025834
4.04582
-0.0405755
4.06428
-0.0557873
4.08793
-0.0714658
-0.0874628
16.7861
0.00216367
16.7668
0.0769101
16.7288
0.152088
16.6724
0.225549
16.5981
0.296943
16.5072
0.363525
16.4008
0.425464
16.2803
0.481792
16.147
0.53327
16.002
0.57978
15.8465
0.621977
15.6814
0.659797
15.508
0.69344
15.3268
0.72428
15.1389
0.750933
14.9452
0.774497
14.7466
0.794244
14.5439
0.810933
14.3377
0.825121
14.1284
0.837349
13.9165
0.847092
13.7025
0.85569
13.4867
0.862349
13.2698
0.866989
13.0519
0.870887
12.8336
0.87305
12.615
0.874001
12.3963
0.87486
12.1776
0.874502
11.9594
0.872943
11.7417
0.871117
11.5248
0.867767
11.3089
0.863481
11.0941
0.859208
10.8806
0.853898
10.6687
0.847475
10.4585
0.840415
10.2505
0.831492
10.0451
0.820967
9.84243
0.810186
9.64253
0.79914
9.44535
0.788477
9.25063
0.778879
9.0583
0.769446
8.8686
0.759241
8.68183
0.747858
8.4983
0.734954
8.31815
0.72115
8.14126
0.707712
7.96747
0.695134
7.79665
0.683033
7.62886
0.67096
7.46423
0.658439
7.30305
0.644772
7.1457
0.629631
6.99244
0.61345
6.84327
0.597011
6.69804
0.581088
6.55653
0.566084
6.41863
0.551617
6.28441
0.53703
6.154
0.521979
6.0275
0.506368
5.90493
0.490464
5.78624
0.474745
5.67133
0.459433
5.56014
0.444443
5.45265
0.429631
5.34884
0.414857
5.24872
0.400011
5.1523
0.385159
5.05955
0.370441
4.97041
0.356085
4.88471
0.342482
4.80241
0.328871
4.72381
0.314181
4.6491
0.298819
4.57837
0.283101
4.51165
0.267188
4.44897
0.251176
4.39034
0.235106
4.33576
0.218945
4.28526
0.202636
4.2389
0.186125
4.19671
0.169371
4.15877
0.152334
4.12515
0.134954
4.09596
0.11718
4.07128
0.0989974
4.0512
0.0804326
4.03578
0.0615593
4.02507
0.0424529
4.01914
0.0230046
4.0181
0.00335759
4.02196
-0.0163516
4.03027
-0.0341526
4.04346
-0.0537658
4.06168
-0.0740124
4.08511
-0.0948984
-0.116299
16.7851
0.00291128
16.7659
0.096146
16.7278
0.190137
16.6714
0.281996
16.5971
0.37126
16.5061
0.454493
16.3997
0.531904
16.2791
0.602332
16.1458
0.666635
16.0007
0.724815
15.8452
0.777539
15.68
0.824914
15.5065
0.867034
15.3251
0.905618
15.1371
0.93897
14.9433
0.968292
14.7447
0.992815
14.5421
1.01359
14.3359
1.03127
14.1266
1.04664
13.9146
1.05908
13.7004
1.06991
13.4844
1.07833
13.2673
1.08413
13.0494
1.0888
12.8309
1.0915
12.6123
1.09265
12.3935
1.0936
12.1749
1.09317
11.9567
1.09117
11.739
1.08878
11.5221
1.08468
11.3062
1.07936
11.0915
1.07394
10.8779
1.06745
10.6659
1.05949
10.4557
1.05064
10.2475
1.03966
10.0419
1.02651
9.8392
1.01292
9.6392
0.999139
9.44195
0.985732
9.24723
0.973596
9.05497
0.961714
8.86541
0.948795
8.67882
0.934441
8.49543
0.918346
8.31534
0.901236
8.13845
0.884599
7.96462
0.868957
7.79379
0.85387
7.62597
0.838781
7.46136
0.823053
7.30025
0.805887
7.143
0.786889
6.98984
0.766614
6.84073
0.746119
6.69552
0.726302
6.55404
0.707568
6.41619
0.689465
6.28205
0.671174
6.15173
0.652297
6.0253
0.632806
5.90274
0.613022
5.78402
0.593465
5.66905
0.574404
5.55777
0.555715
5.45018
0.53722
5.34626
0.518784
5.246
0.500266
5.14944
0.481722
5.05656
0.463331
4.96728
0.44536
4.8815
0.428262
4.79914
0.411228
4.72051
0.392814
4.6458
0.373523
4.57512
0.353781
4.50848
0.333818
4.44591
0.313749
4.3874
0.293612
4.33297
0.273378
4.28262
0.252983
4.23639
0.232353
4.19433
0.211432
4.15649
0.190172
4.12295
0.168494
4.0938
0.146323
4.06914
0.123656
4.04902
0.100553
4.03348
0.077095
4.02259
0.0533413
4.01646
0.0291391
4.01522
0.00459406
4.01884
-0.0199821
4.02693
-0.0422432
4.03992
-0.0667617
4.05794
-0.09203
4.08117
-0.118129
-0.144981
16.7839
0.00380876
16.7647
0.115375
16.7266
0.228195
16.6702
0.338481
16.5958
0.445624
16.5048
0.545522
16.3983
0.6384
16.2777
0.72294
16.1442
0.800047
15.9991
0.869922
15.8435
0.933166
15.6783
0.990133
15.5046
1.04077
15.3231
1.08709
15.1349
1.12717
14.941
1.16217
14.7424
1.19139
14.5398
1.21623
14.3336
1.2374
14.1243
1.25596
13.9122
1.27122
13.6978
1.28431
13.4816
1.2945
13.2643
1.30146
13.0463
1.30682
12.8277
1.31004
12.609
1.3114
12.3902
1.31237
12.1715
1.31185
11.9533
1.30944
11.7356
1.30643
11.5187
1.3016
11.3027
1.29528
11.088
1.28868
10.8745
1.28102
10.6624
1.27159
10.4521
1.26092
10.2438
1.24791
10.0381
1.2322
9.83528
1.21575
9.63519
1.19923
9.43785
1.18307
9.24313
1.16832
9.05094
1.1539
8.86152
1.13821
8.67508
1.12088
8.49177
1.10165
8.3117
1.0813
8.13478
1.06152
7.96092
1.04282
7.79007
1.02472
7.62226
1.00659
7.45771
0.987606
7.29673
0.966874
7.13962
0.944
6.98659
0.919649
6.83758
0.895136
6.69242
0.871469
6.55098
0.849004
6.41322
0.827233
6.27916
0.805229
6.14892
0.782537
6.02253
0.759199
5.89996
0.735594
5.78118
0.712243
5.66613
0.689453
5.55475
0.667091
5.44704
0.644931
5.34299
0.622842
5.24258
0.600671
5.14586
0.578446
5.05282
0.556372
4.96342
0.534763
4.87755
0.514124
4.79514
0.493645
4.71648
0.471468
4.64178
0.448217
4.57114
0.424416
4.50459
0.400367
4.44212
0.37622
4.38372
0.352006
4.32941
0.327689
4.27919
0.303204
4.23307
0.278475
4.19108
0.253416
4.1533
0.227951
4.1198
0.201995
4.09065
0.175467
4.06593
0.148375
4.04569
0.120798
4.02996
0.0928174
4.01884
0.0644649
4.01243
0.0355442
4.01094
0.0060836
4.01434
-0.0233891
4.02225
-0.0501528
4.03507
-0.0795888
4.05294
-0.1099
4.07605
-0.141234
-0.173555
16.7825
0.00462233
16.7633
0.134614
16.7252
0.266262
16.6687
0.395009
16.5943
0.520044
16.5032
0.636624
16.3966
0.744971
16.2759
0.843638
16.1424
0.933532
15.9972
1.01513
15.8415
1.08888
15.6761
1.15546
15.5023
1.21466
15.3207
1.2687
15.1323
1.31551
14.9383
1.35615
14.7397
1.39
14.5371
1.4189
14.3309
1.44358
14.1215
1.46534
13.9092
1.48355
13.6946
1.49891
13.4782
1.51084
13.2607
1.51899
13.0426
1.52495
12.824
1.52865
12.6051
1.53027
12.3863
1.53119
12.1676
1.53057
11.9492
1.52778
11.7315
1.52413
11.5146
1.51855
11.2986
1.51128
11.0838
1.50343
10.8702
1.49458
10.6581
1.48375
10.4477
1.47125
10.2394
1.45622
10.0336
1.438
9.83071
1.41867
9.63054
1.3994
9.43311
1.38049
9.23838
1.36305
9.04625
1.34603
8.85693
1.32753
8.67058
1.30723
8.48729
1.28493
8.30719
1.2614
8.13021
1.2385
7.9563
1.21673
7.78545
1.19557
7.61769
1.17435
7.45326
1.15204
7.29248
1.12766
7.13558
1.1009
6.98272
1.07252
6.83382
1.04404
6.68874
1.01656
6.54738
0.990367
6.40971
0.964905
6.27574
0.939193
6.14556
0.91272
6.01918
0.885576
5.89657
0.858204
5.77771
0.83111
5.66255
0.804608
5.55105
0.778589
5.4432
0.752786
5.339
0.727047
5.23844
0.701226
5.14156
0.67533
5.04837
0.649562
4.95886
0.624278
4.87293
0.60005
4.79046
0.576106
4.71179
0.550135
4.63712
0.522891
4.56652
0.495014
4.50002
0.466863
4.43762
0.438619
4.3793
0.410324
4.32506
0.381928
4.27489
0.353365
4.22881
0.324556
4.18684
0.295384
4.14905
0.265738
4.11551
0.235533
4.08628
0.204696
4.06142
0.173239
4.04096
0.141252
4.02497
0.10881
4.01354
0.0758944
4.00683
0.042252
4.00511
0.00779818
4.00831
-0.0265971
4.01609
-0.0579361
4.02884
-0.092339
4.04667
-0.127726
4.06974
-0.164308
-0.202069
16.7808
0.00546583
16.7616
0.153851
16.7235
0.304337
16.667
0.451583
16.5925
0.59453
16.5013
0.727815
16.3946
0.851636
16.2738
0.964453
16.1402
1.06712
15.9949
1.16046
15.8391
1.24471
15.6736
1.32092
15.4996
1.38869
15.3179
1.45041
15.1294
1.50397
14.9353
1.55023
14.7366
1.58867
14.5339
1.62165
14.3276
1.64988
14.1181
1.67486
13.9056
1.69607
13.6908
1.71371
13.4743
1.72733
13.2566
1.73668
13.0383
1.74319
12.8197
1.74733
12.6007
1.74923
12.3818
1.75008
12.163
1.74933
11.9446
1.74625
11.7267
1.74195
11.5097
1.73558
11.2936
1.72738
11.0788
1.71823
10.8653
1.70813
10.6531
1.69595
10.4427
1.6816
10.2344
1.66451
10.0286
1.64386
9.82555
1.62167
9.62531
1.59964
9.42779
1.57801
9.23302
1.55783
9.04092
1.53813
8.85164
1.5168
8.6653
1.49357
8.48196
1.46827
8.30176
1.4416
8.12469
1.41556
7.95071
1.3907
7.77988
1.36641
7.61224
1.34199
7.448
1.31628
7.28749
1.28818
7.13088
1.25751
6.97822
1.22518
6.82946
1.19279
6.68449
1.16153
6.54322
1.13164
6.40565
1.10248
6.27177
1.07307
6.14161
1.04287
6.01522
1.01197
5.89254
0.980882
5.77356
0.950092
5.65827
0.919901
5.54663
0.890228
5.43862
0.860792
5.33426
0.831406
5.23357
0.801921
5.13656
0.772345
5.04324
0.742872
4.95364
0.713881
4.86768
0.686015
4.7852
0.658585
4.70653
0.628802
4.63187
0.597547
4.56129
0.565594
4.4948
0.533346
4.43241
0.501005
4.3741
0.468633
4.31985
0.43618
4.26965
0.403563
4.22351
0.370691
4.18147
0.337427
4.14358
0.303627
4.10991
0.269201
4.0805
0.2341
4.0554
0.198341
4.03465
0.162002
4.01832
0.125135
4.00656
0.0876573
3.99956
0.0492519
3.99764
0.00971398
4.00074
-0.0296978
4.0085
-0.0657008
4.02128
-0.105128
4.03917
-0.145616
4.0623
-0.187434
-0.230555
16.779
0.00643882
16.7597
0.173083
16.7217
0.342417
16.665
0.508208
16.5905
0.66909
16.4992
0.819109
16.3924
0.958419
16.2714
1.08541
16.1377
1.20086
15.9922
1.30595
15.8362
1.40068
15.6706
1.4865
15.4965
1.56284
15.3147
1.63221
15.1261
1.69253
14.932
1.74441
14.7332
1.78745
14.5303
1.82456
14.3238
1.85638
14.1141
1.88455
13.9013
1.9088
13.6864
1.92869
13.4698
1.94393
13.2519
1.95451
13.0336
1.96154
12.8148
1.96607
12.5958
1.9683
12.3768
1.96908
12.1579
1.96819
11.9393
1.96487
11.7213
1.95994
11.5042
1.95273
11.2879
1.9436
11.0731
1.9331
10.8595
1.92166
10.6473
1.90814
10.437
1.89193
10.2288
1.87274
10.0229
1.84972
9.81984
1.82472
9.61953
1.79995
9.42191
1.77562
9.22707
1.75267
9.03495
1.73025
8.84563
1.70611
8.65921
1.67998
8.47574
1.65174
8.29537
1.62196
8.11818
1.59275
7.94415
1.56473
7.77337
1.53719
7.6059
1.50946
7.44194
1.48024
7.28177
1.44836
7.1255
1.41379
6.97308
1.3776
6.8245
1.34138
6.67966
1.30637
6.5385
1.2728
6.40101
1.23997
6.26719
1.20689
6.13704
1.17303
6.01058
1.13843
5.8878
1.10366
5.76868
1.06922
5.65322
1.03536
5.54143
1.00202
5.43327
0.968947
5.32877
0.935905
5.22797
0.902732
5.13086
0.869449
5.03748
0.836252
4.94783
0.803528
4.86186
0.771984
4.7794
0.741043
4.70075
0.707453
4.6261
0.672197
4.5555
0.636187
4.48897
0.599872
4.42651
0.563461
4.36811
0.527035
4.31373
0.490556
4.26338
0.453914
4.21707
0.416995
4.17485
0.379652
4.13676
0.341717
4.10286
0.303095
4.07319
0.263768
4.04777
0.223756
4.02667
0.183105
4.00998
0.141817
3.9979
0.0997383
3.99067
0.0564768
3.98866
0.0117265
3.99176
-0.0328069
3.99963
-0.073567
4.01256
-0.118064
4.0306
-0.163649
4.05382
-0.210652
-0.259017
16.7768
0.00765316
16.7576
0.192294
16.7196
0.380499
16.6629
0.564886
16.5882
0.743734
16.4968
0.910523
16.3899
1.06534
16.2688
1.20655
16.1348
1.33477
15.9891
1.45164
15.833
1.55683
15.6673
1.65223
15.493
1.7371
15.3112
1.81405
15.1226
1.88116
14.9283
1.93869
14.7293
1.98638
14.5262
2.0277
14.3194
2.06317
14.1095
2.09448
13.8965
2.12175
13.6814
2.14385
13.4647
2.16062
13.2468
2.17243
13.0283
2.17998
12.8095
2.18486
12.5904
2.18746
12.3713
2.18819
12.1523
2.18717
11.9334
2.1837
11.7152
2.17817
11.4979
2.17006
11.2815
2.15996
11.0665
2.14807
10.853
2.13517
10.6409
2.12028
10.4306
2.10219
10.2225
2.08086
10.0167
2.05553
9.81359
2.02783
9.6132
2.00034
9.41547
1.97335
9.22051
1.94763
9.02831
1.92246
8.83887
1.89554
8.65229
1.86656
8.46861
1.83542
8.28803
1.80254
8.1107
1.77009
7.93663
1.7388
7.76592
1.7079
7.5987
1.67668
7.43509
1.64385
7.27531
1.60815
7.11943
1.56968
6.9673
1.52973
6.8189
1.48979
6.67421
1.45107
6.53316
1.41385
6.39574
1.37739
6.26195
1.34068
6.13177
1.30321
6.00521
1.26499
5.88229
1.22658
5.76301
1.1885
5.64737
1.15099
5.53541
1.11398
5.42712
1.07724
5.32252
1.04051
5.22163
1.00362
5.12449
0.966586
5.03111
0.929635
4.94148
0.89316
4.85555
0.857916
4.77314
0.823444
4.69452
0.786077
4.61985
0.746865
4.54919
0.706843
4.48254
0.666516
4.41991
0.626091
4.36129
0.585651
4.30666
0.545181
4.25603
0.504547
4.20943
0.463593
4.16691
0.422168
4.12852
0.380103
4.09432
0.337302
4.06431
0.293768
4.03854
0.249527
4.01707
0.204571
4.00008
0.158812
3.98778
0.112029
3.98046
0.063798
3.97846
0.0137262
3.98169
-0.0360389
3.98975
-0.0816313
4.0029
-0.131214
4.0211
-0.181848
4.0444
-0.233946
-0.287423
16.7745
0.00913611
16.7553
0.211459
16.7172
0.418574
16.6605
0.621622
16.5858
0.818471
16.4942
1.00207
16.3871
1.17243
16.2658
1.32789
16.1316
1.46892
15.9857
1.59757
15.8294
1.71317
15.6635
1.81809
15.4892
1.91144
15.3073
1.99592
15.1186
2.0698
14.9243
2.13307
14.7251
2.18552
14.5217
2.23113
14.3145
2.27031
14.1043
2.30471
13.8911
2.33493
13.6758
2.35917
13.459
2.37739
13.2411
2.39042
13.0225
2.39851
12.8037
2.40369
12.5845
2.40669
12.3652
2.40744
12.1461
2.40632
11.927
2.40277
11.7085
2.39668
11.491
2.3876
11.2744
2.37649
11.0593
2.36315
10.8459
2.34866
10.6338
2.33232
10.4237
2.31235
10.2157
2.28882
10.01
2.26125
9.8068
2.23098
9.60632
2.20083
9.40844
2.17122
9.21331
2.14276
9.02095
2.11482
8.83133
2.08517
8.64451
2.05339
8.46057
2.01935
8.27975
1.98336
8.10226
1.94757
7.92818
1.91289
7.7576
1.87848
7.59067
1.84361
7.42748
1.80705
7.26813
1.76749
7.11265
1.72517
6.96083
1.68155
6.81262
1.638
6.66806
1.59563
6.52712
1.5548
6.38975
1.51476
6.25595
1.47448
6.12571
1.43345
5.99902
1.39168
5.87594
1.34966
5.75648
1.30796
5.64066
1.26681
5.52854
1.2261
5.42015
1.18564
5.31548
1.14518
5.21457
1.10452
5.11747
1.06369
5.02415
1.02295
4.9346
0.982709
4.84875
0.94377
4.76643
0.905757
4.68785
0.864659
4.61314
0.821575
4.54235
0.777627
4.4755
0.733368
4.41258
0.689005
4.35362
0.64461
4.29861
0.600186
4.24758
0.555581
4.20057
0.510595
4.15767
0.465068
4.11892
0.418855
4.08435
0.37187
4.05399
0.324123
4.02789
0.275627
4.00615
0.226307
3.98897
0.175993
3.97659
0.124404
3.96929
0.071094
3.96741
0.0156096
3.97085
-0.0394813
3.97916
-0.0899459
3.99253
-0.144583
4.01085
-0.200172
4.03415
-0.25724
-0.315702
16.7719
0.0105218
16.7528
0.230622
16.7147
0.456642
16.6579
0.678419
16.5831
0.89331
16.4914
1.09378
16.3841
1.27972
16.2625
1.44948
16.1281
1.60334
15.9819
1.74377
15.8253
1.86975
15.6593
1.98411
15.4849
2.08584
15.303
2.17776
15.1144
2.25844
14.9199
2.32755
14.7205
2.3849
14.5167
2.43493
14.3092
2.47788
14.0986
2.5153
13.8852
2.54834
13.6697
2.57465
13.4529
2.59421
13.2348
2.60845
13.0162
2.6171
12.7974
2.62255
12.5781
2.62599
12.3587
2.62684
12.1393
2.62566
11.92
2.6221
11.7012
2.6155
11.4834
2.60539
11.2667
2.59318
11.0515
2.57835
10.838
2.56212
10.6261
2.54423
10.4161
2.52239
10.2083
2.49662
10.0026
2.46689
9.79942
2.43419
9.59881
2.40144
9.40076
2.36928
9.20541
2.3381
9.01284
2.30739
8.82297
2.27504
8.63585
2.2405
8.45164
2.20356
8.27057
2.16443
8.09294
2.1252
7.91888
2.08695
7.74847
2.04889
7.58187
2.01022
7.41912
1.9698
7.26024
1.92639
7.10515
1.88026
6.95363
1.83308
6.80559
1.78604
6.66115
1.74007
6.52029
1.69566
6.38293
1.65212
6.24909
1.60832
6.11876
1.56379
5.99193
1.51851
5.86867
1.47292
5.74903
1.4276
5.63306
1.38279
5.5208
1.33836
5.41233
1.29411
5.30765
1.24986
5.2068
1.20538
5.10979
1.1607
5.01662
1.11612
4.92722
1.07212
4.84147
1.02951
4.75926
0.987969
4.68071
0.943203
4.60592
0.896362
4.53494
0.848606
4.46779
0.800514
4.40449
0.752304
4.34508
0.704022
4.28959
0.655675
4.23807
0.607103
4.19059
0.558068
4.14726
0.508402
4.10811
0.457996
4.07319
0.406788
4.04253
0.35478
4.0162
0.301961
3.99431
0.248194
3.97707
0.193233
3.96473
0.136743
3.95756
0.0782577
3.95587
0.0172999
3.95956
-0.0431761
3.96812
-0.0985035
3.98164
-0.158108
3.99998
-0.21851
4.02315
-0.280403
-0.343753
16.7692
0.011932
16.75
0.24975
16.712
0.494701
16.6551
0.735281
16.5802
0.968261
16.4883
1.18566
16.3808
1.38721
16.2589
1.57134
16.1242
1.73807
15.9777
1.89028
15.8208
2.0266
15.6547
2.1503
15.4802
2.26028
15.2984
2.35958
15.1098
2.44705
14.9152
2.52212
14.7155
2.58458
14.5113
2.63914
14.3033
2.68593
14.0923
2.72629
13.8786
2.76199
13.663
2.79027
13.4461
2.8111
13.2281
2.82651
13.0094
2.83576
12.7905
2.84146
12.5711
2.84535
12.3516
2.84639
12.1321
2.84521
11.9125
2.84169
11.6933
2.83462
11.4753
2.82345
11.2584
2.81004
11.0431
2.79366
10.8296
2.77558
10.6179
2.75602
10.408
2.73229
10.2003
2.70429
9.99472
2.67244
9.79141
2.6375
9.59062
2.60222
9.39235
2.56755
9.19673
2.53372
9.0039
2.50022
8.81374
2.46519
8.62632
2.42793
8.44183
2.38804
8.26054
2.34572
8.08281
2.30293
7.90881
2.26094
7.73862
2.21908
7.57237
2.17647
7.41007
2.1321
7.25163
2.08484
7.09688
2.03501
6.94562
1.98435
6.79773
1.93393
6.65335
1.88445
6.51254
1.83648
6.37518
1.78947
6.24126
1.74224
6.11082
1.69423
5.98386
1.64547
5.86043
1.59636
5.74063
1.54741
5.62452
1.4989
5.51217
1.45071
5.40367
1.40261
5.29905
1.35448
5.19831
1.30611
5.10148
1.25753
5.0085
1.20909
4.91928
1.16133
4.83368
1.11512
4.75156
1.07008
4.67303
1.02173
4.59813
0.971263
4.52689
0.919841
4.45937
0.868033
4.39561
0.816065
4.33567
0.763961
4.27964
0.711711
4.22759
0.659147
4.17964
0.606019
4.13589
0.552153
4.09639
0.497487
4.06119
0.441986
4.03033
0.385642
4.00388
0.328408
3.98197
0.270101
3.96479
0.210409
3.95259
0.148944
3.94563
0.0852155
3.94417
0.018762
3.94809
-0.0471067
3.95682
-0.107229
3.97037
-0.171658
3.98856
-0.236699
4.01143
-0.303267
-0.371459
16.7662
0.0134456
16.7471
0.268844
16.709
0.532748
16.6521
0.792214
16.577
1.04333
16.4849
1.27773
16.3772
1.49495
16.2551
1.69349
16.12
1.87315
15.9731
2.03713
15.816
2.18373
15.6496
2.31668
15.4751
2.43477
15.2934
2.54135
15.1048
2.63561
14.9101
2.71677
14.7102
2.78455
14.5055
2.84379
14.297
2.89448
14.0855
2.93773
13.8716
2.97591
13.6558
3.00605
13.4389
3.02808
13.2208
3.0446
13.002
3.05449
12.7831
3.06042
12.5637
3.06476
12.344
3.06608
12.1242
3.06497
11.9044
3.06151
11.685
3.05403
11.4667
3.04175
11.2497
3.02705
11.0342
3.00908
10.8208
2.98905
10.6091
2.96769
10.3993
2.94209
10.1917
2.91189
9.98615
2.87799
9.7827
2.84095
9.58167
2.80324
9.38313
2.76609
9.1872
2.72964
8.99408
2.69335
8.80363
2.65563
8.61591
2.61565
8.43119
2.57275
8.24975
2.52715
8.07196
2.48072
7.89808
2.43481
7.72814
2.38902
7.56223
2.34239
7.40035
2.29398
7.2423
2.2429
7.08783
2.18948
6.93674
2.13544
6.78894
2.08173
6.64458
2.02881
6.50375
1.9773
6.36637
1.92686
6.23237
1.87624
6.10182
1.82478
5.97474
1.77255
5.85117
1.71993
5.73123
1.66735
5.61503
1.61509
5.50265
1.56308
5.39418
1.51109
5.28967
1.45899
5.18912
1.40665
5.09251
1.35415
4.99976
1.30183
4.91075
1.25035
4.82528
1.20059
4.74325
1.1521
4.66471
1.10027
4.58965
1.04632
4.51811
0.991378
4.45017
0.935972
4.38591
0.880325
4.32542
0.824448
4.26884
0.768294
4.2163
0.711687
4.16792
0.654393
4.12382
0.596253
4.08406
0.53724
4.04869
0.477357
4.01774
0.416583
3.99131
0.354842
3.9695
0.291912
3.95248
0.227426
3.94048
0.160941
3.93376
0.0919391
3.9325
0.0200119
3.93658
-0.0511889
3.94533
-0.115974
3.95872
-0.185043
3.97656
-0.254539
3.99895
-0.325656
-0.398699
16.7629
0.0151878
16.7439
0.287864
16.7059
0.570781
16.6489
0.849224
16.5737
1.11854
16.4814
1.37001
16.3734
1.60295
16.2509
1.81596
16.1155
2.0086
15.9682
2.18435
15.8108
2.3412
15.6442
2.48328
15.4696
2.60931
15.2879
2.72309
15.0994
2.82414
14.9046
2.91149
14.7044
2.98484
14.4993
3.04888
14.2902
3.10354
14.0783
3.14962
13.8641
3.19011
13.6481
3.22202
13.431
3.24518
13.2129
3.26274
12.9941
3.27329
12.7751
3.27946
12.5556
3.28423
12.3358
3.28591
12.1158
3.28492
11.8958
3.28154
11.6762
3.27365
11.4576
3.26027
11.2405
3.24419
11.025
3.22459
10.8115
3.20256
10.5999
3.17928
10.3901
3.15183
10.1825
3.1195
9.97689
3.08361
9.77321
3.04463
9.57187
3.00458
9.37301
2.96496
9.17675
2.9259
8.98331
2.88678
8.79261
2.84633
8.60465
2.80361
8.41977
2.75762
8.23827
2.70865
8.06049
2.6585
7.88677
2.60853
7.71712
2.55867
7.55153
2.50798
7.38999
2.45553
7.23223
2.40065
7.07793
2.34379
6.92691
2.28646
6.77913
2.22951
6.63472
2.17323
6.49383
2.1182
6.35639
2.0643
6.22231
2.01032
6.09166
1.95544
5.96449
1.89972
5.84084
1.84358
5.72082
1.78737
5.60459
1.73132
5.49225
1.67543
5.38387
1.61947
5.27952
1.56333
5.17921
1.50696
5.08286
1.4505
4.99035
1.39434
4.90152
1.33918
4.81616
1.28594
4.7342
1.23406
4.6556
1.17887
4.58035
1.12157
4.50848
1.06324
4.44011
1.00434
4.37536
0.945076
4.31436
0.885445
4.2573
0.825356
4.20435
0.764633
4.15566
0.703086
4.11132
0.640584
4.07143
0.577134
4.03601
0.512772
4.00511
0.447477
3.9788
0.381152
3.95717
0.313542
3.94037
0.244229
3.92859
0.172716
3.92207
0.098455
3.92096
0.0211263
3.92503
-0.0552643
3.93358
-0.124525
3.94658
-0.198037
3.96386
-0.271822
3.98562
-0.34741
-0.425373
16.7594
0.0172983
16.7405
0.306736
16.7025
0.608791
16.6454
0.906319
16.5701
1.19389
16.4776
1.46252
16.3693
1.71123
16.2465
1.93876
16.1106
2.14445
15.963
2.33196
15.8052
2.49903
15.6383
2.65014
15.4637
2.78395
15.282
2.90482
15.0935
3.01263
14.8987
3.10628
14.6981
3.18542
14.4926
3.25441
14.283
3.3131
14.0707
3.36199
13.8562
3.40461
13.64
3.43819
13.4227
3.46245
13.2045
3.48098
12.9856
3.4922
12.7664
3.49861
12.5469
3.50378
12.3269
3.50586
12.1068
3.50504
11.8867
3.5017
11.6669
3.49341
11.4482
3.47894
11.231
3.46142
11.0154
3.44017
10.8018
3.41613
10.5902
3.39088
10.3805
3.36161
10.1727
3.32724
9.9669
3.28942
9.7629
3.24862
9.56116
3.20632
9.36192
3.1642
9.16531
3.12252
8.97158
3.08051
8.78068
3.03723
8.59256
2.99173
8.40762
2.94256
8.22617
2.89011
8.0485
2.83617
7.87498
2.78205
7.70561
2.72804
7.54029
2.6733
7.37898
2.61684
7.2214
2.55824
7.06714
2.49805
6.91607
2.43753
6.7682
2.37738
6.62367
2.31776
6.48266
2.25921
6.34515
2.20181
6.21101
2.14446
6.08029
2.08616
5.95309
2.02692
5.82942
1.96725
5.7094
1.90739
5.59321
1.84751
5.48098
1.78766
5.37276
1.72769
5.26862
1.66747
5.16857
1.60702
5.07248
1.54659
4.98018
1.48663
4.89149
1.42786
4.80621
1.37122
4.72426
1.31601
4.64556
1.25757
4.57009
1.19703
4.49791
1.13542
4.42913
1.07311
4.36396
1.01025
4.30255
0.946851
4.24514
0.882768
4.19193
0.817843
4.14306
0.751949
4.09864
0.684999
4.05874
0.617029
4.02341
0.548104
3.99266
0.478219
3.96655
0.407263
3.94514
0.334953
3.92855
0.260817
3.91696
0.184305
3.91056
0.104855
3.90943
0.0222519
3.91327
-0.0590993
3.92136
-0.132611
3.93372
-0.210403
3.95027
-0.288369
3.97129
-0.368422
-0.451419
16.7558
0.0192222
16.737
0.325601
16.699
0.646788
16.6418
0.96351
16.5663
1.26941
16.4735
1.55528
16.3649
1.8198
16.2418
2.0619
16.1055
2.28071
15.9575
2.47996
15.7993
2.65723
15.6322
2.81729
15.4574
2.95874
15.2756
3.08659
15.0871
3.20112
14.8923
3.30112
14.6914
3.38625
14.4855
3.46032
14.2755
3.5231
14.0627
3.57482
13.8478
3.61945
13.6314
3.6546
13.4139
3.67995
13.1955
3.69936
12.9765
3.71125
12.7572
3.71791
12.5375
3.72343
12.3175
3.7259
12.0973
3.72527
11.877
3.72191
11.6572
3.71321
11.4385
3.69767
11.2212
3.67869
11.0056
3.65582
10.7919
3.62981
10.5802
3.60255
10.3703
3.57152
10.1623
3.53525
9.95613
3.49558
9.75171
3.45304
9.54949
3.40854
9.34982
3.36386
9.15286
3.31948
8.95887
3.27451
8.76784
3.22826
8.57969
3.17987
8.39481
3.12745
8.21351
3.0714
8.03604
3.01364
7.86275
2.95535
7.69365
2.89713
7.52855
2.83841
7.36733
2.77806
7.20977
2.7158
7.05541
2.65241
6.90414
2.5888
6.75608
2.52544
6.61136
2.46247
6.47018
2.40039
6.33258
2.33941
6.19842
2.27862
6.06769
2.21689
5.94051
2.15411
5.81691
2.09084
5.69699
2.02732
5.58091
1.96359
5.46885
1.89972
5.36085
1.83569
5.25695
1.77137
5.15715
1.70682
5.0613
1.64244
4.96917
1.57876
4.88055
1.51648
4.79529
1.45648
4.7133
1.39799
4.63446
1.33641
4.55876
1.27273
4.48629
1.2079
4.41719
1.14221
4.3517
1.07575
4.29004
1.00851
4.23245
0.940352
4.17916
0.871136
4.1303
0.800808
4.08595
0.72934
4.04619
0.656789
4.01104
0.58325
3.98051
0.508744
3.95462
0.433155
3.93341
0.356165
3.91698
0.277247
3.90547
0.195809
3.89902
0.111304
3.89766
0.0236087
3.90096
-0.0623977
3.90829
-0.139936
3.91982
-0.221934
3.93553
-0.304077
3.95577
-0.388666
-0.476827
16.752
0.0211084
16.7332
0.344392
16.6952
0.684771
16.6379
1.02081
16.5622
1.3451
16.4692
1.64829
16.3603
1.92868
16.2368
2.18539
16.1001
2.41738
15.9517
2.62837
15.7931
2.81585
15.6256
2.98478
15.4506
3.13372
15.2687
3.26848
15.0802
3.38967
14.8853
3.49602
14.6842
3.58731
14.478
3.66656
14.2676
3.7335
14.0543
3.78811
13.8391
3.83464
13.6224
3.87129
13.4046
3.89773
13.1861
3.91795
12.9668
3.9305
12.7473
3.93741
12.5275
3.94321
12.3074
3.94604
12.0871
3.94556
11.8669
3.9421
11.6472
3.93293
11.4285
3.9164
11.2112
3.89597
10.9955
3.87151
10.7817
3.84364
10.5698
3.8144
10.3596
3.78169
10.1512
3.74367
9.94457
3.70222
9.73962
3.65799
9.53683
3.61133
9.3367
3.56399
9.1394
3.51678
8.9452
3.46871
8.75414
3.41931
8.56609
3.36792
8.38138
3.31215
8.20035
3.25242
8.02316
3.19083
7.85011
3.1284
7.68125
3.066
7.51626
3.00339
7.355
2.93932
7.19729
2.87352
7.04269
2.80702
6.8911
2.74039
6.74272
2.67382
6.59775
2.60744
6.45637
2.54177
6.31867
2.47712
6.18451
2.41277
6.05384
2.34756
5.92675
2.2812
5.80332
2.21428
5.68358
2.14706
5.5677
2.07946
5.45587
2.01155
5.34814
1.94342
5.2445
1.87501
5.14492
1.80639
5.04925
1.73812
4.95721
1.67079
4.86859
1.60509
4.78327
1.5418
4.7012
1.48006
4.62219
1.41542
4.54627
1.34865
4.47355
1.28061
4.40424
1.21152