/*--------------------------------*- C++ -*----------------------------------*\
| =========                 |                                                 |
| \\      /  F ield         | OpenFOAM: The Open Source CFD Toolbox           |
|  \\    /   O peration     | Version:  4.1                                   |
|   \\  /    A nd           | Web:      www.OpenFOAM.org                      |
|    \\/     M anipulation  |                                                 |
\*---------------------------------------------------------------------------*/
FoamFile
{
    version     2.0;
    format      ascii;
    class       volScalarField;
    location    "23";
    object      p;
}
// * * * * * * * * * * * * * * * * * * * * * * * * * * * * * * * * * * * * * //

dimensions      [0 2 -2 0 0 0 0];

internalField   nonuniform List<scalar> 
26785
(
26.0975
25.8882
25.887
25.7866
25.7322
25.8922
26.078
26.2294
26.3623
26.4672
26.5801
26.6555
26.736
26.7661
26.8465
26.8527
26.8662
26.7901
26.7799
26.6979
26.6699
26.578
26.5675
26.5248
26.5786
26.6173
26.7558
26.8944
27.1391
27.4006
27.773
28.1941
28.741
29.3719
30.1287
30.9949
31.9951
33.1048
34.3073
35.5759
36.8793
38.1875
39.4475
40.6275
41.6805
42.6021
43.3427
43.8255
44.3448
44.6481
44.9607
45.0534
45.14
44.9982
44.8208
44.4284
43.9689
43.2833
42.4949
41.515
40.4353
39.2047
37.8865
36.4715
34.998
33.4782
31.9266
30.3679
28.8023
27.2611
25.7323
24.2472
22.7891
21.3896
20.0274
18.7294
17.4738
16.285
15.1407
14.0603
13.0233
12.0466
11.1111
10.23
9.38632
8.59151
7.8301
7.11092
6.42049
5.76608
5.13559
4.53451
3.95216
3.39279
2.84679
2.31697
1.79522
1.28228
0.766208
0.254991
26.0769
25.8894
25.8898
25.7845
25.7301
25.8909
26.0773
26.2291
26.3625
26.4674
26.5807
26.656
26.7371
26.7669
26.8478
26.8534
26.867
26.7903
26.7803
26.6976
26.6699
26.5774
26.5673
26.5241
26.5782
26.6162
26.7549
26.8928
27.1373
27.3977
27.7694
28.1893
28.7356
29.3657
30.1222
30.9883
31.9887
33.0988
34.3022
35.5723
36.8777
38.1886
39.4516
40.6345
41.6897
42.6134
43.355
43.8348
44.3566
44.6569
44.972
45.063
45.1527
45.0101
44.8353
44.4424
43.9842
43.2974
42.5084
41.5264
40.4446
39.2113
37.8904
36.4727
34.9967
33.4746
31.9209
30.3604
28.7931
27.2507
25.7208
24.235
22.7763
21.3766
20.0143
18.7164
17.461
16.2725
15.1286
14.0486
13.0121
12.0359
11.101
10.2203
9.37733
8.58299
7.82223
7.10353
6.41375
5.75982
5.12999
4.52941
3.94773
3.38889
2.84361
2.3142
1.7938
1.28007
0.78547
0.23521
26.0391
25.8929
25.8948
25.7803
25.7263
25.8891
26.0764
26.229
26.363
26.4681
26.5817
26.6572
26.7391
26.769
26.8504
26.8552
26.8688
26.7913
26.7812
26.6975
26.6699
26.5765
26.5666
26.5226
26.5769
26.6136
26.7519
26.8885
27.1323
27.3906
27.7606
28.1782
28.7231
29.3516
30.1076
30.9737
31.9748
33.0865
34.2927
35.5663
36.8761
38.1928
39.462
40.6512
41.7118
42.6399
43.3835
43.8596
44.3844
44.6804
44.9987
45.0879
45.1824
45.0397
44.869
44.476
44.0192
43.3303
42.5394
41.5533
40.4672
39.2289
37.9031
36.4808
35.0005
33.4747
31.9176
30.3543
28.7846
27.2404
25.709
24.2221
22.7629
21.3628
20.0006
18.7027
17.4478
16.2597
15.1164
14.0368
13.001
12.0253
11.091
10.2108
9.3684
8.57442
7.81426
7.0959
6.40668
5.75308
5.1238
4.52356
3.94244
3.38397
2.83927
2.31023
1.79044
1.27722
0.78411
0.242921
25.9889
25.9013
25.9013
25.7733
25.7206
25.887
26.076
26.2295
26.3643
26.4695
26.5835
26.6592
26.7421
26.7725
26.8543
26.8582
26.8717
26.7932
26.7829
26.6978
26.6701
26.5757
26.5657
26.5209
26.5751
26.6102
26.7478
26.883
27.1256
27.3812
27.7488
28.1637
28.7065
29.3332
30.0886
30.9549
31.9567
33.0703
34.28
35.5579
36.8733
38.1967
39.4729
40.6694
41.7368
42.67
43.4154
43.8896
44.4147
44.7071
45.0255
45.1143
45.2103
45.0697
44.9006
44.5093
44.0517
43.3623
42.5682
41.5793
40.4884
39.2464
37.9161
36.4902
35.0062
33.4771
31.9171
30.351
28.7791
27.2322
25.6993
24.2105
22.7505
21.349
19.9865
18.6877
17.433
16.2443
15.1014
14.0215
12.9862
12.0103
11.0767
10.1965
9.35491
8.56116
7.80177
7.08376
6.39538
5.74224
5.11383
4.51417
3.93398
3.37621
2.83246
2.30435
1.78479
1.27406
0.766343
0.262287
25.9309
25.9168
25.9094
25.7644
25.7137
25.8848
26.0759
26.2307
26.3661
26.4712
26.5853
26.6612
26.7454
26.7764
26.8585
26.8613
26.8742
26.7948
26.7841
26.6978
26.6697
26.5744
26.5641
26.519
26.5728
26.6068
26.7436
26.878
27.1194
27.3731
27.7384
28.1516
28.6927
29.3185
30.074
30.9408
31.9431
33.0579
34.27
35.5509
36.8708
38.1992
39.4805
40.6822
41.7552
42.6919
43.439
43.914
44.4371
44.7282
45.0441
45.1338
45.2283
45.0901
44.9199
44.5309
44.0706
43.3819
42.584
41.5937
40.4982
39.2535
37.9191
36.4903
35.003
33.4711
31.9088
30.3404
28.7672
27.2187
25.6852
24.1954
22.7354
21.3334
19.9712
18.6721
17.4178
16.2289
15.0863
14.0063
12.9713
11.9954
11.0621
10.182
9.34077
8.54721
7.78831
7.07065
6.38286
5.73022
5.10253
4.50353
3.92422
3.36729
2.82455
2.29753
1.77858
1.26937
0.755613
0.27171
25.8707
25.9387
25.9181
25.7545
25.7064
25.8832
26.0768
26.2329
26.3685
26.4734
26.5873
26.6633
26.7485
26.7802
26.8621
26.864
26.8761
26.7962
26.7847
26.698
26.6694
26.574
26.5631
26.5185
26.5718
26.6058
26.7417
26.8764
27.1166
27.3694
27.7326
28.145
28.6843
29.3098
30.0657
30.9332
31.9354
33.0504
34.2635
35.5455
36.8689
38.2014
39.4868
40.6921
41.7688
42.7073
43.4544
43.9341
44.4518
44.7451
45.0556
45.1489
45.2392
45.1054
44.9321
44.5465
44.0829
43.3955
42.594
41.6026
40.5033
39.2564
37.9189
36.4874
34.997
33.4619
31.8963
30.3244
28.7481
27.1964
25.6605
24.1684
22.7069
21.3033
19.9403
18.6404
17.3859
16.1966
15.0541
13.9741
12.9397
11.9641
11.0315
10.152
9.31179
8.51913
7.7614
7.04486
6.35842
5.70708
5.08089
4.48339
3.90577
3.35055
2.80966
2.28458
1.76737
1.26038
0.747334
0.271397
25.8136
25.9609
25.9228
25.7422
25.6978
25.8811
26.0778
26.2353
26.371
26.4753
26.5888
26.6646
26.7504
26.7825
26.8638
26.8649
26.876
26.7961
26.7836
26.697
26.6679
26.5731
26.5614
26.5175
26.5699
26.6043
26.7394
26.8744
27.1132
27.3657
27.7271
28.1395
28.6774
29.3026
30.059
30.9275
31.9297
33.0447
34.2582
35.5406
36.8665
38.2027
39.4927
40.7019
41.7816
42.721
43.4678
43.9523
44.4651
44.7609
45.067
45.1639
45.2514
45.1218
44.9469
44.5637
44.0971
43.4086
42.6024
41.6072
40.5022
39.2506
37.9073
36.4705
34.9746
33.4342
31.8639
30.2876
28.7078
27.1532
25.6154
24.1218
22.6598
21.256
19.8934
18.5939
17.3402
16.1518
15.0106
13.9317
12.8986
11.9243
10.9933
10.1153
9.27671
8.48565
7.72966
7.01482
6.33021
5.68068
5.05643
4.46088
3.88533
3.33226
2.79365
2.27094
1.75617
1.25196
0.741807
0.269175
25.7726
25.9848
25.9254
25.73
25.6895
25.8794
26.0796
26.2383
26.3737
26.4773
26.5899
26.6654
26.7512
26.7837
26.8639
26.8645
26.8746
26.7952
26.7815
26.6956
26.666
26.5721
26.5598
26.5166
26.5679
26.6029
26.7373
26.8729
27.1103
27.3623
27.7218
28.1334
28.6693
29.2932
30.0487
30.9171
31.919
33.0339
34.2479
35.5312
36.8599
38.2005
39.4969
40.7114
41.7949
42.7355
43.4823
43.9716
44.4799
44.7782
45.0808
45.1811
45.2666
45.1402
44.9635
44.5805
44.109
43.4162
42.6027
41.6007
40.4878
39.2291
37.8787
36.4356
34.9337
33.3882
31.8133
30.2334
28.6507
27.094
25.5549
24.0606
22.5986
21.195
19.8332
18.5346
17.2821
16.0949
14.9551
13.8777
12.8464
11.8738
10.9446
10.0685
9.2319
8.44286
7.68901
6.97633
6.29399
5.64676
5.02492
4.43184
3.8589
3.30852
2.77278
2.25309
1.74161
1.24082
0.735481
0.264094
25.751
26.0065
25.9256
25.7181
25.6807
25.8767
26.0807
26.2404
26.3755
26.4782
26.59
26.6651
26.7507
26.7834
26.8625
26.8627
26.872
26.793
26.7784
26.6928
26.6627
26.5696
26.5567
26.5137
26.5637
26.5988
26.7324
26.8677
27.1033
27.354
27.7108
28.1203
28.6534
29.2752
30.0286
30.8961
31.8979
33.0128
34.2277
35.5133
36.8455
38.1918
39.4968
40.7188
41.8074
42.7505
43.4983
43.9914
44.4963
44.796
45.0965
45.1992
45.2834
45.1587
44.98
44.595
44.117
43.417
42.594
41.583
40.461
39.1944
37.8365
36.387
34.8791
33.3285
31.7492
30.1657
28.5803
27.0216
25.4813
23.9863
22.5243
21.1212
19.7602
18.4627
17.2118
16.0262
14.8882
13.8128
12.7836
11.8133
10.8865
10.0128
9.17883
8.39241
7.64126
6.93131
6.25179
5.60741
4.98852
4.39845
3.82865
3.28151
2.7492
2.2331
1.72561
1.22884
0.729731
0.258442
25.7464
26.0203
25.9232
25.7077
25.673
25.8745
26.0822
26.2428
26.3775
26.4795
26.5904
26.6651
26.7506
26.7833
26.8613
26.8609
26.8692
26.7907
26.7752
26.6897
26.659
26.5663
26.553
26.5099
26.5583
26.593
26.7253
26.8598
27.0931
27.3414
27.694
28.0994
28.6282
29.2463
29.9963
30.8611
31.8617
32.9761
34.1916
35.4803
36.817
38.1716
39.4888
40.7218
41.8188
42.7675
43.5184
44.0152
44.518
44.8181
45.1176
45.2223
45.3061
45.1825
45.0014
44.6117
44.1247
43.4139
42.5793
41.5577
40.4257
39.1504
37.7843
36.3275
34.8127
33.2561
31.6714
30.0836
28.4946
26.9334
25.3914
23.8957
22.4337
21.0311
19.6712
18.3752
17.1262
15.9428
14.8073
13.7346
12.7082
11.7408
10.8171
9.94668
9.11593
8.33278
7.58499
6.8784
6.20232
5.56142
4.94608
4.35962
3.79355
3.25024
2.72196
2.21008
1.70731
1.21521
0.723266
0.252196
25.7568
26.0202
25.9162
25.6984
25.6666
25.8729
26.0842
26.2453
26.3794
26.4805
26.5907
26.665
26.7502
26.7829
26.8595
26.8581
26.8654
26.7869
26.7706
26.6849
26.6532
26.5605
26.5463
26.5026
26.549
26.5822
26.7125
26.8453
27.0754
27.3201
27.6675
28.0676
28.5913
29.2047
29.9506
30.8116
31.81
32.923
34.139
35.4311
36.7737
38.1388
39.471
40.7186
41.8278
42.7861
43.5428
44.0433
44.5456
44.8459
45.146
45.2529
45.3375
45.2141
45.0296
44.6323
44.1334
43.4095
42.562
41.529
40.3861
39.1012
37.7254
36.2597
34.7362
33.1721
31.5806
29.9874
28.3942
26.8301
25.2863
23.7899
22.3281
20.9266
19.5684
18.2746
17.0282
15.8477
14.7155
13.6461
12.6233
11.6595
10.7396
9.87289
9.04599
8.26669
7.52277
6.82007
6.14791
5.51095
4.89963
4.31723
3.75533
3.2163
2.69251
2.18531
1.68774
1.20082
0.716474
0.246182
25.7981
26.0223
25.9126
25.6934
25.6631
25.8733
26.0874
26.2484
26.3818
26.4819
26.5915
26.6654
26.7505
26.783
26.8583
26.8558
26.862
26.7835
26.7663
26.6802
26.6474
26.5542
26.5388
26.494
26.538
26.5694
26.6972
26.8276
27.0541
27.2941
27.6351
28.0288
28.5462
29.153
29.8931
30.7487
31.7429
32.853
34.0684
35.3639
36.7135
38.0908
39.441
40.7079
41.8349
42.808
43.5746
44.0806
44.585
44.8867
45.1892
45.299
45.3852
45.261
45.0709
44.6624
44.1487
43.4092
42.547
41.5008
40.3448
39.0472
37.6585
36.1808
34.646
33.0721
31.4723
29.8728
28.275
26.708
25.1628
23.6663
22.2054
20.8057
19.4499
18.1592
16.9162
15.7395
14.6113
13.546
12.5275
11.5681
10.6526
9.79031
8.96786
8.193
7.45353
6.75526
6.08757
5.45507
4.84827
4.27045
3.71323
3.179
2.66021
2.15822
1.66639
1.18518
0.7088
0.240219
25.8474
26.0176
25.9059
25.688
25.6599
25.8738
26.0907
26.2512
26.3837
26.4831
26.5921
26.6658
26.7509
26.7831
26.8567
26.8529
26.8578
26.779
26.7607
26.6737
26.6394
26.545
26.528
26.4814
26.5224
26.5513
26.676
26.8034
27.0253
27.2596
27.5937
27.9805
28.4911
29.0905
29.8244
30.6743
31.6637
32.77
33.9844
35.2828
36.6394
38.0297
39.4002
40.6901
41.8397
42.8325
43.6133
44.1269
44.6363
44.9408
45.2479
45.3614
45.4498
45.3234
45.1251
44.702
44.1707
43.4139
42.5349
41.4731
40.3005
38.9868
37.5818
36.0894
34.5413
32.9566
31.3482
29.7425
28.1405
26.5713
25.0254
23.5296
22.0705
20.6733
19.3208
18.0338
16.7949
15.6225
14.4988
13.4383
12.4246
11.47
10.5594
9.70198
8.88441
8.11439
7.37976
6.6863
6.02343
5.39576
4.79383
4.22092
3.66872
3.13962
2.62618
2.12975
1.64401
1.16887
0.700591
0.234488
25.8934
26.0104
25.8999
25.6846
25.6587
25.876
26.0951
26.2547
26.3861
26.4848
26.5935
26.6671
26.7522
26.7839
26.8559
26.8506
26.8543
26.7751
26.7557
26.6676
26.6316
26.5356
26.5166
26.4676
26.5055
26.5317
26.6531
26.7772
26.9939
27.2218
27.5487
27.9276
28.4299
29.0206
29.7472
30.5902
31.5734
32.6746
33.8869
35.1876
36.551
37.9548
39.3482
40.6651
41.8429
42.8613
43.662
44.1874
44.7055
45.0154
45.3287
45.4466
45.5367
45.4056
45.1954
44.7543
44.2024
43.4257
42.5266
41.445
40.2511
38.9169
37.4919
35.9824
34.4195
32.8234
31.2062
29.5946
27.989
26.4182
24.8723
23.3779
21.9211
20.5272
19.1785
17.8959
16.6617
15.4943
14.3758
13.3205
12.3122
11.3631
10.4579
9.60591
8.79375
8.02908
7.2998
6.61164
5.95407
5.33169
4.7351
4.16756
3.62083
3.09732
2.58969
2.09928
1.62006
1.15145
0.691515
0.22879
25.9324
26.0025
25.893
25.6805
25.6572
25.878
26.0991
26.2576
26.3878
26.4858
26.5944
26.6679
26.753
26.7842
26.8544
26.8474
26.8499
26.77
26.7491
26.6594
26.6212
26.5231
26.5014
26.4494
26.4837
26.5068
26.6243
26.7445
26.9552
27.1764
27.4962
27.8666
28.3601
28.9425
29.6621
30.4982
31.4751
32.571
33.7808
35.0835
36.453
37.8703
39.2874
40.6342
41.8443
42.8935
43.7189
44.2596
44.7898
45.1069
45.428
45.5504
45.641
45.5026
45.2773
44.8154
44.2406
43.4414
42.5185
41.4126
40.1933
38.8352
37.3884
35.8608
34.283
32.6759
31.0506
29.4339
27.8254
26.2537
24.7084
23.216
21.7623
20.3721
19.0278
17.75
16.5211
15.3591
14.2462
13.1967
12.1942
11.2509
10.3515
9.50525
8.69885
7.93988
7.21626
6.53372
5.88175
5.26495
4.67396
4.11207
3.57108
3.05343
2.55188
2.06776
1.5953
1.13347
0.681967
0.223236
25.9642
25.9966
25.8863
25.6768
25.6569
25.8812
26.104
26.2609
26.3897
26.4874
26.5961
26.6696
26.7547
26.7853
26.8536
26.8449
26.8462
26.7656
26.7431
26.6514
26.6108
26.5103
26.4857
26.4304
26.461
26.481
26.5949
26.7107
26.9153
27.1298
27.4417
27.8026
28.2865
28.8603
29.5721
30.3997
31.3693
32.4591
33.6657
34.9692
36.3442
37.7759
39.218
40.5977
41.845
42.9309
43.7868
44.3479
44.8938
45.2201
45.5494
45.6755
45.7643
45.6154
45.3717
44.8864
44.2862
43.4609
42.5094
41.374
40.1249
38.7401
37.2697
35.7232
34.1304
32.5124
30.8793
29.2579
27.6468
26.0748
24.5306
23.0407
21.5905
20.2047
18.8654
17.593
16.3698
15.2138
14.1071
13.0638
12.0677
11.1307
10.2376
9.39769
8.59754
7.84473
7.12724
6.45075
5.80484
5.19404
4.60909
4.05324
3.51841
3.00701
2.51194
2.03451
1.56919
1.11451
0.671662
0.217661
25.9894
25.9924
25.8782
25.6717
25.6559
25.884
26.1081
26.2632
26.3907
26.4882
26.5971
26.6708
26.7558
26.7857
26.852
26.8414
26.8413
26.7596
26.7352
26.641
26.5974
26.4941
26.466
26.407
26.4336
26.4499
26.5599
26.6707
26.869
27.0767
27.3802
27.7316
28.2066
28.7724
29.4763
30.2958
31.2586
32.3428
33.5459
34.8493
36.2293
37.6758
39.1428
40.557
41.8447
42.9715
43.8623
44.4472
45.0112
45.3477
45.6849
45.8134
45.8982
45.7367
45.4725
44.9624
44.3341
43.479
42.4942
41.3255
40.0441
38.6313
37.1371
35.5721
33.9648
32.3367
30.6965
29.071
27.4582
25.8864
24.344
22.8572
21.411
20.0301
18.6961
17.4296
16.2126
15.063
13.9629
12.9262
11.9368
11.0064
10.12
9.28662
8.49299
7.74662
7.03551
6.36534
5.72571
5.12115
4.54244
3.99286
3.46438
2.95946
2.47106
2.00051
1.54249
1.09516
0.661013
0.212193
26.0099
25.9898
25.8699
25.6667
25.6562
25.8881
26.113
26.266
26.3922
26.4896
26.599
26.6729
26.7578
26.7868
26.8512
26.8387
26.8372
26.7543
26.7278
26.6308
26.584
26.4777
26.4461
26.3831
26.4059
26.4186
26.5251
26.6311
26.8229
27.0234
27.3183
27.6598
28.1258
28.6828
29.3777
30.1882
31.1437
32.2216
33.4199
34.7223
36.1069
37.5691
39.0617
40.5127
41.8445
43.0168
43.9477
44.5613
45.146
45.4928
45.8363
45.965
46.043
45.8671
45.581
45.0441
44.3845
43.4947
42.4717
41.2659
39.9499
38.5079
36.9894
35.4058
33.7842
32.1462
30.4993
28.8703
27.2561
25.6851
24.1449
22.6617
21.22
19.8444
18.5164
17.2562
16.0459
14.9032
13.8101
12.7806
11.7983
10.8751
9.99574
9.1694
8.38274
7.64322
6.93892
6.27546
5.64252
5.04458
4.4725
3.92955
3.40781
2.9097
2.42834
1.96501
1.51461
1.07494
0.649709
0.20671
26.0257
25.9875
25.8603
25.6605
25.6558
25.8915
26.1168
26.2675
26.3925
26.4902
26.6003
26.6743
26.759
26.7869
26.8492
26.8347
26.8316
26.7471
26.7181
26.6179
26.5673
26.4576
26.4222
26.3549
26.3734
26.3823
26.485
26.5858
26.7706
26.9638
27.2505
27.5826
28.0403
28.5884
29.2747
30.0774
31.0265
32.0983
33.2914
34.5924
35.9812
37.4593
38.9772
40.4655
41.8433
43.064
44.0379
44.6831
45.2899
45.6463
45.9937
46.1206
46.1908
46
45.6911
45.1254
44.4309
43.502
42.4374
41.1925
39.8413
38.3704
36.8283
35.2271
33.5923
31.9453
30.2926
28.6608
27.0459
25.4762
23.9388
22.4596
21.0229
19.653
18.3313
17.0779
15.8746
14.7392
13.6535
12.6313
11.6565
10.7406
9.86867
9.04959
8.27012
7.53768
6.84038
6.18382
5.55775
4.96661
4.40134
3.86519
3.35032
2.85919
2.385
1.92903
1.48635
1.05448
0.638175
0.201357
26.0381
25.9866
25.8514
25.6553
25.6571
25.8962
26.1213
26.2695
26.3934
26.4918
26.6026
26.6767
26.761
26.7878
26.848
26.8315
26.8267
26.7405
26.7089
26.6051
26.5508
26.4374
26.3983
26.3267
26.3409
26.347
26.4461
26.5413
26.7193
26.9057
27.184
27.5066
27.9553
28.4937
29.1711
29.9656
30.9077
31.9723
33.1593
34.4577
35.8507
37.345
38.8888
40.4158
41.8421
43.1143
44.1352
44.8166
45.4467
45.8107
46.1588
46.282
46.3431
46.1368
45.8036
45.2066
44.4728
43.5002
42.3906
41.1049
39.7178
38.218
36.6527
35.0342
33.3865
31.731
30.0728
28.4386
26.8234
25.2555
23.7213
22.2466
20.8153
19.4517
18.1368
16.8905
15.6947
14.567
13.4891
12.4748
11.5078
10.5998
9.73568
8.92427
8.15241
7.42742
6.73752
6.08824
5.46939
4.8854
4.32728
3.79827
3.29062
2.80677
2.34006
1.89173
1.45707
1.03327
0.62608
0.195965
26.0456
25.9854
25.8418
25.6491
25.6577
25.9001
26.1246
26.2703
26.3933
26.4925
26.6041
26.6783
26.7621
26.7875
26.8455
26.8268
26.82
26.7318
26.697
26.5894
26.5309
26.4136
26.3704
26.2944
26.304
26.3071
26.4021
26.4913
26.6625
26.8424
27.1125
27.4263
27.8661
28.3952
29.0648
29.8525
30.7882
31.8457
33.0262
34.3217
35.7186
37.229
38.7981
40.3635
41.8391
43.1642
44.2341
44.9535
45.6071
45.9763
46.3224
46.4408
46.493
46.2707
45.9117
45.2805
44.5033
43.4837
42.3278
41.0014
39.5795
38.0522
36.4649
34.8304
33.1709
31.5079
29.8451
28.2092
26.5944
25.0288
23.4982
22.0285
20.6031
19.246
17.9382
16.6994
15.5114
14.3916
13.3218
12.3157
11.3568
10.4569
9.60069
8.79716
8.03309
7.31574
6.63338
5.99152
5.38004
4.80333
4.25248
3.73073
3.2304
2.75394
2.29478
1.85419
1.42759
1.01195
0.613873
0.190641
26.05
25.985
25.8332
25.644
25.6597
25.9052
26.1285
26.2717
26.3941
26.4943
26.6068
26.6809
26.764
26.7881
26.8438
26.8229
26.8141
26.7237
26.6857
26.5739
26.5112
26.39
26.3429
26.2624
26.2679
26.2691
26.3597
26.4431
26.608
26.7818
27.0435
27.3483
27.7786
28.2983
28.9601
29.7407
30.6688
31.7181
32.8911
34.1827
35.5833
37.1102
38.7051
40.3091
41.8353
43.2153
44.3367
45.0976
45.7753
46.1464
46.4875
46.5997
46.642
46.4026
46.0164
45.3473
44.5222
43.4527
42.2493
40.8824
39.4261
37.872
36.2634
34.6134
32.9425
31.2723
29.6053
27.9681
26.3541
24.7912
23.2648
21.8003
20.3812
19.0311
17.7308
16.5
15.3203
14.2089
13.1476
12.15
11.1997
10.3082
9.4604
8.66511
7.90921
7.19987
6.52542
5.89131
5.28753
4.71841
4.17515
3.66096
3.16824
2.69945
2.24813
1.81552
1.39722
0.989962
0.601194
0.185218
26.0515
25.9832
25.8232
25.6377
25.6608
25.9091
26.131
26.2718
26.3938
26.4951
26.6086
26.6826
26.7647
26.7873
26.8407
26.8173
26.8063
26.7132
26.6715
26.5554
26.4881
26.3628
26.3116
26.2263
26.2278
26.2267
26.3123
26.3898
26.5485
26.716
26.9699
27.2661
27.6872
28.199
28.8543
29.6285
30.5496
31.5907
32.7558
34.0429
35.448
36.9904
38.6099
40.2514
41.8279
43.2632
44.4366
45.2396
45.9413
46.3119
46.6464
46.7514
46.7833
46.5259
46.1103
45.3991
44.5228
43.4025
42.1527
40.747
39.2584
37.6793
36.0509
34.3868
32.7057
31.0293
29.3588
27.721
26.1084
24.5488
23.0269
21.5682
20.1557
18.8129
17.5205
16.298
15.1268
14.024
12.9715
11.9825
11.041
10.1581
9.31889
8.53201
7.7844
7.08319
6.41676
5.79053
5.19453
4.6331
4.0975
3.59094
3.1059
2.64484
2.2014
1.77681
1.36683
0.967983
0.588494
0.179859
26.0517
25.982
25.8146
25.633
25.6634
25.9141
26.1343
26.2727
26.3946
26.4973
26.6116
26.6853
26.7664
26.7873
26.8383
26.8125
26.7991
26.7034
26.6579
26.5372
26.4653
26.3363
26.2809
26.191
26.1894
26.1864
26.2672
26.3392
26.4923
26.6536
26.8998
27.187
27.5988
28.1032
28.7519
29.5191
30.432
31.4637
32.6199
33.9013
35.3125
36.8686
38.5123
40.1914
41.8188
43.31
44.5356
45.3835
46.1099
46.4767
46.8024
46.8981
46.9183
46.6424
46.1943
45.4359
44.5057
43.3345
42.0392
40.5959
39.0761
37.4728
35.8254
34.1477
32.4568
30.7746
29.1011
27.4631
25.8522
24.2962
22.7793
21.3269
19.9214
18.5864
17.3022
16.0883
14.926
13.8323
12.789
11.8092
10.8768
10.0029
9.17263
8.3945
7.65554
6.9628
6.30472
5.68667
5.09878
4.54531
4.01765
3.51898
3.0419
2.58882
2.1535
1.73713
1.33568
0.945436
0.575381
0.174415
26.0491
25.9795
25.805
25.6272
25.6649
25.9178
26.136
26.2722
26.3942
26.4985
26.6136
26.6868
26.7668
26.7859
26.8344
26.806
26.7899
26.691
26.6414
26.5159
26.4392
26.3062
26.2465
26.152
26.1474
26.1417
26.2172
26.2838
26.4314
26.5863
26.8252
27.1038
27.5073
28.0059
28.6489
29.4096
30.3144
31.3367
32.4845
33.7597
35.1779
36.7453
38.4116
40.1273
41.805
43.3508
44.6262
45.5202
46.2708
46.6316
46.948
47.0333
47.0412
46.7455
46.2596
45.4502
44.4658
43.2455
41.9073
40.4292
38.8804
37.2548
35.5899
33.9
32.2004
30.5133
28.8376
27.2001
25.5916
24.0398
22.5283
21.0825
19.6845
18.3575
17.082
15.8769
14.7238
13.6394
12.6054
11.6349
10.7118
9.84704
9.02583
8.25658
7.52636
6.84216
6.19252
5.58273
5.00299
4.45755
3.93786
3.44712
2.97801
2.53294
2.10574
1.6976
1.30465
0.923001
0.562317
0.169052
26.0447
25.9779
25.7972
25.6231
25.668
25.9226
26.1387
26.2728
26.3952
26.501
26.6169
26.6895
26.7681
26.7853
26.8313
26.8003
26.7814
26.6794
26.6255
26.4951
26.4137
26.2771
26.2132
26.1145
26.1075
26.0995
26.1701
26.2321
26.3743
26.523
26.7545
27.0244
27.4204
27.9135
28.5504
29.3037
30.199
31.2109
32.3496
33.6181
35.0426
36.6199
38.3084
40.0607
41.7886
43.3876
44.7102
45.6543
46.4272
46.7819
47.0865
47.1587
47.1538
46.8359
46.3066
45.4433
44.4052
43.1378
41.7586
40.2471
38.6705
37.0235
35.3418
33.6402
31.9324
30.2409
28.5634
26.9268
25.3211
23.7739
22.2683
20.8295
19.4393
18.1209
16.8543
15.6586
14.515
13.4403
12.416
11.4552
10.5418
9.68657
8.87478
8.11473
7.39359
6.71825
6.07735
5.4761
4.90479
4.36763
3.85617
3.37361
2.9127
2.47585
2.05699
1.65726
1.27299
0.900085
0.548898
0.163619
26.0376
25.9745
25.7881
25.6177
25.6697
25.926
26.1399
26.2721
26.3951
26.5025
26.619
26.6908
26.768
26.7832
26.8266
26.7926
26.7707
26.6652
26.6066
26.4712
26.385
26.2445
26.1762
26.0737
26.0639
26.0527
26.1182
26.1758
26.3125
26.4547
26.6791
26.9412
27.331
27.8197
28.451
29.1976
30.0833
31.0853
32.2146
33.4779
34.9061
36.4926
38.2022
39.9891
41.7656
43.4145
44.7803
45.7762
46.5682
46.9211
47.2109
47.2679
47.2499
46.9049
46.3268
45.4096
44.3206
43.0093
41.5923
40.0502
38.448
36.7815
35.0846
33.3725
31.6578
29.9628
28.2844
26.6494
25.0471
23.505
22.0058
20.5744
19.1924
17.8829
16.6255
15.4393
14.3055
13.2406
12.2263
11.2753
10.3717
9.52609
8.72381
7.97305
7.26104
6.59463
5.96249
5.36982
4.80697
4.27812
3.77489
3.30049
2.84778
2.41915
2.00858
1.61724
1.24159
0.877384
0.535588
0.158317
26.0306
25.9715
25.7802
25.6139
25.6729
25.9306
26.1421
26.2726
26.3964
26.5054
26.6225
26.6934
26.769
26.782
26.8227
26.7859
26.7608
26.6516
26.5884
26.4479
26.3572
26.2131
26.1406
26.0347
26.0225
26.0086
26.0698
26.1236
26.2548
26.3906
26.6079
26.8628
27.2471
27.7312
28.3565
29.0955
29.9705
30.9621
32.0806
33.3397
34.7674
36.3638
38.094
39.9137
41.7377
43.4356
44.8407
45.8888
46.6961
47.0547
47.3217
47.3608
47.3298
46.9517
46.3224
45.3524
44.215
42.8623
41.4095
39.8382
38.2115
36.5264
34.8149
33.0932
31.3719
29.674
27.9952
26.3622
24.7638
23.2273
21.7349
20.3113
18.938
17.6376
16.39
15.2137
14.0901
13.0354
12.0314
11.0906
10.1971
9.3615
8.56906
7.82791
7.12534
6.46813
5.84504
5.26121
4.70707
4.18676
3.692
3.22598
2.78167
2.36143
1.95934
1.57655
1.20966
0.85429
0.521962
0.152999
26.0217
25.9665
25.7708
25.6087
25.6746
25.9336
26.1427
26.2717
26.3965
26.5072
26.6248
26.6946
26.7684
26.7793
26.8172
26.7771
26.7486
26.6356
26.5674
26.4217
26.3263
26.1784
26.1017
25.9927
25.9775
25.9602
26.0172
26.067
26.192
26.3214
26.532
26.7808
27.1607
27.6408
28.2607
28.9926
29.8574
30.8392
31.9465
33.2024
34.6284
36.2336
37.9819
39.8322
41.701
43.4459
44.8845
45.9809
46.8032
47.1731
47.4109
47.433
47.386
46.9688
46.2875
45.2679
44.0861
42.6955
41.2099
39.612
37.9632
36.2612
34.5369
32.8067
31.0801
29.3803
27.7018
26.0717
24.4778
22.9474
21.4623
20.0469
18.6826
17.3917
16.154
14.988
13.8747
12.8304
11.8368
10.9063
10.0231
9.1975
8.41494
7.68345
6.99036
6.34238
5.72835
5.15336
4.60792
4.09613
3.60981
3.15215
2.71619
2.3043
1.91063
1.53633
1.17812
0.831501
0.508499
0.147815
26.0127
25.9624
25.7632
25.6054
25.6779
25.938
26.1446
26.2723
26.3982
26.5105
26.6284
26.697
26.769
26.7775
26.8126
26.7693
26.7372
26.6202
26.5471
26.3962
26.2966
26.1451
26.0646
25.9528
25.9348
25.915
25.9686
26.0146
26.1334
26.2567
26.461
26.7043
27.08
27.5556
28.1699
28.8939
29.7483
30.7202
31.8158
33.0663
34.4892
36.1018
37.8674
39.7487
41.659
43.4508
44.9175
46.0554
46.8982
47.2754
47.4816
47.4901
47.421
46.959
46.2261
45.1599
43.9365
42.5105
40.9939
39.3709
37.7009
35.9831
34.2466
32.5087
30.7774
29.0762
27.3987
25.7719
24.183
22.6592
21.1817
19.7751
18.4201
17.1393
15.9119
14.7564
13.6539
12.6203
11.6375
10.7177
9.84503
9.02984
8.2575
7.53596
6.85264
6.21415
5.60944
5.04351
4.507
4.00395
3.52629
3.07716
2.64973
2.24635
1.86125
1.49556
1.14616
0.808389
0.494772
0.142563
26.0009
25.9565
25.7542
25.6005
25.6796
25.9406
26.1449
26.2715
26.3987
26.5126
26.6307
26.6979
26.768
26.7741
26.8062
26.7595
26.7237
26.6023
26.524
26.3679
26.2639
26.1087
26.0243
25.9097
25.8885
25.8658
25.9158
25.9573
26.0695
26.1866
26.3853
26.6241
26.9961
27.4677
28.077
28.7937
29.6388
30.6015
31.6851
32.9273
34.3483
35.9674
37.7485
39.6615
41.607
43.4433
44.9327
46.105
46.9809
47.3578
47.5375
47.5304
47.4277
46.9161
46.1339
45.0256
43.7646
42.3066
40.7619
39.1162
37.4273
35.6955
33.9486
32.2043
30.4695
28.7679
27.0922
25.4695
23.8863
22.3696
20.9003
19.5027
18.1575
16.8869
15.67
14.5253
13.4337
12.411
11.4391
10.5301
9.66805
8.86329
8.1012
7.38964
6.71609
6.0871
5.49167
4.9348
4.40716
3.91281
3.44374
3.00309
2.58412
2.18917
1.81255
1.45539
1.11468
0.785658
0.481254
0.137432
25.9895
25.9516
25.7467
25.5973
25.6829
25.9447
26.1466
26.2722
26.4008
26.5162
26.6345
26.7001
26.7682
26.7717
26.8008
26.7506
26.7109
26.5851
26.5017
26.3406
26.2325
26.0739
25.986
25.8688
25.8448
25.8199
25.867
25.9041
26.01
26.1211
26.3146
26.5493
26.9176
27.385
27.9891
28.6982
29.5343
30.4877
31.5577
32.7898
34.2097
35.8311
37.6256
39.5741
41.5456
43.4268
44.9387
46.1404
47.0589
47.4259
47.5813
47.548
47.4048
46.843
46.0153
44.8685
43.5726
42.0847
40.5137
38.8468
37.14
35.3952
33.6386
31.8887
30.1511
28.4498
26.7764
25.1583
23.5812
22.0721
20.6114
19.2234
17.8884
16.6283
15.4225
14.2889
13.2086
12.1972
11.2365
10.3386
9.48756
8.69354
7.942
7.24069
6.57718
5.95793
5.37203
4.82441
4.30586
3.82038
3.36009
2.92809
2.51773
2.13134
1.76332
1.41481
1.08287
0.762675
0.467489
0.132306
25.9763
25.9441
25.7371
25.5923
25.6844
25.947
26.1467
26.2716
26.4017
26.5186
26.6368
26.7009
26.7668
26.7678
26.7938
26.7397
26.696
26.5655
26.4767
26.3105
26.1984
26.036
25.9446
25.8247
25.7975
25.7702
25.8138
25.8459
25.945
26.0502
26.2391
26.4703
26.8351
27.2987
27.898
28.6004
29.4285
30.3731
31.4291
32.6514
34.0717
35.6934
37.5021
39.4824
41.4674
43.3912
44.9277
46.1548
47.1225
47.4704
47.6006
47.5285
47.3454
46.736
45.8677
44.6865
43.3593
41.8447
40.2502
38.5645
36.8421
35.0862
33.3215
31.5674
29.8281
28.128
26.458
24.8452
23.2749
21.7739
20.3224
18.9442
17.6197
16.3706
15.1759
14.0537
12.9848
11.9848
11.0354
10.1486
9.30864
8.52539
7.7844
7.09335
6.43985
5.83031
5.2539
4.71548
4.20594
3.72926
3.27767
2.85422
2.45238
2.07445
1.71492
1.37493
1.05162
0.740141
0.453938
0.127433
25.9641
25.9375
25.7292
25.5892
25.6877
25.9508
26.1484
26.2727
26.4043
26.5226
26.6407
26.7029
26.7667
26.7649
26.7876
26.7298
26.6819
26.5467
26.4525
26.2816
26.1658
26.0001
25.9054
25.7829
25.753
25.7241
25.7648
25.792
25.8844
25.9839
26.1687
26.3964
26.7577
27.2171
27.8116
28.507
29.3274
30.2627
31.3053
32.519
33.9377
35.5574
37.3782
39.3848
41.3728
43.3348
44.9153
46.1523
47.1663
47.4868
47.5898
47.4746
47.254
46.6002
45.6952
44.4825
43.1263
41.587
39.9706
38.2675
36.5307
34.7646
32.9928
31.2352
29.495
27.7968
26.1306
24.5237
22.9607
21.4684
20.0264
18.6587
17.345
16.1072
14.9242
13.8136
12.7566
11.7682
10.8306
9.95529
9.12664
8.35444
7.6243
6.94375
6.30053
5.70092
5.1342
4.60517
4.10483
3.63711
3.19437
2.77961
2.38642
2.01706
1.66612
1.33473
1.02012
0.717414
0.440151
0.122662
25.9495
25.9287
25.7194
25.5843
25.6891
25.9529
26.1485
26.2723
26.4056
26.5253
26.6431
26.7035
26.765
26.7604
26.7799
26.718
26.6656
26.5255
26.4259
26.2502
26.1304
25.9612
25.8632
25.7379
25.7051
25.6742
25.7113
25.7329
25.8181
25.9117
26.0929
26.3173
26.6752
27.1307
27.7209
28.4105
29.2237
30.15
31.1802
32.3871
33.8001
35.4163
37.2463
39.2733
41.2592
43.2426
44.902
46.126
47.1698
47.4695
47.54
47.3969
47.1281
46.4335
45.4957
44.2549
42.8732
41.3122
39.6768
37.9585
36.2095
34.4351
32.6578
30.8981
29.1581
27.4627
25.8012
24.201
22.646
21.1629
19.7309
18.3739
17.0715
15.8452
14.6739
13.5753
12.5301
11.5536
10.6277
9.76396
8.94667
8.18554
7.46623
6.79616
6.16315
5.57343
5.01633
4.49662
4.00537
3.54653
3.11251
2.70634
2.32166
1.96074
1.61826
1.29535
0.989257
0.69519
0.426613
0.118166
25.9349
25.9212
25.7114
25.5815
25.6924
25.9566
26.1503
26.2739
26.4088
26.5297
26.6471
26.7055
26.7647
26.7571
26.773
26.7071
26.6502
26.505
26.4001
26.22
26.0967
25.9243
25.8233
25.6952
25.66
25.6277
25.6618
25.6779
25.756
25.8439
26.0219
26.2429
26.5972
27.0486
27.6347
28.3186
29.1247
30.0418
31.0605
32.2607
33.6629
35.2747
37.1114
39.1544
41.1337
43.1301
44.8594
46.088
47.1365
47.4162
47.4527
47.2886
46.9729
46.2403
45.2722
44.0059
42.6008
41.02
39.3671
37.6352
35.8751
34.0934
32.3114
30.5505
28.8114
27.1196
25.4635
23.8704
22.3239
20.8504
19.4289
18.0831
16.7924
15.5781
14.419
13.3325
12.2997
11.3354
10.4215
9.56966
8.76404
8.01425
7.30603
6.64668
6.02412
5.44447
4.89718
4.38695
3.90496
3.45511
3.02996
2.63249
2.25644
1.90406
1.57012
1.25574
0.958216
0.67282
0.412887
0.113739
25.9183
25.9112
25.701
25.5767
25.6936
25.9585
26.1506
26.2739
26.4106
26.5327
26.6496
26.7061
26.7628
26.7522
26.7646
26.6943
26.6327
26.4823
26.372
26.1873
26.0604
25.8847
25.7805
25.6493
25.6117
25.5772
25.6074
25.6175
25.6879
25.77
25.9449
26.1623
26.5132
26.9606
27.5434
28.2224
29.0215
29.9301
30.9387
32.1321
33.5212
35.131
36.9683
39.0229
40.9956
42.9913
44.769
46.0488
47.0709
47.3172
47.3293
47.1423
46.7851
46.0183
45.0232
43.7346
42.3094
40.7118
39.0441
37.3009
35.5317
33.7445
31.9595
30.1986
28.4617
26.7744
25.1244
23.5393
22.0019
20.5386
19.128
17.7937
16.515
15.3128
14.1661
13.0921
12.0716
11.1195
10.2178
9.37781
8.58386
7.84541
7.14824
6.49957