/*--------------------------------*- C++ -*----------------------------------*\
| =========                 |                                                 |
| \\      /  F ield         | OpenFOAM: The Open Source CFD Toolbox           |
|  \\    /   O peration     | Version:  4.1                                   |
|   \\  /    A nd           | Web:      www.OpenFOAM.org                      |
|    \\/     M anipulation  |                                                 |
\*---------------------------------------------------------------------------*/
FoamFile
{
    version     2.0;
    format      ascii;
    class       surfaceScalarField;
    location    "23";
    object      phi;
}
// * * * * * * * * * * * * * * * * * * * * * * * * * * * * * * * * * * * * * //

dimensions      [0 3 -1 0 0 0 0];

internalField   nonuniform List<scalar> 
52920
(
1832.05
-77.5014
1904.77
-73.5491
1979.88
-73.8361
2051.7
-72.6541
2127.31
-70.9148
2197.25
-71.6274
2272.03
-71.0047
2342.17
-71.186
2416.59
-70.8003
2488.16
-70.875
2563.13
-70.8784
2635.85
-71.071
2710.59
-71.6758
2784.03
-72.2371
2858.4
-73.5596
2934.58
-74.5329
3011.04
-76.0611
3089.44
-76.9404
3167.83
-78.4482
3248.12
-79.3325
3327.97
-80.5725
3409.44
-81.2582
3490.17
-82.3778
3572.95
-83.2424
3655.02
-84.6371
3741.01
-85.9917
3826.74
-87.4125
3915.06
-88.3557
4003.2
-88.7733
4090.72
-88.1501
4176.88
-86.7243
4261.04
-84.331
4342.25
-81.37
4420.23
-77.7816
4493.93
-73.6452
4563.18
-68.6383
4626.23
-62.6728
4682.76
-55.8502
4732.31
-49.0217
4776.01
-43.2246
4815.86
-39.5213
4855.03
-38.4134
4895.51
-39.8548
4940.11
-43.3883
4988.65
-48.1948
5043.75
-53.9238
5107.39
-60.1712
5168.53
-63.9898
5240.29
-69.4113
5309.48
-72.1712
5387.88
-76.4751
5463.51
-78.7912
5548.24
-83.0085
5630.74
-85.8115
5722.35
-91.1379
5814.37
-96.0293
5917.61
-103.164
6023.48
-109.695
6139.83
-117.138
6259.55
-123.548
6387.96
-129.731
6519.24
-134.61
6656
-138.693
6794.63
-141.588
6936.02
-143.616
7078.34
-144.761
7221.2
-145.225
7364.31
-145.119
7506.53
-144.543
7648.51
-143.615
7788.72
-142.381
7928.35
-140.943
8065.69
-139.332
8202.21
-137.611
8336.24
-135.808
8469.31
-133.955
8599.81
-132.094
8729.27
-130.222
8856.27
-128.387
8982.21
-126.567
9105.8
-124.82
9228.36
-123.102
9348.78
-121.477
9468.22
-119.89
9585.7
-118.411
9702.3
-116.974
9817.16
-115.652
9931.24
-114.374
10043.8
-113.218
10155.7
-112.106
10266.2
-111.121
10376.2
-110.183
10485.1
-109.377
10593.7
-108.62
10701.3
-108.012
10808.7
-107.398
10915.6
-107.142
11021.9
-106.246
11131
-109.244
-104.377
1969.89
-163.216
2052.14
-155.936
2137.27
-157.013
2218.59
-154.55
2306.29
-153.004
2386.65
-153.348
2473.78
-153.636
2555.3
-153.527
2642.46
-153.885
2726.53
-154.136
2814.98
-155.033
2901.29
-155.736
2990.23
-157.623
3078.35
-159.432
3167.64
-162.445
3259.46
-165.075
3351.56
-168.219
3446.3
-170.777
3540.91
-173.696
3638.02
-176.074
3734.6
-178.426
3833.38
-180.397
3931.44
-182.601
4032.09
-184.898
4131.97
-187.532
4235.99
-190.339
4339.31
-192.617
4444.95
-194.075
4549.65
-194.04
4653.16
-192.114
4754.51
-188.378
4853.32
-182.968
4948.59
-176.371
5040.19
-168.734
5127.04
-159.97
5209.12
-149.759
5284.8
-137.694
5353.96
-124.166
5416.32
-110.772
5473.15
-99.594
5526.5
-92.5978
5579.45
-90.6486
5633.87
-93.5592
5692.29
-100.366
5754.44
-109.683
5822.5
-120.617
5898.06
-131.761
5970.81
-139.56
6052.63
-148.645
6131.23
-154.01
6217.44
-160.867
6300.18
-165.243
6390.35
-171.757
6477.35
-176.802
6571.43
-185.139
6664.22
-193.463
6765.34
-204.644
6866.55
-215.19
6974.88
-226.625
7083.61
-236.391
7197.6
-245.331
7311.46
-252.016
7427.68
-257.06
7542.95
-260.012
7658.21
-261.324
7771.86
-261.1
7883.69
-259.655
7993.53
-257.267
8100.46
-254.102
8205.27
-250.408
8306.65
-246.268
8405.89
-241.88
8501.5
-237.309
8595.05
-232.661
8685.07
-227.994
8773.17
-223.359
8857.93
-218.835
8940.94
-214.404
9020.93
-210.152
9099.37
-206.03
9175.09
-202.142
9249.47
-198.401
9321.49
-194.913
9392.38
-191.58
9461.23
-188.515
9529.17
-185.604
9595.39
-182.96
9660.91
-180.467
9724.99
-178.241
9788.58
-176.162
9851.02
-174.344
9913.16
-172.673
9974.4
-171.261
10035.5
-170.001
10096
-168.989
10156.7
-168.157
10216.6
-167.468
10277.6
-167.267
10334.2
-166.043
-169.839
2126.19
-258.681
2220.26
-251.038
2317.48
-253.138
2411.74
-249.87
2511.95
-248.873
2605.62
-248.87
2705.23
-249.81
2799.66
-249.125
2898.96
-249.876
2995.33
-249.9
3095.42
-251.314
3193.35
-252.151
3293.35
-254.73
3392.18
-257.046
3491.53
-260.851
3592.41
-264.287
3692.71
-267.935
3794.35
-270.836
3894.81
-273.953
3996.26
-276.363
4095.92
-278.494
4196.02
-280.034
4293.8
-281.674
4391.98
-283.249
4487.32
-285.105
4584.15
-287.028
4678.06
-288.117
4771.97
-288.043
4863.17
-285.971
4951.82
-281.48
5037.42
-274.684
5119.89
-265.802
5198.59
-255.456
5273.81
-243.99
5345.21
-231.542
5413.44
-217.569
5477.36
-201.385
5536.74
-182.966
5590.77
-164.301
5639.78
-148.108
5684.81
-137.242
5727.93
-132.941
5770.23
-135.227
5813.59
-142.552
5857.24
-153.13
5903.02
-165.292
5952.66
-177.317
5995.87
-186.213
6045.42
-195.353
6089.01
-201.11
6138.56
-207.81
6182.39
-212.763
6231.61
-218.509
6273.85
-223.016
6319.09
-229.343
6357.37
-236.669
6398.83
-245.631
6434.58
-255.641
6472.75
-265.463
6506.51
-274.85
6541.99
-282.224
6573.89
-288.014
6605.82
-291.252
6634.79
-292.642
6662.65
-291.924
6688.31
-289.804
6712.18
-286.527
6734.74
-282.361
6755.43
-277.832
6775.69
-272.758
6794.35
-267.814
6813.3
-262.531
6830.96
-257.674
6849.46
-252.591
6867.1
-248.046
6885.92
-243.364
6904.18
-239.276
6923.87
-235.109
6943.33
-231.518
6964.35
-227.903
6985.36
-224.848
7008.03
-221.804
7030.93
-219.276
7055.52
-216.791
7080.52
-214.788
7107.24
-212.847
7134.53
-211.344
7163.57
-209.92
7193.3
-208.905
7224.8
-207.981
7257.12
-207.435
7291.23
-206.999
7326.26
-206.92
7363.1
-206.985
7400.99
-207.354
7440.81
-208.016
7481.54
-208.537
7524.92
-210.623
7565.41
-206.707
-218.476
2277.77
-358.83
2380.67
-353.7
2485.8
-356.407
2587.35
-351.821
2693.2
-349.807
2791.77
-348.454
2894.43
-348.435
2991.04
-346.334
3090.81
-345.983
3186.48
-344.783
3284.1
-345.043
3377.97
-344.545
3471.8
-345.783
3562.24
-346.688
3650.63
-348.742
3737.63
-350.203
3821.18
-351.447
3902.92
-351.828
3980.43
-352.028
4055.67
-351.337
4125.93
-350.008
4193.24
-347.767
4254.78
-345.419
4313.07
-342.672
4364.92
-340.147
4414.95
-337.599
4459.22
-334.558
4501.44
-330.51
4539.71
-325.03
4575.17
-317.485
4608.18
-308.072
4639.08
-296.452
4667.29
-283.256
4693.46
-269.262
4718.12
-255.366
4743.06
-241.165
4767.61
-224.89
4791.18
-205.347
4811.79
-184.017
4828.18
-163.878
4839.87
-148.567
4847.83
-140.05
4852.36
-138.91
4855.09
-143.501
4854.74
-152.06
4853.49
-162.093
4853.55
-171.246
4842.29
-178.988
4836.22
-185.213
4820.53
-190.353
4811.64
-196.069
4795.52
-202.579
4787.05
-207.868
4769.91
-212.47
4756.64
-216.087
4733.63
-221.337
4713.94
-226.596
4685.68
-234.462
4659.89
-241.549
4628.15
-250.072
4599.94
-256.706
4569.76
-263.983
4544.23
-269.485
4520.96
-274.943
4503.81
-279.147
4492.31
-283.08
4487.59
-286.478
4490.55
-289.44
4500.32
-292.256
4518.55
-294.514
4543.08
-296.71
4575.79
-298.248
4613.79
-299.71
4659.08
-300.49
4708.57
-301.136
4764.12
-301.163
4822.7
-301.076
4886.1
-300.481
4951.56
-299.806
5020.71
-298.762
5091.1
-297.716
5164.23
-296.434
5238.02
-295.21
5313.81
-293.867
5389.81
-292.647
5467.26
-291.399
5544.65
-290.315
5623.1
-289.277
5701.3
-288.445
5780.31
-287.716
5858.99
-287.224
5938.34
-286.89
6017.36
-286.826
6096.97
-286.984
6176.38
-287.423
6256.36
-288.208
6336.43
-289.063
6416.58
-290.864
6499.85
-290.187
-297.13
2398.3
-461.492
2500.71
-457.025
2601.86
-456.788
2697.2
-448.209
2794.46
-443.244
2882.84
-438.607
2973.22
-435.64
3055.87
-430.107
3139.47
-426.373
3216.67
-421.381
3292.98
-417.493
3362.34
-412.367
3428.03
-408.425
3486.32
-403.653
3538.37
-399.676
3584.81
-394.774
3623.73
-389.634
3657.06
-383.29
3682.64
-377.318
3702.89
-370.131
3715.3
-362.892
3722.39
-354.197
3721.36
-346.009
3715.19
-336.657
3700.61
-328.567
3683.5
-320.227
3660.15
-313.449
3635.82
-306.256
3609.32
-299.599
3583.22
-292.496
3559.07
-285.043
3537.36
-275.326
3516.48
-263.023
3496.4
-249.243
3477.76
-237.014
3463.38
-226.081
3452.64
-213.733
3444.43
-196.145
3435.37
-174.076
3422.8
-150.511
3405.24
-130.398
3383.25
-116.736
3356.99
-111.718
3328.91
-113.492
3297.69
-120.744
3267.25
-129.647
3240.51
-135.647
3198.31
-144.013
3164.07
-144.821
3115.74
-149.493
3078.4
-153.004
3032.82
-165.144
3003.32
-173.031
2966.85
-184.892
2943.14
-190.329
2911.18
-200.079
2889.85
-204.609
2860.65
-215.134
2841.06
-223.766
2820.84
-239.23
2817
-256.005
2824.07
-278.68
2852.57
-302.301
2898.59
-327.257
2965.12
-350.31
3048.38
-371.192
3146.17
-388.815
3256.09
-403.115
3373.96
-414.324
3499.09
-422.517
3627.03
-428.342
3758.42
-431.845
3889.22
-433.734
4020.95
-433.96
4150.2
-433.13
4278.85
-431.18
4404.03
-428.625
4527.79
-425.365
4647.78
-421.805
4765.97
-417.86
4880.4
-413.862
4992.91
-409.708
5101.9
-405.655
5209.03
-401.614
5312.93
-397.792
5415.11
-394.093
5514.43
-390.679
5612.23
-387.47
5707.5
-384.6
5801.47
-381.993
5893.29
-379.763
5984.05
-377.851
6073
-376.359
6161.14
-375.246
6247.86
-374.588
6334.02
-374.392
6419.28
-374.64
6503.94
-375.496
6589.96
-376.36
-380.147
2453.04
-548.718
2539.5
-542.916
2622.1
-537.396
2697.77
-524.118
2774.09
-514.58
2839.9
-505.24
2905.47
-496.88
2960.53
-485.598
3013.45
-475.19
3056.3
-463.162
3094.52
-451.173
3121.57
-437.61
3141.02
-424.429
3149
-410.615
3147.21
-397.065
3136.92
-383.127
3116.79
-369.367
3089.76
-355.339
3054.07
-342.462
3013.27
-329.113
2965.09
-316.68
2913.13
-303.101
2854.46
-290.937
2793.17
-277.432
2725.61
-266.402
2660.19
-255.825
2592.94
-249.908
2531.53
-245.217
2474.74
-243.995
2426.12
-244.723
2387.4
-246.744
2357.9
-245.073
2333.44
-237.456
2312.07
-225.792
2292.99
-215.973
2278.46
-208.585
2266.19
-199.154
2253.88
-181.382
2237.21
-155.701
2213.67
-126.135
2182.93
-99.513
2147.13
-80.1455
2107.62
-71.5038
2068.93
-72.273
2030.34
-81.6168
1998.73
-94.1884
1978.57
-102.53
1940.52
-114.226
1917.92
-113.489
1876.75
-118.656
1853.57
-124.204
1820.37
-144.497
1813.31
-161.999
1799.18
-184.245
1805.51
-196.747
1801.64
-210.912
1815.36
-219.272
1826.69
-238.791
1865.91
-265.996
1924.13
-308.092
2020.15
-355.959
2140.33
-407.092
2287.02
-453.877
2447.67
-494.65
2619.34
-527.174
2794.83
-552.113
2970.64
-569.855
3144.57
-581.582
3313.6
-588.362
3478.41
-591.14
3636.36
-590.893
3789.5
-588.221
3935.46
-583.873
4076.84
-578.142
4211.57
-571.551
4342.24
-564.253
4466.95
-556.633
4588.22
-548.73
4704.36
-540.818
4817.59
-532.909
4926.41
-525.211
5032.82
-517.696
5135.49
-510.513
5236.15
-503.631
5333.63
-497.163
5429.44
-491.066
5522.58
-485.423
5614.35
-480.198
5703.85
-475.46
5792.26
-471.174
5878.78
-467.4
5964.46
-464.118
6048.6
-461.387
6132.14
-459.2
6214.5
-457.614
6296.51
-456.641
6377.77
-456.362
6458.88
-456.713
6540.25
-457.944
-460.637
2408.56
-620.122
2476.27
-611.613
2537.09
-597.402
2588.29
-576.684
2637.16
-559.452
2671.64
-541.861
2702.27
-523.976
2718.41
-503.201
2729.46
-482.435
2727.5
-460.529
2719.27
-438.015
2698.21
-414.605
2669.3
-391.369
2628.8
-368.227
2579.44
-346.053
2523.47
-324.246
2459.78
-304.458
2392.39
-284.839
2319.3
-268.764
2245.3
-252.538
2167.6
-239.563
2091.3
-225.55
2012.84
-215.11
1938.59
-203.36
1864.48
-197.348
1803.25
-194.011
1749.69
-199.96
1713.58
-209.177
1690.99
-223.09
1682.89
-238.489
1687.13
-252.895
1699.78
-258.896
1714.5
-253.486
1728.61
-240.387
1739.65
-227.847
1747.75
-216.064
1747.79
-198.958
1736.51
-168.968
1710.46
-128.507
1669.9
-84.5898
1618.49
-47.2081
1561.33
-20.9876
1501.07
-9.6499
1445.08
-13.1881
1393.99
-30.4318
1356.74
-52.4416
1339.99
-68.9613
1304.43
-91.6662
1294.53
-92.3974
1264.18
-101.562
1260.21
-110.451
1244.06
-142.266
1259
-168.442
1260.01
-199.752
1282.17
-216.334
1295.74
-240.112
1346.73
-270.013
1420.96
-324.947
1546.75
-394.179
1700.99
-471.931
1886.6
-544.813
2080.97
-608.52
2282.24
-659.063
2479.37
-697.267
2671.94
-723.714
2856.47
-740.729
3032.68
-749.876
3201.09
-753.087
3360.97
-751.743
3514.54
-747.052
3660.54
-739.976
3801.72
-731.166
3936.39
-721.262
4067.4
-710.534
4192.93
-699.399
4315.56
-687.972
4433.48
-676.556
4549.02
-665.161
4660.51
-654.006
4769.97
-643.084
4875.85
-632.565
4979.97
-622.412
5080.96
-612.749
5180.39
-603.541
5277.04
-594.885
5372.31
-586.735
5465.15
-579.165
5556.79
-572.138
5646.28
-565.716
5734.74
-559.867
5821.37
-554.649
5907.14
-550.044
5991.36
-546.113
6074.93
-542.852
6157.26
-540.335
6239.18
-538.557
6320.25
-537.71
6401.06
-537.492
6482.09
-539.091
-540.657
2302.78
-668.385
2345.57
-653.526
2375.94
-625.373
2392.03
-592.913
2402.61
-564.154
2395.99
-536.083
2385.12
-507.581
2359.58
-478.032
2331.4
-448.626
2292.6
-420.004
2252.07
-390.795
2202.51
-362.21
2150.44
-333.908
2091.31
-307.308
2028.3
-281.615
1963.96
-257.502
1896.07
-236.274
1829.23
-216.415
1760.07
-201.064
1694.52
-186.681
1628.64
-177.048
1569.42
-167.96
1512.97
-164.59
1468.87
-162.703
1432.9
-169.559
1420.06
-182.494
1421.14
-205.837
1443.57
-231.781
1478.41
-258.981
1522.56
-283.346
1570.72
-301.102
1618.46
-305.192
1660.98
-294.109
1697.26
-273.549
1724.62
-252.239
1741.96
-229.25
1743.26
-196.947
1724.74
-147.11
1683.72
-85.3689
1621.86
-22.1999
1543.53
30.4297
1456
66.1619
1364.88
80.7819
1278.88
74.3745
1198.2
49.471
1133.89
16.7047
1097.05
-13.2865
1042.46
-50.3849
1025.71
-62.5995
990.519
-81.779
989.366
-101.65
973.407
-144.412
990.288
-179.651
991.64
-218.624
1029.47
-253.546
1086.2
-312.189
1208.38
-392.669
1365.25
-492.63
1561.51
-592.912
1764.12
-683.322
1973.15
-757.141
2172.33
-814.561
2365.31
-856.273
2547.23
-885.031
2721.48
-902.673
2887.61
-911.836
3047.01
-914.199
3201.15
-911.575
3349.72
-905.166
3494.89
-896.001
3635.21
-884.85
3773.02
-872.258
3906.3
-858.723
4037.38
-844.495
4164.15
-829.903
4288.77
-815.098
4409.2
-800.325
4527.49
-785.653
4641.82
-771.261
4754.03
-757.206
4862.51
-743.62
4968.95
-730.523
5071.98
-718.008
5173.09
-706.086
5271.09
-694.821
5367.35
-684.208
5460.82
-674.29
5552.74
-665.063
5642.19
-656.561
5730.29
-648.782
5816.26
-641.757
5901.09
-635.497
5984.1
-630.041
6066.22
-625.41
6146.88
-621.672
6226.9
-618.829
6305.86
-617.143
6384.39
-616.14
6462.81
-617.733
-618.167
2132.55
-689.729
2138.36
-660.296
2128.08
-614.256
2103.47
-570.109
2076.99
-532.509
2037.16
-499.118
1999.92
-465.434
1953.47
-433.65
1912.19
-401.83
1866.17
-372.986
1825.84
-343.11
1781.45
-314.908
1740.24
-286.49
1695.62
-259.783
1650.43
-233.971
1606.83
-209.377
1560.86
-188.44
1517.57
-168.451
1472.38
-154.835
1432.58
-143.143
1393.83
-138.767
1364.98
-137.361
1342.5
-144.894
1336.84
-157.017
1342.41
-180.15
1371.36
-210.583
1411.36
-249.122
1467.05
-287.486
1528.83
-322.406
1593.41
-349.865
1656.11
-365.917
1713.95
-364.544
1763.97
-345.896
1806.21
-316.812
1838.41
-285.818
1859.24
-250.073
1861.58
-199.512
1839.13
-123.879
1787.04
-32.3608
1707.24
58.4217
1606.4
132.236
1492.8
181.732
1373.44
201.805
1258.21
192.474
1149.17
158.527
1059.38
112.25
1000.61
65.287
926.667
7.28495
902.459
-24.5277
861.312
-57.1516
858.338
-86.9727
839.911
-142.141
862.685
-193.099
888.045
-258.322
975.704
-338.914
1101.02
-450.066
1283.7
-575.169
1479.03
-697.092
1684.96
-800.72
1876.66
-882.717
2061.94
-945.097
2233.62
-992.165
2400.29
-1026.27
2560.54
-1049.96
2718.75
-1064.3
2874.63
-1071.21
3028.83
-1071.68
3181.84
-1067.19
3332.29
-1058.61
3481.31
-1046.93
3626.65
-1032.82
3769.91
-1016.92
3908.62
-999.736
4044.72
-981.656
4175.92
-963.05
4304.21
-944.183
4427.54
-925.335
4547.9
-906.655
4663.56
-888.346
4776.36
-870.51
4884.81
-853.294
4990.61
-836.737
5092.5
-820.94
5192
-805.918
5288.01
-791.738
5381.93
-778.389
5472.79
-765.917
5561.84
-754.307
5648.22
-743.598
5733.08
-733.774
5815.65
-724.872
5896.96
-716.892
5976.36
-709.882
6054.77
-703.852
6131.65
-698.885
6207.82
-694.969
6282.85
-692.422
6357.43
-690.663
6431.55
-691.957
-691.726
1882.39
-658.187
1845.5
-622.089
1804.58
-570.122
1759.23
-524.843
1721.79
-487.088
1677.21
-455.559
1642.88
-423.32
1603.51
-394.625
1575.06
-365.293
1544.67
-339.917
1523.76
-312.654
1499.92
-286.955
1480.88
-260.001
1458.25
-234.571
1434.8
-208.686
1412.59
-183.908
1386.91
-162.525
1363.57
-143.328
1338.16
-131.455
1319.18
-124.162
1302.89
-126.433
1298.39
-135.05
1301.94
-154.598
1322.02
-180.865
1351.65
-217.506
1400.14
-260.448
1455.19
-308.361
1520.94
-353.272
1589.13
-391.217
1657.37
-418.405
1722.11
-430.225
1781.38
-421.872
1832.93
-394.957
1877.04
-357.172
1911.85
-316.95
1935.77
-269.116
1940.81
-200.452
1919.32
-98.6071
1867.74
21.4609
1787.01
139.439
1681.44
236.598
1558.54
303.116
1425.71
332.531
1293.34
324.47
1165.2
284.391
1055.4
225.259
977.609
159.602
889.755
80.0115
859.168
19.8788
815.301
-30.3056
814.414
-77.8921
808.236
-153.654
857.255
-236.102
927.607
-342.277
1063.29
-473.493
1226.74
-624.501
1421.14
-769.897
1604.83
-889.432
1781.52
-979.506
1938.35
-1047.11
2091.12
-1100.84
2238.51
-1145.75
2390.35
-1182.09
2544.64
-1209.73
2703.54
-1227.76
2864.56
-1237.01
3026.19
-1238.14
3187.37
-1232.63
3345.59
-1221.62
3501.3
-1206.4
3651.96
-1187.97
3798.99
-1167.24
3940.04
-1144.94
4077.11
-1121.63
4208.15
-1097.81
4335.26
-1073.85
4456.65
-1050.06
4574.41
-1026.67
4686.99
-1003.87
4796.32
-981.803
4901.03
-960.597
5002.87
-940.309
5100.69
-921.012
5196.02
-902.734
5287.83
-885.512
5377.52
-869.342
5464.16
-854.242
5549.01
-840.206
5631.24
-827.246
5711.96
-815.353
5790.47
-804.544
5867.75
-794.828
5943.17
-786.235
6017.64
-778.787
6090.61
-772.558
6162.91
-767.545
6234.08
-764.076
6304.84
-761.548
6374.93
-762.275
-761.479
1552.2
-617.192
1516.02
-587.123
1482.83
-535.803
1448.17
-492.892
1424.6
-456.878
1393.92
-428.914
1375.96
-399.108
1352.7
-374.305
1342.1
-347.854
1329.09
-325.836
1326.26
-300.896
1319.49
-276.835
1317.1
-250.364
1309.82
-223.87
1300.67
-196.705
1292.1
-170.004
1279.43
-147.526
1269.34
-127.892
1258.03
-118.523
1254.47
-116.383
1255.11
-126.746
1268.08
-145.774
1288.86
-176.998
1323.93
-215.233
1365.79
-262.934
1422.43
-315.901
1482.52
-370.968
1550.38
-421.049
1618.96
-461.368
1686.63
-488.046
1750.49
-496.426
1809.19
-482.508
1860.73
-448.844
1905.39
-403.58
1941.41
-355.081
1967.6
-296.146
1976.47
-210.32
1960.9
-83.0154
1917.31
65.4547
1844.49
212.802
1744.67
337.413
1623.86
425.901
1489.06
469.194
1350.65
465.538
1214
421.419
1094.34
350.367
1007.12
263.706
913.606
159.377
877.059
68.7003
835.143
-4.01308
843.867
-76.3586
860.909
-183.557
938.068
-305.925
1040.33
-454.659
1194.94
-626.297
1359.86
-798.9
1533.33
-943.238
1682.32
-1046.25
1820.47
-1119.34
1946.17
-1179.75
2080.26
-1237.37
2221.94
-1292.76
2377.43
-1340.53
2540.71
-1377.09
2710.16
-1400.16
2881.02
-1410.79
3050.44
-1410.31
3216.9
-1401.17
3377.96
-1385.16
3534.32
-1364.22
3683.91
-1339.7
3828.49
-1312.84
3966.18
-1284.49
4099.17
-1255.36
4225.76
-1225.98
4348.15
-1196.76
4464.74
-1168.02
4577.67
-1139.99
4685.5
-1112.86
4790.15
-1086.75
4890.32
-1061.78
4987.74
-1037.97
5081.28
-1015.42
5172.46
-994.101
5260.27
-974.067
5346.06
-955.279
5428.94
-937.763
5510.11
-921.482
5588.77
-906.457
5666.01
-892.655
5741.11
-880.103
5815.04
-868.787
5887.18
-858.752
5958.41
-850.001
6028.18
-842.624
6097.3
-836.607
6165.29
-832.29
6232.88
-829.058
6299.73
-829.217
-827.897
1300.67
-580.25
1271.1
-555.586
1247.76
-508.202
1224.52
-469.659
1214.7
-436.818
1197.24
-412.63
1194.07
-386.167
1184.68
-365.188
1188.52
-341.871
1188.8
-322.764
1198.92
-299.83
1203.64
-276.763
1211.87
-250.252
1214
-223.066
1213.56
-194.394
1213.51
-166.423
1209.55
-143.44
1208.93
-125.681
1208.34
-120.148
1216.51
-124.868
1229.73
-143.855
1254.79
-173.236
1286.55
-214.578
1330.07
-262.588
1377.79
-317.933
1437.19
-376.794
1497.87
-435.632
1564.55
-487.823
1631.07
-528.457
1696.39
-553.569
1758.1
-557.6
1815.19
-537.455
1865.68
-496.61
1909.82
-443.634
1946.09
-387.269
1973.73
-318.421
1985.92
-217.852
1976.46
-69.5274
1941.77
102.555
1879.35
275.576
1789.89
425.734
1677.57
536.472
1548.32
596.021
1411.99
600.792
1275.01
555.857
1153.34
473.831
1063.29
366.457
970.66
238.82
931.344
119.298
895.917
16.916
918.747
-92.0611
956.585
-234.377
1049.57
-393.755
1163.01
-577.733
1313.8
-776.127
1458.77
-953.134
1597.28
-1082.28
1708.05
-1165.11
1816.47
-1229.73
1928.32
-1298.59
2063.14
-1374.98
2214.72
-1450.04
2382.71
-1512.33
2557.13
-1556.6
2734.2
-1581.62
2908.97
-1590.11
3079.02
-1585.04
3243.67
-1569.93
3401.25
-1547.39
3553.1
-1519.77
3697.65
-1488.67
3836.97
-1455.46
3969.43
-1421.05
4097.31
-1386.18
4219
-1351.39
4336.71
-1317.07
4448.88
-1283.55
4557.59
-1251.02
4661.42
-1219.67
4762.24
-1189.61
4858.76
-1160.93
4952.67
-1133.68
5042.84
-1107.89
5130.74
-1083.56
5215.37
-1060.71
5298.07
-1039.31
5377.93
-1019.35
5456.15
-1000.8
5531.91
-983.674
5606.28
-967.93
5678.56
-953.581
5749.7
-940.62
5819.06
-929.078
5887.53
-918.968
5954.55
-910.367
6020.93
-903.275
6086.16
-898.019
6150.95
-893.995
6214.99
-893.496
-891.446
1107.16
-560.405
1090.26
-540.043
1081.4
-498.393
1073.02
-464.833
1079.08
-435.214
1075.82
-414.306
1086.67
-390.098
1089.24
-371.281
1104.13
-349.483
1113.61
-331.237
1131.76
-308.574
1142.89
-284.531
1156.56
-256.435
1163.27
-226.197
1167.09
-195.227
1171.56
-165.291
1172.79
-142.067
1178.3
-125.745
1185.05
-124.91
1201.17
-136.718
1222.56
-164.445
1254.82
-203.126
1292.36
-253.138
1339.3
-308.586
1388.32
-369.918
1446.72
-433.967
1505.01
-496.251
1568.29
-551.125
1631.13
-593.037
1693.01
-617.619
1751.82
-619.13
1806.65
-594.679
1855.46
-548.349
1898.59
-489.124
1934.8
-426.246
1963.72
-348.879
1978.9
-234.589
1974.57
-65.5813
1947.39
129.968
1894.72
328.78
1816.49
505.211
1715.39
639.808
1596.01
717.649
1467.23
732.45
1335.79
688.271
1218.06
596.824
1130.7
468.42
1043.52
314.379
1006.97
165.316
981.362
29.5694
1013.95
-116.902
1061.5
-291.778
1156.9
-483.486
1266.78
-695.773
1400.43
-908.238
1515.15
-1076.43
1616.99
-1184.01
1698.37
-1253.98
1793.87
-1326.84
1909.34
-1420.46
2056.49
-1524.35
2221.5
-1619.73
2399.09
-1692.46
2578.31
-1739.24
2755.87
-1761.66
2928.27
-1764.86
3094.21
-1753.25
3253.94
-1731.28
3406.38
-1701.86
3553.15
-1667.6
3692.89
-1630.15
3827.67
-1590.91
3955.89
-1550.79
4079.78
-1510.52
4197.73
-1470.61
4311.86
-1431.48
4420.62
-1393.42
4526.04
-1356.62
4626.7
-1321.27
4724.42
-1287.44
4817.92
-1255.26
4908.87
-1224.71
4996.14
-1195.86
5081.19
-1168.66
5163.02
-1143.16
5242.94
-1119.27
5320.07
-1097.01
5395.58
-1076.32
5468.66
-1057.22
5540.39
-1039.64
5610.03
-1023.61
5678.55
-1009.11
5745.3
-996.163
5811.17
-984.778
5875.59
-975.044
5939.35
-966.945
6001.95
-960.817
6064.09
-956.037
6125.47
-954.958
-952.18
986.054
-556.858
987.388
-538.703
994.57
-500.486
999.858
-469.992
1018.32
-442.146
1025.03
-422.065
1044.44
-398.845
1053.57
-380.447
1073.74
-359.155
1087.08
-340.816
1108.09
-317.802
1121.05
-292.444
1135.99
-262.774
1143.67
-230.842
1148.63
-198.405
1154.78
-167.928
1158.6
-145.899
1167.56
-133.482
1178.67
-138.417
1199.27
-158.047
1224.95
-194.13
1260.29
-241.28
1299.52
-298.315
1346.2
-359.559
1393.39
-424.581
1448.42
-490.948
1502.54
-554.628
1561.26
-610.241
1619.65
-652.202
1677.57
-675.842
1733.14
-674.203
1785.47
-644.745
1832.42
-592.353
1874.4
-526.626
1910.4
-457.7
1940.36
-372.824
1958.17
-246.986
1958.28
-61.0702
1937.52
153.636
1893.41
373.61
1825.78
572.052
1736.38
727.632
1628.66
823.089
1510.32
849.728
1387.83
808.489
1277.12
708.899
1194.67
561.816
1113.2
384.56
1082.22
206.126
1066.22
34.2023
1103.43
-147.821
1152.35
-350.765
1242.74
-569.282
1340.82
-802.022
1450.54
-1017.35
1532.91
-1168.03
1604.84
-1256.58
1670.98
-1327.91
1768.71
-1426.32
1897.08
-1555.16
2057.86
-1687.75
2232.16
-1799.24
2413.41
-1877.37
2592.2
-1922.84
2766.82
-1940.57
2935.16
-1937.61
3096.7
-1919.39
3252.08
-1890.72
3400.38
-1854.78
3543.23
-1814.16
3679.27
-1770.6
3810.49
-1725.48
3935.3
-1679.74
4055.85
-1634.09
4170.56
-1589.08
4281.5
-1545.11
4387.14
-1502.47
4489.47
-1461.36
4587.11
-1421.95
4681.86
-1384.31
4772.44
-1348.55
4860.51
-1314.66
4944.94
-1282.67
5027.2
-1252.55
5106.28
-1224.31
5183.49
-1197.88
5257.95
-1173.25
5330.82
-1150.36
5401.29
-1129.2
5470.43
-1109.73
5537.51
-1091.94
5603.49
-1075.82
5667.72
-1061.39
5731.06
-1048.65
5792.96
-1037.69
5854.2
-1028.5
5914.26
-1021.4
5973.83
-1015.76
6032.64
-1014.01
-1010.33
933.54
-573.391
948.781
-555.673
966.494
-517.585
979.222
-487.057
1003.22
-458.934
1013.89
-438.257
1036.12
-414.707
1047.16
-395.517
1068.52
-373.831
1082.53
-354.268
1103.71
-330.042
1116.45
-302.265
1130.99
-270.139
1138.3
-234.739
1143.21
-200.295
1149.81
-168.947
1154.85
-148.087
1165.51
-138.672
1178.81
-149.308
1201.38
-176.176
1228.6
-219.983
1264.37
-274.307
1302.9
-337.192
1347.42
-402.661
1391.35
-470.804
1442.08
-540.137
1491.43
-606.003
1545.23
-663.951
1598.98
-707.734
1652.83
-731.983
1705.03
-729.437
1754.7
-697.222
1799.62
-640.791
1840.33
-570.356
1876.1
-496.97
1907.22
-406.278
1927.8
-269.925
1931.82
-66.0764
1916.25
169.048
1879.05
411.116
1820.35
632
1741.61
808.691
1645.54
921.648
1538.67
959.683
1426.79
921.811
1325.08
815.849
1249.48
651.188
1175.23
448.335
1151
238.246
1141.21
32.4894
1177.13
-177.7
1221.72
-404.158
1302.56
-645.209
1383.98
-890.988
1467.69
-1099.54
1521.21
-1230.07
1573.34
-1308.58
1636.86
-1398.63
1745.62
-1536.57
1888.9
-1704.2
2060.52
-1861.33
2240.08
-1982.85
2422
-2061.45
2598.96
-2102.68
2770.47
-2114.13
2935.28
-2104.32
3093.15
-2079.13
3244.89
-2043.67
3389.57
-2001.11
3528.85
-1954.16
3661.35
-1904.51
3789.08
-1853.58
3910.45
-1802.32
4027.62
-1751.44
4139.02
-1701.49
4246.72
-1652.85
4349.21
-1605.83
4448.45
-1560.59
4543.08
-1517.31
4634.87
-1476.05
4722.58
-1436.91
4807.83
-1399.84
4889.51
-1364.91
4969.07
-1332.03
5045.5
-1301.23
5120.1
-1272.41
5192
-1245.57
5262.33
-1220.62
5330.31
-1197.56
5396.98
-1176.31
5461.61
-1156.9
5525.16
-1139.27
5586.97
-1123.47
5647.9
-1109.49
5707.39
-1097.4
5766.21
-1087.2
5823.84
-1079.21
5880.96
-1072.77
5937.3
-1070.43
-1065.87
921.555
-590.608
942.421
-573.276
963.885
-533.646
978.512
-501.341
1003.32
-472.192
1014.47
-450.19
1036.77
-426.315
1047.84
-406.39
1068.99
-384.423
1082.75
-364.068
1103.48
-338.882
1115.64
-309.346
1129.57
-275.448
1136.39
-238.547
1141.11
-203.289
1147.84
-172.279
1153.52
-153.801
1164.95
-149.195
1179.24
-166.054
1202.36
-200.343
1229.68
-251.42
1264.55
-312.364
1301.28
-380.068
1342.83
-448.961
1382.91
-518.712
1429.03
-588.648
1473.4
-655.028
1522.19
-713.491
1571.21
-757.855
1620.89
-782.247
1669.56
-777.898
1716.42
-741.94
1759.16
-680.695
1798.42
-605.085
1833.68
-527.574
1865.62
-431.932
1888.77
-287.195
1896.52
-68.7849
1885.69
183.192
1854.33
443.563
1803.01
682.984
1733.3
877.206
1647.62
1005.5
1551.67
1055.05
1450.34
1021.5
1357.67
910.217
1288.8
730.91
1220.31
506.712
1201.43
266.896
1194.56
29.8201
1227
-204.101
1265.45
-451.364
1335.11
-710.684
1398.24
-962.238
1457.43
-1158.51
1487.84
-1270.17
1529.65
-1350.93
1599.92
-1476.12
1724.52
-1662.67
1882.74
-1868.14
2063.19
-2044.32
2246.15
-2170.7
2427.71
-2246.65
2602.47
-2282.05
2770.74
-2286.69
2931.92
-2269.83
3085.93
-2237.75
3233.77
-2195.55
3374.55
-2146.53
3509.98
-2093.33
3638.74
-2037.72
3762.82
-1981.08
3880.7
-1924.38
3994.48
-1868.32
4102.62
-1813.46
4207.17
-1760.17
4306.62
-1708.76
4402.91
-1659.38
4494.69
-1612.2
4583.7
-1567.28
4668.71
-1524.69
4751.3
-1484.4
4830.39
-1446.44
4907.4
-1410.74
4981.33
-1377.3
5053.47
-1346.02
5122.94
-1316.87
5190.88
-1289.78
5256.49
-1264.72
5320.8
-1241.63
5383.11
-1220.49
5444.33
-1201.28
5503.84
-1184.01
5562.46
-1168.68
5619.65
-1155.36
5676.15
-1144.04
5731.46
-1135.05
5786.21
-1127.7
5840.19
-1124.65
-1119.05
920.923
-615.345
942.487
-596.688
964.212
-555.475
978.851
-520.694
1003.39
-490.214
1014.51
-467.019
1036.58
-442.577
1047.59
-421.654
1068.53
-399.168
1082.12
-377.372
1102.54
-350.715
1114.32
-318.547
1127.88
-282.054
1134.43
-241.819
1139.06
-204.852
1145.85
-173.584
1151.85
-156.786
1163.53
-155.535
1178.06
-177.961
1200.96
-218.841
1227.62
-276.457
1261
-342.905
1295.48
-414.581
1333.83
-485.725
1369.97
-556.897
1411.46
-628.499
1450.85
-696.408
1494.61
-757.187
1538.82
-804.051
1584.25
-830.198
1629.25
-826.38
1673.08
-789.06
1713.38
-725.169
1750.97
-646.363
1785.65
-566.51
1818.45
-467.852
1844.19
-315.97
1855.28
-81.3049
1848.46
189.619
1821.85
470.385
1776.35
729.847
1713.86
942.183
1636.83
1085.29
1550.41
1144.86
1458.66
1115.08
1374.55
999.862
1312.38
806.853
1249.75
558.797
1235.19
288.293
1228.24
25.2922
1255.16
-226.023
1286.05
-490.886
1343.43
-763.33
1388.31
-1014.56
1425.36
-1193.83
1437.96
-1291.45
1478.06
-1390.91
1563.24
-1568.06
1707.34
-1808.16
1880.16
-2046.11
2067.56
-2233.45
2252.03
-2358.67
2431.78
-2428.25
2603.2
-2455.86
2767.36
-2452.57
2924.24
-2428.19
3073.93
-2388.95
3217.57
-2340.03
3354.32
-2284.59
3485.92
-2225.33
3611.05
-2163.93
3731.68
-2101.81
3846.28
-2039.9
3956.92
-1978.89
4062.07
-1919.36
4163.72
-1861.64
4260.37
-1806.07
4353.95
-1752.74
4443.08
-1701.87
4529.49
-1653.47
4611.96
-1607.63
4692.07
-1564.29
4768.71
-1523.49
4843.3
-1485.13
4914.86
-1449.22
4984.65
-1415.63
5051.8
-1384.35
5117.44
-1355.25
5180.77
-1328.35
5242.83
-1303.53
5302.89
-1280.81
5361.88
-1260.12
5419.16
-1241.51
5475.56
-1224.93
5530.51
-1210.5
5584.77
-1198.15
5637.83
-1188.25
5690.31
-1180.06
5741.99
-1176.39
-1169.8
919.681
-634.865
941.391
-614.668
963.292
-571.777
978.031
-534.861
1002.41
-503.112
1013.51
-478.544
1035.37
-453.686
1046.3
-432.038
1067.01
-409.155
1080.42
-386.524
1100.57
-358.744
1112.05
-324.82
1125.33
-286.597
1131.67
-245.117
1136.27
-207.707
1143.03
-177.069
1149.14
-162.981
1160.7
-166.564
1175.04
-194.998
1197.3
-242.645
1222.94
-306.593
1254.57
-378.344
1286.64
-453.347
1321.7
-526.299
1353.81
-597.562
1390.65
-668.423
1424.98
-736.063
1463.62
-797.103
1502.92
-844.972
1543.92
-872.208
1585.07
-867.74
1625.68
-827.76
1663.34
-760.159
1699.01
-677.461
1732.78
-595.506
1765.99
-494.422
1794.03
-337.411
1808.39
-89.9459
1805.47
196.496
1783.13
494.371
1742.43
770.782
1685.59
998.294
1615.3
1154.25
1536.52
1223.57
1452.64
1197.93
1375.44
1079.37
1318.4
875.491
1259.2
608.44
1247
310.901
1238.77
24.7765
1260.72
-241.929
1284.31
-522.647
1330.09
-805.479