/*--------------------------------*- C++ -*----------------------------------*\
| =========                 |                                                 |
| \\      /  F ield         | OpenFOAM: The Open Source CFD Toolbox           |
|  \\    /   O peration     | Version:  4.1                                   |
|   \\  /    A nd           | Web:      www.OpenFOAM.org                      |
|    \\/     M anipulation  |                                                 |
\*---------------------------------------------------------------------------*/
FoamFile
{
    version     2.0;
    format      ascii;
    class       volVectorField;
    location    "23";
    object      U;
}
// * * * * * * * * * * * * * * * * * * * * * * * * * * * * * * * * * * * * * //

dimensions      [0 1 -1 0 0 0 0];

internalField   nonuniform List<vector> 
26785
(
(-6.52292e-16 -0.00289176 14.6546)
(-7.32628e-16 -0.000980259 14.6919)
(-5.74833e-16 -0.00106722 14.7149)
(-1.68132e-15 -0.000625008 14.7341)
(-2.53077e-15 9.32218e-05 14.7583)
(-6.25936e-15 4.34666e-05 14.7714)
(-3.87448e-16 0.000409826 14.7788)
(-2.77523e-15 0.000490493 14.7889)
(-5.90699e-16 0.00071611 14.7966)
(3.60069e-15 0.000775284 14.809)
(-2.64008e-15 0.000842877 14.8215)
(-2.72717e-15 0.000839735 14.8375)
(-2.34868e-15 0.000674178 14.8509)
(-2.35247e-15 0.000533002 14.8654)
(-2.38222e-15 0.00015124 14.8787)
(-2.48826e-15 -0.000107044 14.8982)
(-2.3794e-15 -0.000546619 14.9221)
(-2.04788e-15 -0.000753756 14.951)
(-1.19485e-15 -0.00116172 14.983)
(-5.54005e-15 -0.00134741 15.0178)
(-5.37667e-15 -0.00164831 15.0545)
(-2.64627e-15 -0.00175741 15.0921)
(-3.92477e-15 -0.00200352 15.1304)
(-3.66978e-15 -0.00215845 15.1696)
(-4.37553e-15 -0.00249752 15.21)
(-4.47404e-15 -0.00284498 15.2551)
(-4.5174e-15 -0.00323021 15.3066)
(-3.17141e-15 -0.00347258 15.3609)
(-3.41235e-15 -0.00354469 15.4178)
(-8.23307e-15 -0.00327025 15.4712)
(-7.12602e-15 -0.00271806 15.5191)
(-3.40172e-16 -0.00182776 15.5589)
(-9.44551e-15 -0.000735672 15.5883)
(-6.07059e-15 0.000563789 15.6055)
(-6.25682e-15 0.00204033 15.6093)
(-6.52742e-15 0.0038126 15.598)
(-6.97214e-15 0.00592383 15.5691)
(-6.74785e-15 0.00834314 15.5194)
(-6.63974e-15 0.0107651 15.4486)
(-6.77088e-15 0.0128127 15.3589)
(-4.6394e-15 0.0140914 15.2561)
(-4.75249e-15 0.0144113 15.1489)
(-6.10171e-15 0.0137794 15.0461)
(-1.50077e-14 0.0123674 14.9546)
(-2.58489e-15 0.0104907 14.8786)
(-2.0043e-14 0.00832179 14.8193)
(-7.75284e-15 0.00594827 14.7839)
(-6.70271e-15 0.00452488 14.7615)
(-6.41383e-15 0.00256442 14.7496)
(-9.94404e-15 0.00154484 14.7485)
(-1.46613e-14 -6.14418e-06 14.7571)
(-3.31675e-16 -0.000846523 14.7739)
(-3.40162e-15 -0.00235167 14.7988)
(-3.98037e-15 -0.00334998 14.8317)
(-4.01871e-15 -0.00524938 14.873)
(-4.19864e-15 -0.00701319 14.9252)
(-1.66719e-14 -0.00960334 14.9912)
(-6.23724e-15 -0.0120065 15.0731)
(-6.58661e-15 -0.0147497 15.1701)
(-7.75875e-15 -0.0171263 15.2818)
(-6.34181e-15 -0.019415 15.4059)
(-6.79748e-15 -0.0212148 15.5409)
(-7.39344e-15 -0.0227059 15.6831)
(-8.28266e-15 -0.0237394 15.8305)
(-8.53923e-15 -0.024439 15.98)
(-8.5806e-15 -0.0247974 16.1304)
(-8.52543e-15 -0.0248978 16.2791)
(-8.41674e-15 -0.0247806 16.4254)
(-8.65683e-15 -0.0244902 16.5679)
(-8.45387e-15 -0.0240699 16.7061)
(-8.74481e-15 -0.0235432 16.8391)
(-8.78762e-15 -0.0229451 16.9668)
(-9.13312e-15 -0.0222926 17.0888)
(-9.05636e-15 -0.021606 17.205)
(-9.76473e-15 -0.0209007 17.3153)
(-1.12586e-14 -0.0201857 17.4199)
(-6.58437e-15 -0.0194788 17.5188)
(-7.41642e-15 -0.0187774 17.6121)
(-7.36215e-15 -0.0181005 17.7)
(-7.37149e-15 -0.017438 17.7827)
(-6.98875e-15 -0.0168117 17.8605)
(-7.14158e-15 -0.0162044 17.9335)
(-7.45278e-15 -0.015639 18.0021)
(-7.7271e-15 -0.0150942 18.0664)
(-6.8835e-15 -0.0145949 18.1268)
(-6.46618e-15 -0.0141162 18.1833)
(-6.82481e-15 -0.0136837 18.2364)
(-7.0477e-15 -0.0132713 18.2863)
(-7.91183e-15 -0.0129057 18.3331)
(-5.94223e-15 -0.0125597 18.3771)
(-6.32414e-15 -0.0122605 18.4185)
(-6.25474e-15 -0.0119809 18.4576)
(-6.16293e-15 -0.0117498 18.4946)
(-6.10641e-15 -0.0115363 18.5296)
(-6.11887e-15 -0.011383 18.5629)
(-5.88849e-15 -0.0112098 18.5948)
(-5.75503e-15 -0.0112216 18.625)
(-5.82187e-15 -0.0108202 18.6557)
(-5.77716e-15 -0.0120979 18.6797)
(-5.69125e-15 -0.0109687 18.7248)
(6.20691e-17 -0.00563394 15.7434)
(6.99342e-15 -0.000116325 15.8133)
(-2.20461e-15 0.000198247 15.8686)
(-2.92813e-15 0.00177362 15.9189)
(4.64833e-16 0.00325204 15.9791)
(-4.80422e-15 0.00306741 16.0288)
(8.59197e-16 0.00353777 16.072)
(4.0013e-16 0.00384568 16.1184)
(-1.08041e-16 0.00421597 16.1616)
(-4.8665e-16 0.00441671 16.2104)
(-5.81019e-16 0.00441249 16.2597)
(-5.64507e-16 0.00439359 16.3134)
(-6.44073e-16 0.0037753 16.3648)
(8.10693e-16 0.00319862 16.418)
(9.20263e-15 0.00193735 16.47)
(-3.92396e-15 0.000943667 16.529)
(1.16154e-15 -0.000412101 16.5923)
(1.86752e-15 -0.00132204 16.6602)
(-1.07983e-16 -0.00256675 16.7309)
(8.63402e-15 -0.00339709 16.8039)
(-7.06886e-15 -0.00432297 16.8781)
(7.71706e-16 -0.00493974 16.9527)
(-5.81127e-15 -0.00578699 17.0278)
(4.04629e-15 -0.0066259 17.1035)
(2.06825e-15 -0.00778176 17.1801)
(1.11282e-15 -0.00904954 17.2603)
(6.20994e-16 -0.0101511 17.3451)
(4.45502e-16 -0.0108387 17.43)
(1.41506e-15 -0.0108075 17.5144)
(1.21149e-16 -0.00976023 17.5915)
(-6.23811e-16 -0.0077812 17.6596)
(1.73901e-16 -0.00489811 17.7164)
(4.35996e-16 -0.00141151 17.7603)
(2.7799e-16 0.00262156 17.7896)
(3.3256e-16 0.00723552 17.8035)
(1.11656e-16 0.0126479 17.8005)
(-5.09302e-16 0.0190288 17.7787)
(-4.08451e-16 0.0261763 17.7356)
(-2.23034e-16 0.0332072 17.6715)
(-4.42172e-16 0.0389908 17.5891)
(-3.16594e-15 0.0424451 17.4945)
(3.9015e-15 0.0430991 17.3966)
(5.96878e-15 0.0410381 17.3033)
(1.54632e-14 0.0367863 17.2212)
(4.32717e-15 0.0311628 17.1539)
(3.74575e-15 0.0246589 17.1019)
(1.45653e-15 0.0178621 17.0712)
(3.4713e-15 0.0131805 17.0509)
(1.2452e-14 0.00765289 17.0386)
(-3.77181e-15 0.00429349 17.0341)
(-1.02263e-14 2.73352e-05 17.0361)
(2.86183e-15 -0.00275365 17.0435)
(8.79329e-16 -0.00686431 17.056)
(6.12947e-15 -0.0101201 17.0735)
(5.14085e-15 -0.015391 17.0959)
(-1.8106e-15 -0.0206652 17.125)
(-2.97501e-15 -0.0276898 17.1624)
(-1.74071e-15 -0.0343693 17.2097)
(-1.30608e-15 -0.0415801 17.2654)
(-2.87686e-15 -0.0478529 17.3289)
(-1.7274e-15 -0.0536527 17.3981)
(-1.02835e-14 -0.0581894 17.4716)
(-1.63454e-15 -0.0617917 17.5464)
(-3.82719e-16 -0.0642198 17.6209)
(1.78348e-16 -0.0657137 17.6928)
(6.39825e-16 -0.0663311 17.761)
(1.28391e-15 -0.0662422 17.8239)
(2.45916e-15 -0.0655882 17.8809)
(5.84581e-15 -0.064463 17.9314)
(-1.88367e-15 -0.0629902 17.9751)
(1.43506e-15 -0.0612268 18.0118)
(4.54437e-16 -0.0592659 18.0418)
(-8.46234e-17 -0.0571552 18.0649)
(-5.24375e-17 -0.054943 18.0816)
(-2.88051e-15 -0.0526763 18.092)
(7.27072e-16 -0.050374 18.0965)
(9.43257e-16 -0.0480906 18.0956)
(1.82418e-15 -0.0458125 18.0895)
(5.21953e-17 -0.0435973 18.0787)
(-3.61377e-16 -0.0414144 18.0635)
(7.58783e-16 -0.0393271 18.0444)
(7.84724e-16 -0.0372873 18.0218)
(7.19341e-16 -0.0353589 17.9959)
(1.88998e-15 -0.0334868 17.9672)
(2.36839e-15 -0.0317375 17.936)
(1.11928e-15 -0.0300481 17.9025)
(9.93265e-16 -0.0284849 17.8672)
(1.23111e-15 -0.0269837 17.8303)
(1.22103e-15 -0.0256119 17.7921)
(1.51012e-15 -0.0243035 17.7528)
(1.47147e-15 -0.0231249 17.7127)
(1.26146e-15 -0.0220119 17.672)
(1.31894e-15 -0.0210318 17.631)
(1.10489e-15 -0.0201187 17.5897)
(8.29216e-16 -0.0193471 17.5485)
(7.86325e-16 -0.0186179 17.5074)
(5.42132e-16 -0.018114 17.4671)
(3.44566e-16 -0.017375 17.426)
(3.68163e-16 -0.0180137 17.39)
(2.227e-16 -0.0176195 17.3339)
(-1.28605e-15 -0.0059229 16.9801)
(2.47123e-15 0.00126161 17.0875)
(7.90723e-16 0.0012731 17.187)
(3.99716e-16 0.00408975 17.2837)
(-3.46286e-16 0.00576126 17.3877)
(-6.49126e-17 0.00632244 17.4795)
(4.22321e-15 0.00650546 17.5622)
(2.52264e-15 0.0074158 17.6442)
(1.60392e-15 0.00759698 17.7197)
(2.13451e-15 0.0080369 17.797)
(2.07985e-15 0.00770812 17.8719)
(2.05292e-15 0.00762019 17.9479)
(2.04473e-15 0.00644621 18.0187)
(2.18004e-15 0.00533032 18.0882)
(2.8544e-15 0.00323621 18.1529)
(1.07636e-15 0.00137445 18.2197)
(9.92117e-16 -0.000752246 18.2856)
(-6.37637e-15 -0.00244428 18.3509)
(-3.1244e-15 -0.00436362 18.4133)
(5.46812e-15 -0.00588445 18.4724)
(2.19274e-15 -0.0073226 18.527)
(-2.21156e-15 -0.00848135 18.5762)
(8.2178e-15 -0.00980955 18.6195)
(5.76561e-15 -0.0112344 18.6567)
(3.8119e-15 -0.0129444 18.6873)
(3.52159e-15 -0.0148183 18.7135)
(1.10096e-15 -0.0162401 18.7363)
(9.19684e-16 -0.0169922 18.7525)
(2.51796e-15 -0.0165234 18.7626)
(2.35755e-15 -0.0145457 18.7622)
(2.57786e-15 -0.0111091 18.7514)
(3.95419e-15 -0.00637697 18.7295)
(1.02313e-14 -0.000739309 18.6958)
(8.58161e-16 0.0056298 18.6499)
(8.84747e-16 0.012767 18.5929)
(3.06928e-15 0.0209829 18.526)
(3.0017e-15 0.0306152 18.4489)
(3.05329e-15 0.0414564 18.3594)
(3.18798e-15 0.0521943 18.2564)
(3.3522e-15 0.061112 18.1397)
(3.43174e-15 0.0665265 18.0119)
(3.35422e-15 0.0677399 17.8784)
(3.36101e-15 0.0648343 17.7446)
(3.56562e-15 0.0586835 17.6152)
(3.49586e-15 0.0504059 17.4922)
(3.51377e-15 0.0408969 17.3754)
(3.62984e-15 0.0312205 17.2701)
(3.5104e-15 0.0238277 17.1675)
(3.51333e-15 0.0160246 17.0652)
(3.7171e-15 0.0106747 16.9661)
(3.57328e-15 0.00470448 16.8697)
(3.27122e-15 0.000235424 16.7767)
(3.46901e-15 -0.00517049 16.6856)
(4.30893e-15 -0.00979133 16.595)
(4.01978e-15 -0.016267 16.5013)
(3.01463e-15 -0.0232643 16.4045)
(1.76029e-15 -0.0318867 16.3048)
(-2.01046e-15 -0.0407025 16.2043)
(8.658e-15 -0.0497621 16.1024)
(6.59837e-15 -0.0580769 16.0004)
(6.71142e-15 -0.0653685 15.8977)
(6.77713e-15 -0.0712202 15.795)
(6.50344e-15 -0.0754803 15.6905)
(6.40974e-15 -0.0781726 15.5849)
(5.21489e-15 -0.0793559 15.4769)
(4.77032e-15 -0.079276 15.3674)
(5.36367e-15 -0.0781327 15.2557)
(5.10264e-15 -0.0761199 15.143)
(4.99572e-15 -0.0734874 15.0291)
(4.7495e-15 -0.0702977 14.9152)
(4.01063e-15 -0.0668209 14.8012)
(2.29208e-15 -0.0630205 14.6885)
(5.61022e-15 -0.0591882 14.5768)
(4.52569e-15 -0.0552018 14.4671)
(2.04988e-15 -0.0513424 14.3593)
(2.73068e-15 -0.0474526 14.2543)
(2.27675e-15 -0.0438058 14.1518)
(1.78949e-15 -0.0402108 14.0524)
(1.28626e-15 -0.0369114 13.9558)
(7.58284e-16 -0.0337161 13.8627)
(2.76123e-16 -0.0308491 13.7727)
(3.23497e-16 -0.0281135 13.6862)
(-1.40446e-15 -0.0257049 13.6029)
(-2.39371e-15 -0.0234387 13.5232)
(-2.26595e-15 -0.0214929 13.4468)
(-2.69022e-15 -0.019689 13.3739)
(-3.14793e-15 -0.0181843 13.3044)
(-3.58415e-15 -0.016816 13.2383)
(-3.72241e-15 -0.0157286 13.1756)
(-4.70417e-15 -0.0147698 13.1162)
(-5.36106e-15 -0.0140704 13.0602)
(-5.30833e-15 -0.0134945 13.0075)
(-5.74212e-15 -0.0131609 12.9581)
(-6.34063e-15 -0.0129552 12.9119)
(-6.73741e-15 -0.0129546 12.869)
(-6.9628e-15 -0.0131527 12.8293)
(-7.30598e-15 -0.0132966 12.7931)
(-7.63447e-15 -0.0143717 12.7589)
(-7.93647e-15 -0.0126055 12.7316)
(-8.36823e-15 -0.0182419 12.6901)
(-7.11193e-17 -0.00365285 18.1881)
(-5.37693e-15 0.00305196 18.3148)
(-4.97171e-15 0.00251358 18.4333)
(1.45887e-15 0.00622276 18.5431)
(2.16123e-15 0.00823124 18.6501)
(3.86581e-15 0.00944717 18.7364)
(4.57715e-15 0.00970773 18.8055)
(1.41357e-15 0.0112001 18.8658)
(1.26447e-15 0.0114483 18.913)
(2.64602e-15 0.0121211 18.9552)
(2.42833e-15 0.0116563 18.9884)
(2.67317e-15 0.0115048 19.0154)
(2.57672e-15 0.00995542 19.0297)
(3.70182e-15 0.00838815 19.0338)
(4.17023e-15 0.00574732 19.0238)
(4.29383e-15 0.00328158 19.0054)
(3.89035e-15 0.000709804 18.9756)
(-2.87548e-15 -0.00144032 18.9348)
(4.18576e-15 -0.0037074 18.8811)
(4.04589e-15 -0.00555067 18.8146)
(3.14243e-15 -0.00715648 18.7345)
(4.06141e-15 -0.00838099 18.6399)
(5.42535e-15 -0.00971525 18.5306)
(5.04839e-15 -0.0110692 18.4062)
(4.52909e-15 -0.0127389 18.2662)
(4.62996e-15 -0.0145751 18.1141)
(4.7506e-15 -0.0159921 17.9528)
(5.04591e-15 -0.0166751 17.7821)
(4.99055e-15 -0.016121 17.6057)
(4.85106e-15 -0.0139219 17.4227)
(5.3898e-15 -0.0101234 17.2369)
(6.10791e-15 -0.00477494 17.0497)
(6.34892e-15 0.00164025 16.8604)
(6.64135e-15 0.00871845 16.6682)
(4.79033e-15 0.0162165 16.4758)
(6.58827e-15 0.0245381 16.288)
(6.18186e-15 0.0345025 16.1072)
(4.54544e-15 0.0464067 15.9306)
(5.91066e-15 0.0589121 15.7536)
(5.43093e-15 0.0699353 15.5704)
(5.60256e-15 0.0771837 15.3782)
(5.47815e-15 0.079576 15.1778)
(3.01162e-15 0.0769794 14.972)
(-5.58948e-15 0.0705465 14.7641)
(6.47283e-15 0.0614923 14.5555)
(3.10425e-15 0.0512088 14.3454)
(6.75737e-15 0.0410755 14.1414)
(1.83598e-14 0.0325232 13.9328)
(4.0664e-15 0.024338 13.7178)
(-9.34737e-15 0.0177781 13.5023)
(2.762e-15 0.0109363 13.2885)
(-1.71443e-16 0.00475773 13.0806)
(-1.87442e-15 -0.00111518 12.8793)
(-6.44195e-15 -0.00620729 12.6822)
(8.42366e-15 -0.0117212 12.4839)
(6.94737e-15 -0.0182299 12.282)
(8.35948e-15 -0.0255792 12.0767)
(-1.41937e-14 -0.0342588 11.8691)
(9.16752e-16 -0.0427614 11.6594)
(-8.57678e-15 -0.051351 11.4497)
(3.36798e-15 -0.0582549 11.2419)
(-6.82133e-15 -0.06406 11.0405)
(8.764e-15 -0.0676809 10.847)
(4.49593e-15 -0.0698584 10.6663)
(3.58614e-15 -0.0703413 10.4993)
(4.7774e-15 -0.0698166 10.35)
(3.3626e-15 -0.0685291 10.2179)
(1.37901e-16 -0.0667248 10.1055)
(-1.35586e-15 -0.0648542 10.0116)
(2.00753e-16 -0.0627604 9.93683)
(7.32095e-15 -0.060926 9.87948)
(-1.00857e-14 -0.0589608 9.83938)
(-1.77672e-15 -0.0573681 9.81431)
(-6.05455e-15 -0.0556546 9.80327)
(-1.7425e-14 -0.0542827 9.80422)
(-8.81456e-15 -0.052782 9.81603)
(-9.87559e-15 -0.0515901 9.83675)
(-1.00772e-14 -0.0502733 9.86514)
(-1.06102e-14 -0.0492107 9.89972)
(-1.10353e-14 -0.0480426 9.93948)
(-1.15472e-14 -0.0471076 9.98323)
(-1.21182e-14 -0.0460947 10.0301)
(-1.19413e-14 -0.0452887 10.0793)
(-8.24565e-15 -0.0444347 10.1301)
(-1.49769e-14 -0.0437804 10.1821)
(-1.47555e-14 -0.0431058 10.2347)
(-1.51191e-14 -0.042619 10.2876)
(-1.53937e-14 -0.0421373 10.3406)
(-1.58034e-14 -0.0418421 10.3933)
(-1.80503e-14 -0.0415756 10.4455)
(-1.47466e-14 -0.0414936 10.4973)
(-1.56145e-14 -0.0414662 10.5485)
(-1.62686e-14 -0.0416276 10.5992)
(-1.64467e-14 -0.0418805 10.6492)
(-1.69136e-14 -0.0423029 10.6986)
(-1.65703e-14 -0.0429289 10.7477)
(-1.66825e-14 -0.0434541 10.7959)
(-1.65002e-14 -0.0449655 10.8462)
(-1.71692e-14 -0.043099 10.8868)
(-1.73283e-14 -0.0494662 10.9605)
(2.7571e-16 0.000429764 19.1735)
(-4.42854e-15 0.00543477 19.2668)
(4.62426e-16 0.00461095 19.3314)
(1.28419e-15 0.00926931 19.3721)
(2.85108e-15 0.0117841 19.3982)
(2.58907e-15 0.0136256 19.3954)
(7.59814e-15 0.0141208 19.3692)
(2.50248e-15 0.0160158 19.3282)
(2.68081e-15 0.0163595 19.2682)
(3.22726e-15 0.0171145 19.196)
(3.17494e-15 0.0166189 19.1062)
(-7.15441e-17 0.0164457 18.9998)
(4.20984e-15 0.0148405 18.8686)
(5.00187e-15 0.0132096 18.7141)
(5.3215e-15 0.0105601 18.5317)
(1.25704e-14 0.00812908 18.3274)
(4.06693e-15 0.00561876 18.0997)
(3.70471e-15 0.00360204 17.8511)
(3.11884e-15 0.0013362 17.5815)
(3.28726e-15 -0.00036609 17.2935)
(3.15046e-15 -0.00194581 16.988)
(3.58807e-15 -0.00285763 16.6663)
(3.50147e-15 -0.00402032 16.3289)
(3.84942e-15 -0.0048362 15.977)
(4.22489e-15 -0.00629375 15.6102)
(4.33317e-15 -0.00778656 15.2343)
(3.067e-15 -0.00955013 14.8555)
(6.65606e-15 -0.0106853 14.4767)
(6.48732e-15 -0.0112553 14.1052)
(4.06914e-15 -0.0106006 13.7437)
(4.50993e-15 -0.00875963 13.4007)
(4.02736e-15 -0.00509 13.0797)
(1.91273e-15 9.32508e-05 12.7764)
(6.17584e-15 0.00606361 12.4845)
(5.6743e-15 0.0116004 12.205)
(2.88487e-15 0.0170805 11.945)
(3.68314e-15 0.0241146 11.7086)
(3.68217e-15 0.0343268 11.4914)
(3.3649e-15 0.0467952 11.2846)
(3.23093e-15 0.0593114 11.0773)
(3.51213e-15 0.0687822 10.8621)
(3.74143e-15 0.0734123 10.6375)
(-1.63868e-14 0.0723469 10.4052)
(2.6579e-16 0.0669377 10.1698)
(-7.91435e-16 0.0583317 9.93471)
(-1.46524e-15 0.0485702 9.69994)
(-2.11051e-15 0.0401099 9.48005)
(-2.74278e-15 0.0313733 9.25367)
(3.60561e-16 0.0251931 9.01917)
(1.25375e-14 0.0182912 8.78047)
(-1.31741e-14 0.0115828 8.54438)
(-6.44176e-15 0.00242687 8.31759)
(-5.88329e-15 -0.00461981 8.10938)
(-1.28923e-14 -0.0120524 7.91863)
(-1.26515e-14 -0.0171046 7.74224)
(1.12222e-14 -0.0241462 7.57456)
(-6.59221e-15 -0.029952 7.41419)
(-2.67148e-15 -0.0384213 7.25958)
(8.71531e-15 -0.0453376 7.11051)
(-1.06091e-14 -0.0536122 6.97444)
(-8.27347e-15 -0.0602956 6.86048)
(1.53083e-14 -0.0682745 6.78234)
(-1.54915e-15 -0.075667 6.74579)
(-1.45039e-15 -0.083769 6.75711)
(-2.2855e-17 -0.0912863 6.81355)
(-2.3718e-15 -0.0985559 6.91212)
(-1.98893e-15 -0.105013 7.04447)
(-7.77109e-15 -0.110529 7.20405)
(-1.08639e-14 -0.115151 7.38254)
(-1.22709e-14 -0.118617 7.57371)
(-1.18344e-14 -0.121238 7.77159)
(-1.09272e-14 -0.122733 7.97197)
(-1.23211e-14 -0.123526 8.17111)
(-1.62956e-14 -0.123352 8.36634)
(-1.97466e-14 -0.12262 8.55583)
(-1.81994e-14 -0.12113 8.73829)
(-1.39419e-14 -0.119263 8.9129)
(-2.15061e-14 -0.116853 9.07903)
(-1.959e-14 -0.114217 9.23665)
(-1.60564e-14 -0.111235 9.38569)
(-1.6126e-14 -0.108176 9.52638)
(-2.41128e-14 -0.104934 9.65885)
(-1.65731e-14 -0.101723 9.78354)
(-1.20294e-14 -0.0984578 9.90079)
(-2.12122e-14 -0.0953119 10.011)
(-1.76389e-14 -0.092206 10.1146)
(-1.77358e-14 -0.0892767 10.2121)
(-1.7564e-14 -0.0864565 10.3037)
(-1.72081e-14 -0.0838581 10.3901)
(-1.50611e-14 -0.0814201 10.4714)
(-1.79628e-14 -0.0792352 10.5482)
(-1.75384e-14 -0.0772539 10.6208)
(-1.76003e-14 -0.0755554 10.6897)
(-1.76194e-14 -0.0741044 10.7551)
(-1.74354e-14 -0.0729553 10.8174)
(-1.63762e-14 -0.0721153 10.8772)
(-1.8204e-14 -0.0715269 10.9338)
(-1.73789e-14 -0.0713901 10.9914)
(-1.7377e-14 -0.0706711 11.0364)
(-1.72735e-14 -0.0731111 11.1164)
(8.39939e-16 0.00510414 19.6842)
(1.27848e-15 0.00897519 19.6388)
(1.05832e-15 0.00910996 19.5551)
(2.42118e-15 0.0147311 19.4485)
(3.72595e-15 0.0174673 19.3293)
(3.01321e-15 0.0193308 19.181)
(-1.48193e-15 0.0196786 19.0056)
(4.56078e-15 0.0214653 18.8086)
(5.19457e-15 0.0217852 18.5834)
(4.19841e-15 0.022596 18.3352)
(3.59324e-15 0.0224802 18.0573)
(3.9581e-15 0.0228219 17.7503)
(3.63657e-15 0.0220721 17.4062)
(3.61881e-15 0.0212901 17.0281)
(3.37256e-15 0.0197127 16.6128)
(2.08961e-15 0.0182484 16.1707)
(3.19137e-15 0.016533 15.7031)
(2.25993e-15 0.0151527 15.2177)
(-4.66675e-16 0.0130938 14.7162)
(3.74446e-15 0.011583 14.2059)
(4.90379e-15 0.00975674 13.6887)
(2.47966e-15 0.00888216 13.1697)
(-6.6747e-15 0.00741919 12.6496)
(-5.23978e-15 0.00693151 12.1313)
(5.13681e-15 0.00527841 11.614)
(4.73259e-15 0.00383081 11.1071)
(3.16833e-15 0.00073647 10.6209)
(3.47844e-15 -0.00204707 10.1614)
(6.34068e-15 -0.00564882 9.73864)
(4.00897e-15 -0.00913302 9.35562)
(1.50161e-15 -0.0123777 9.02264)
(6.65392e-17 -0.0130892 8.74006)
(-1.46423e-16 -0.0106848 8.49402)
(-1.052e-15 -0.00627388 8.26795)
(-3.86972e-15 -0.00301137 8.05698)
(-7.2637e-15 -0.000940238 7.86543)
(9.21777e-15 0.00252986 7.69369)
(4.5093e-15 0.0111326 7.53202)
(2.96856e-15 0.0244492 7.36838)
(3.33197e-16 0.0399235 7.19143)
(8.64444e-15 0.0532186 6.99671)
(2.98872e-14 0.06157 6.78749)
(-7.64565e-15 0.062899 6.56978)
(-1.08517e-14 0.058544 6.35297)
(-1.20202e-14 0.0494833 6.14519)
(-1.21123e-14 0.0388725 5.94947)
(-1.12498e-14 0.0314211 5.78966)
(-1.10549e-14 0.022026 5.63244)
(-1.14913e-14 0.0192873 5.47009)
(-9.15197e-15 0.0131047 5.30543)
(-7.15125e-15 0.0072093 5.14377)
(-4.26512e-15 -0.00642527 4.99679)
(-1.47149e-15 -0.01712 4.87704)
(1.78287e-15 -0.0306266 4.78774)
(5.2804e-15 -0.0385903 4.72047)
(8.9193e-15 -0.0487536 4.66672)
(1.24774e-14 -0.0537803 4.62024)
(1.62517e-14 -0.062375 4.59037)
(1.32941e-14 -0.0704147 4.59232)
(1.04184e-14 -0.0853491 4.6537)
(9.14609e-15 -0.103408 4.78706)
(9.77802e-15 -0.126169 4.99445)
(6.28846e-15 -0.148788 5.25955)
(5.25229e-15 -0.170329 5.56586)
(1.12921e-15 -0.188278 5.89424)
(-1.96501e-15 -0.202496 6.23118)
(-6.68806e-15 -0.212559 6.56498)
(-1.37825e-14 -0.218857 6.88908)
(-1.27669e-14 -0.221893 7.19841)
(-2.16047e-14 -0.222127 7.49062)
(-1.94307e-14 -0.220225 7.76442)
(-1.38155e-14 -0.216512 8.0198)
(-1.57928e-14 -0.211593 8.25709)
(-1.69198e-14 -0.205627 8.47699)
(-1.55662e-14 -0.199073 8.68064)
(-1.56279e-14 -0.192 8.86915)
(-1.58462e-14 -0.184762 9.04368)
(-1.57405e-14 -0.177356 9.20522)
(-1.55348e-14 -0.170035 9.35498)
(-1.53709e-14 -0.162774 9.49392)
(-1.59051e-14 -0.155766 9.62301)
(-1.58337e-14 -0.14896 9.74301)
(-1.52712e-14 -0.142493 9.85479)
(-1.76219e-14 -0.136313 9.95905)
(-1.48683e-14 -0.130525 10.0565)
(-1.41775e-14 -0.125068 10.1476)
(-1.45411e-14 -0.12002 10.2329)
(-1.48381e-14 -0.115326 10.3131)
(-1.5109e-14 -0.11105 10.3885)
(-1.52114e-14 -0.107141 10.4596)
(-1.31964e-14 -0.103652 10.5267)
(-1.56666e-14 -0.100544 10.5902)
(-1.5301e-14 -0.0978645 10.6506)
(-1.57806e-14 -0.0955883 10.708)
(-1.64499e-14 -0.093757 10.7629)
(-1.50263e-14 -0.0923607 10.8158)
(-1.52872e-14 -0.0914338 10.8661)
(-1.52193e-14 -0.0909259 10.9175)
(-1.52494e-14 -0.0909507 10.9575)
(-1.51292e-14 -0.092088 11.0288)
(1.40665e-15 0.010204 19.3958)
(1.37195e-15 0.0121813 19.2195)
(2.10761e-15 0.013492 18.9959)
(3.98186e-15 0.0193861 18.7413)
(4.99208e-15 0.021986 18.4637)
(8.18307e-15 0.0236475 18.1434)
(2.48375e-15 0.0243203 17.7814)
(2.17196e-15 0.0264679 17.3849)
(-1.00684e-15 0.0277528 16.9499)
(3.47014e-15 0.0295411 16.4866)
(-2.42798e-15 0.0310655 15.9917)
(2.41532e-15 0.0330467 15.4707)
(2.13571e-15 0.034367 14.9181)
(2.74177e-15 0.0354713 14.342)
(3.67462e-15 0.0358604 13.7402)
(-2.05009e-15 0.0360826 13.1287)
(-2.10285e-15 0.0354583 12.5092)
(2.76876e-15 0.0349077 11.8934)
(2.79103e-15 0.032847 11.2814)
(4.57881e-15 0.0312971 10.6831)
(-1.57323e-15 0.0286414 10.0988)
(-2.07007e-15 0.0272667 9.53629)
(2.74573e-15 0.0247562 8.99523)
(3.50364e-15 0.0239709 8.48139)
(3.35976e-15 0.0211209 7.99523)
(4.27648e-15 0.0181812 7.55352)
(9.81857e-15 0.011302 7.17201)
(-2.50397e-16 0.00382348 6.85631)
(1.16685e-14 -0.00590634 6.61331)
(3.96242e-15 -0.0162284 6.43387)
(-8.84096e-16 -0.0261801 6.31409)
(-7.69975e-16 -0.0312781 6.23885)
(-1.35042e-15 -0.0298456 6.18445)
(-1.89469e-15 -0.0240568 6.13125)
(-6.88774e-15 -0.0192283 6.07288)
(-1.11463e-14 -0.0157945 6.00732)
(9.1436e-15 -0.0100224 5.92641)
(2.62465e-15 0.00317187 5.81456)
(1.30159e-15 0.0227625 5.66212)
(1.04409e-14 0.0448927 5.46604)
(-1.0206e-14 0.0636301 5.23541)
(-1.74709e-14 0.0756064 4.98629)
(-1.24105e-14 0.0782617 4.72976)
(-1.33018e-14 0.0723132 4.47975)
(-1.27586e-14 0.0587505 4.25377)
(-1.2126e-14 0.0428324 4.05758)
(-1.12157e-14 0.0316337 3.91793)
(-1.19737e-15 0.0178071 3.79918)
(-2.08263e-14 0.0161239 3.68164)
(-4.33441e-14 0.009454 3.57596)
(2.97819e-14 0.00271359 3.4773)
(7.33595e-14 -0.0171841 3.40439)
(2.84786e-14 -0.0341598 3.35785)
(2.84051e-14 -0.0547026 3.34038)
(3.09021e-14 -0.0655672 3.32893)
(2.89834e-14 -0.0766296 3.32889)
(2.21242e-14 -0.0838462 3.3589)
(1.99703e-14 -0.102622 3.46842)
(5.68664e-15 -0.130528 3.67766)
(-8.16908e-16 -0.168917 3.98562)
(-6.40583e-15 -0.208509 4.36133)
(-1.20843e-14 -0.245712 4.77449)
(-2.08433e-14 -0.275781 5.19559)
(-3.22626e-14 -0.2984 5.60821)
(-1.22047e-14 -0.313193 6.00065)
(-1.79667e-14 -0.321509 6.36876)
(-2.14839e-14 -0.324289 6.70993)
(-2.40769e-14 -0.322836 7.02523)
(-2.47851e-14 -0.318172 7.31562)
(-2.77168e-14 -0.311167 7.58332)
(-2.02757e-14 -0.302575 7.83028)
(-2.10168e-14 -0.292872 8.05879)
(-2.49413e-14 -0.282574 8.2706)
(-1.98665e-14 -0.271877 8.46733)
(-1.1729e-14 -0.261104 8.65053)
(-1.37342e-14 -0.250324 8.82148)
(-1.72758e-14 -0.23976 8.98128)
(-1.64781e-14 -0.229403 9.13076)
(-1.78303e-14 -0.219403 9.27086)
(-1.81986e-14 -0.209731 9.40227)
(-2.33765e-14 -0.200502 9.52566)
(-1.61174e-14 -0.191669 9.64152)
(-1.16676e-14 -0.183312 9.75046)
(-1.75036e-14 -0.175386 9.85293)
(-1.6308e-14 -0.167954 9.94939)
(-1.59439e-14 -0.160967 10.0402)
(-1.57264e-14 -0.154472 10.1258)
(-1.51916e-14 -0.148428 10.2065)
(-1.32974e-14 -0.142874 10.2828)
(-1.60884e-14 -0.137776 10.3548)
(-1.43859e-14 -0.133167 10.423)
(-1.39331e-14 -0.129028 10.4876)
(-1.40789e-14 -0.125392 10.549)
(-1.39335e-14 -0.122249 10.6074)
(-1.38427e-14 -0.119641 10.6632)
(-1.34929e-14 -0.117559 10.7168)
(-1.25895e-14 -0.116107 10.7676)
(-1.29945e-14 -0.115097 10.8194)
(-1.28373e-14 -0.115244 10.8596)
(-1.24515e-14 -0.115293 10.9312)
(2.06761e-15 0.0141654 18.6259)
(2.84247e-15 0.0134884 18.2986)
(3.17675e-15 0.016521 17.8968)
(4.39093e-15 0.0230165 17.4402)
(4.71833e-15 0.0263093 16.9455)
(4.30699e-15 0.028716 16.4015)
(4.15942e-15 0.0309062 15.8189)
(2.81133e-15 0.0342581 15.2145)
(2.84895e-15 0.0373536 14.5906)
(1.68711e-15 0.040568 13.9652)
(9.94656e-16 0.0441775 13.3371)
(8.76644e-16 0.0479851 12.7157)
(1.38038e-15 0.0515714 12.0921)
(1.89667e-15 0.0546273 11.477)
(1.15032e-15 0.0571088 10.8623)
(-1.3137e-14 0.0592382 10.2662)
(1.58769e-15 0.0598765 9.68415)
(1.30678e-15 0.0605184 9.127)
(-1.67355e-15 0.0586964 8.58928)
(-2.40642e-15 0.0574365 8.08078)
(-1.84715e-15 0.0540357 7.59964)
(-3.09387e-15 0.0520095 7.15479)
(-1.18634e-15 0.0477819 6.7485)
(7.09816e-15 0.0450212 6.39114)
(6.16182e-15 0.038279 6.09028)
(2.56286e-15 0.029769 5.86579)
(1.77098e-14 0.0152519 5.7288)
(-1.30446e-14 -0.000179996 5.66913)
(2.85002e-15 -0.0168074 5.67814)
(-8.58882e-16 -0.0320631 5.72927)
(-6.37796e-16 -0.0440385 5.80465)
(-1.75509e-15 -0.0477936 5.88293)
(-8.28531e-16 -0.0420354 5.94628)
(-1.1491e-15 -0.0303695 5.98523)
(-5.14479e-15 -0.0191055 5.99772)
(-1.11973e-14 -0.00816811 5.97862)
(5.18395e-15 0.00690077 5.91609)
(4.34721e-16 0.0316217 5.79408)
(9.80496e-16 0.063215 5.60337)
(6.17753e-15 0.0957613 5.34924)
(3.51617e-14 0.121404 5.04315)
(-3.13661e-14 0.136533 4.70464)
(-3.55113e-14 0.138665 4.35616)
(-2.0089e-14 0.128076 4.01975)
(-1.99905e-14 0.106268 3.71166)
(-2.27677e-14 0.080532 3.43786)
(-2.09389e-14 0.0595266 3.23325)
(-1.16081e-14 0.0350628 3.06994)
(4.84063e-14 0.0283569 2.92228)
(-3.13853e-14 0.0167171 2.81454)
(-2.29742e-14 0.00487802 2.72354)
(5.52664e-14 -0.0234213 2.66895)
(1.06544e-15 -0.0463204 2.63377)
(-3.8508e-17 -0.0706043 2.62464)
(-4.1465e-15 -0.0844791 2.63115)
(-5.49644e-15 -0.10663 2.70845)
(-6.07869e-14 -0.138883 2.9002)
(-5.00988e-14 -0.188944 3.22519)
(-2.6341e-14 -0.244934 3.64028)
(-4.98817e-14 -0.29961 4.09834)
(-2.56058e-14 -0.345221 4.55781)
(-3.39634e-14 -0.380464 4.99863)
(-3.40723e-14 -0.404647 5.40904)
(-3.2064e-14 -0.419497 5.78862)
(-3.22029e-14 -0.426226 6.1379)
(-3.2563e-14 -0.426822 6.46095)
(-3.60305e-14 -0.422579 6.76028)
(-4.46015e-14 -0.414898 7.03971)
(-2.66762e-14 -0.404741 7.30138)
(-3.14804e-14 -0.39291 7.54759)
(-2.90706e-14 -0.380009 7.77975)
(-2.70063e-14 -0.366431 7.99926)
(-2.53072e-14 -0.352555 8.20682)
(-2.47659e-14 -0.33853 8.40302)
(-1.73256e-14 -0.324589 8.58844)
(-2.34119e-14 -0.310789 8.76352)
(-2.16688e-14 -0.297301 8.92866)
(-1.96314e-14 -0.284129 9.0841)
(-1.81553e-14 -0.271391 9.23036)
(-1.58976e-14 -0.259085 9.3678)
(-1.50755e-14 -0.247303 9.49684)
(-1.16456e-14 -0.236026 9.61781)
(-1.60557e-14 -0.225317 9.73122)
(-1.36118e-14 -0.215156 9.83745)
(-1.56893e-14 -0.205588 9.93695)
(-1.2772e-14 -0.196588 10.0301)
(-1.22906e-14 -0.188185 10.1173)
(-1.18085e-14 -0.180356 10.1989)
(-1.16315e-14 -0.173127 10.2755)
(-1.31017e-14 -0.166477 10.3472)
(-9.78704e-15 -0.16043 10.4145)
(-8.0684e-15 -0.154974 10.4777)
(-1.13957e-14 -0.150138 10.5373)
(-9.91905e-15 -0.145919 10.5935)
(-1.04941e-14 -0.142361 10.6466)
(-7.7725e-15 -0.13945 10.6972)
(-9.10335e-15 -0.137359 10.7449)
(-8.70422e-15 -0.135735 10.7929)
(-8.58638e-15 -0.135924 10.83)
(-8.28685e-15 -0.135027 10.8953)
(-2.94268e-15 0.015166 17.3771)
(2.28966e-15 0.013803 16.8229)
(3.30235e-15 0.0205887 16.1717)
(4.93666e-15 0.0286627 15.4738)
(5.3328e-16 0.0331116 14.7677)
(1.30827e-15 0.035818 14.0533)
(4.49632e-15 0.0391057 13.3466)
(2.69416e-15 0.0427529 12.6672)
(4.26182e-15 0.0470025 12.0133)
(1.31175e-14 0.0507925 11.4025)
(-4.08622e-15 0.05593 10.8266)
(8.13819e-16 0.061099 10.2911)
(1.11461e-15 0.0667615 9.77732)
(-1.33126e-15 0.0717862 9.29276)
(-2.63665e-15 0.0767192 8.81945)
(-2.83734e-15 0.0813175 8.37427)
(-2.74369e-15 0.0841106 7.9456)
(-1.4573e-16 0.0868015 7.54138)
(-1.0002e-14 0.0862161 7.15397)
(-9.09193e-15 0.0856237 6.79324)
(-3.12513e-15 0.0817209 6.46094)
(-6.73213e-15 0.0779483 6.16777)
(1.67875e-15 0.0702952 5.92302)
(-1.30572e-15 0.0619882 5.73813)
(-2.18397e-15 0.0480008 5.62122)
(-1.44598e-14 0.0306697 5.58147)
(2.83654e-15 0.00816619 5.61619)
(-2.63407e-15 -0.0138799 5.70335)
(-1.72119e-15 -0.0341535 5.82921)
(5.60598e-16 -0.0501317 5.96782)
(-2.9458e-15 -0.0595805 6.10346)
(-6.05794e-15 -0.0582818 6.22012)
(-1.4163e-14 -0.0460257 6.30789)
(1.01478e-15 -0.0273784 6.36411)
(-9.72845e-15 -0.0085526 6.38905)
(-1.7032e-14 0.0115967 6.37841)
(4.53212e-15 0.0388806 6.31866)
(1.10983e-16 0.0793797 6.18697)
(-2.4206e-15 0.127864 5.96736)
(-2.01275e-15 0.174934 5.65764)
(-7.34732e-16 0.210739 5.28106)
(-6.30101e-15 0.23101 4.86179)
(-9.20958e-15 0.232899 4.42622)
(-4.57097e-15 0.216875 4.00041)
(-9.90144e-15 0.186012 3.60557)
(-1.34185e-14 0.148791 3.25282)
(-1.23859e-14 0.114419 2.98278)
(-1.27866e-14 0.0747716 2.75846)
(-1.3392e-14 0.0551116 2.5763)
(-1.38934e-14 0.033558 2.4604)
(-1.41446e-14 0.0134417 2.36282)
(-1.43479e-14 -0.0229398 2.30789)
(-1.41367e-14 -0.0528233 2.27423)
(-1.56152e-14 -0.0864137 2.29962)
(-1.97431e-14 -0.121856 2.40715)
(-2.02291e-14 -0.176589 2.6539)
(-4.26075e-14 -0.244153 3.02804)
(-5.16355e-14 -0.316607 3.48297)
(-4.29552e-14 -0.381263 3.9527)
(-4.44762e-14 -0.433376 4.39977)
(-4.43671e-14 -0.471673 4.80761)
(-3.6964e-14 -0.498173 5.17967)
(-3.18112e-14 -0.514385 5.52138)
(-2.99194e-14 -0.522506 5.84207)
(-4.86714e-14 -0.523788 6.14659)
(-3.15297e-14 -0.519951 6.43957)
(-3.01693e-14 -0.51199 6.72209)
(-3.09736e-14 -0.501055 6.99545)
(-3.04448e-14 -0.48786 7.25902)
(-3.05729e-14 -0.473082 7.51252)
(-2.24943e-14 -0.457189 7.75515)
(-2.00831e-14 -0.440561 7.98653)
(-2.01063e-14 -0.423525 8.20608)
(-1.93374e-14 -0.406285 8.41349)
(-1.72416e-14 -0.389066 8.60879)
(-2.13569e-14 -0.371998 8.7921)
(-1.53157e-14 -0.355254 8.96369)
(-1.27476e-14 -0.338902 9.12383)
(-1.04003e-14 -0.323064 9.27311)
(-7.89806e-15 -0.307784 9.41203)
(-8.64308e-15 -0.293149 9.54117)
(-1.42744e-14 -0.27917 9.66103)
(-7.15318e-15 -0.265901 9.77227)
(-2.25593e-15 -0.253339 9.87545)
(-5.29534e-15 -0.241519 9.97116)