# vtk DataFile Version 2.0
track0
ASCII
DATASET POLYDATA
POINTS 6535 float
-0.0205 0.001 1e-05
-0.0204727 0.0010001 1e-05
-0.0204454 0.00100021 1e-05
-0.0204181 0.00100031 1e-05
-0.0203908 0.00100042 1e-05
-0.0203635 0.00100052 1e-05
-0.0200299 0.00100177 1e-05
-0.0196963 0.00100307 1e-05
-0.0193627 0.00100435 1e-05
-0.0190291 0.00100562 1e-05
-0.0186954 0.00100688 1e-05
-0.018369 0.00100804 1e-05
-0.0180425 0.00100925 1e-05
-0.017716 0.00101044 1e-05
-0.0173896 0.00101163 1e-05
-0.0170631 0.00101279 1e-05
-0.0167436 0.00101388 1e-05
-0.0164242 0.001015 1e-05
-0.0161047 0.00101611 1e-05
-0.0157852 0.00101721 1e-05
-0.0154657 0.00101829 1e-05
-0.0151531 0.0010193 1e-05
-0.0148405 0.00102034 1e-05
-0.0145279 0.00102137 1e-05
-0.0142152 0.0010224 1e-05
-0.0139026 0.0010234 1e-05
-0.0135967 0.00102433 1e-05
-0.0132908 0.0010253 1e-05
-0.0129848 0.00102625 1e-05
-0.0126789 0.0010272 1e-05
-0.012373 0.00102813 1e-05
-0.0120736 0.00102899 1e-05
-0.0117742 0.00102988 1e-05
-0.0114749 0.00103077 1e-05
-0.0111755 0.00103165 1e-05
-0.0108761 0.0010325 1e-05
-0.0105832 0.0010333 1e-05
-0.0102902 0.00103412 1e-05
-0.00999724 0.00103493 1e-05
-0.00970429 0.00103574 1e-05
-0.00941133 0.00103653 1e-05
-0.00912465 0.00103725 1e-05
-0.00883797 0.001038 1e-05
-0.00855129 0.00103875 1e-05
-0.00826461 0.00103949 1e-05
-0.00797793 0.00104021 1e-05
-0.00769739 0.00104087 1e-05
-0.00741686 0.00104155 1e-05
-0.00713632 0.00104223 1e-05
-0.00685578 0.0010429 1e-05
-0.00657525 0.00104355 1e-05
-0.00630072 0.00104414 1e-05
-0.0060262 0.00104475 1e-05
-0.00575167 0.00104536 1e-05
-0.00547714 0.00104597 1e-05
-0.00520262 0.00104654 1e-05
-0.00493398 0.00104706 1e-05
-0.00466533 0.0010476 1e-05
-0.00439669 0.00104814 1e-05
-0.00412805 0.00104867 1e-05
-0.0038594 0.00104917 1e-05
-0.00359652 0.00104962 1e-05
-0.00333363 0.00105009 1e-05
-0.00307074 0.00105056 1e-05
-0.00280786 0.00105101 1e-05
-0.00254497 0.00105145 1e-05
-0.00228772 0.00105182 1e-05
-0.00203046 0.0010522 1e-05
-0.00177321 0.00105257 1e-05
-0.00151596 0.00105291 1e-05
-0.0012587 0.00105323 1e-05
-0.00100696 0.00105349 1e-05
-0.000755223 0.00105381 1e-05
-0.000503482 0.00105404 1e-05
-0.000251741 0.00105413 1e-05
0 0.00105403 1e-05
0.000329256 0.00105358 1e-05
0.000658511 0.00105325 1e-05
0.000987767 0.00105282 1e-05
0.00131702 0.00105214 1e-05
0.00164628 0.00105114 1e-05
0.00197921 0.00104964 1e-05
0.00231214 0.00104866 1e-05
0.00264507 0.00104777 1e-05
0.002978 0.00104678 1e-05
0.00331093 0.0010455 1e-05
0.00364757 0.00104352 1e-05
0.00398422 0.0010422 1e-05
0.00432087 0.00104103 1e-05
0.00465752 0.0010398 1e-05
0.00499415 0.00103828 1e-05
0.00533455 0.00103595 1e-05
0.00567496 0.00103425 1e-05
0.00601536 0.00103268 1e-05
0.00635577 0.00103104 1e-05
0.00669616 0.00102916 1e-05
0.00704036 0.00102643 1e-05
0.00738456 0.00102427 1e-05
0.00772877 0.00102218 1e-05
0.00807297 0.00102002 1e-05
0.00841716 0.00101767 1e-05
0.0087652 0.00101451 1e-05
0.00911325 0.00101183 1e-05
0.00946129 0.00100915 1e-05
0.00980933 0.00100639 1e-05
0.0101574 0.00100348 1e-05
0.0105093 0.000999847 1e-05
0.0108612 0.000996593 1e-05
0.0112131 0.00099327 1e-05
0.0115651 0.000989852 1e-05
0.011917 0.00098634 1e-05
0.0122728 0.000982196 1e-05
0.0126287 0.000978309 1e-05
0.0129845 0.000974324 1e-05
0.0133404 0.00097024 1e-05
0.0136962 0.000966054 1e-05
0.0140561 0.000961378 1e-05
0.0144159 0.000956838 1e-05
0.0147757 0.000952199 1e-05
0.0151355 0.00094746 1e-05
0.0154954 0.000942619 1e-05
0.0158592 0.000937404 1e-05
0.016223 0.000932232 1e-05
0.0165869 0.000926964 1e-05
0.0169507 0.000921598 1e-05
0.0173145 0.000916134 1e-05
0.0176824 0.000910384 1e-05
0.0180503 0.000904612 1e-05
0.0184182 0.000898748 1e-05
0.0187861 0.00089279 1e-05
0.019154 0.000886738 1e-05
0.019526 0.000880463 1e-05
0.019898 0.000874125 1e-05
0.02027 0.000867697 1e-05
0.020642 0.00086118 1e-05
0.0210141 0.000854573 1e-05
0.0213762 0.000848034 1e-05
0.0217383 0.000841417 1e-05
0.0221004 0.00083472 1e-05
0.0224625 0.000827942 1e-05
0.0227825 0.00082188 1e-05
0.0228049 0.00082145 1e-05
0.0228274 0.000821019 1e-05
0.0228499 0.000820588 1e-05
0.0228724 0.000820157 1e-05
0.0228948 0.000819725 1e-05
0.0232752 0.00081242 1e-05
0.0236555 0.000805024 1e-05
0.0240359 0.00079754 1e-05
0.0244162 0.000789967 1e-05
0.0247966 0.000782303 1e-05
0.0251812 0.000774545 1e-05
0.0255658 0.000766635 1e-05
0.0259504 0.000758632 1e-05
0.026335 0.000750537 1e-05
0.0267196 0.000742349 1e-05
0.0271085 0.000734121 1e-05
0.0274973 0.000725688 1e-05
0.0278862 0.000717158 1e-05
0.0282751 0.000708528 1e-05
0.028664 0.000699798 1e-05
0.0290572 0.000691067 1e-05
0.0294505 0.000682088 1e-05
0.0298437 0.000673001 1e-05
0.0302369 0.000663807 1e-05
0.0306301 0.000654502 1e-05
0.0310278 0.000645219 1e-05
0.0314254 0.000635664 1e-05
0.031823 0.000625977 1e-05
0.0322206 0.00061617 1e-05
0.0326182 0.000606291 1e-05
0.0330203 0.000596394 1e-05
0.0334223 0.000586232 1e-05
0.0338244 0.000575884 1e-05
0.0342264 0.000565402 1e-05
0.0346285 0.000554881 1e-05
0.035035 0.000544294 1e-05
0.0354416 0.000533443 1e-05
0.0358481 0.000522359 1e-05
0.0362546 0.000511124 1e-05
0.0366612 0.000499872 1e-05
0.0370722 0.000488507 1e-05
0.0374833 0.000476875 1e-05
0.0378944 0.000464975 1e-05
0.0383054 0.000452919 1e-05
0.0387166 0.000440837 1e-05
0.0391322 0.000428597 1e-05
0.0395479 0.00041608 1e-05
0.0399635 0.000403288 1e-05
0.0403792 0.000390327 1e-05
0.0407949 0.000377306 1e-05
0.0412152 0.000364082 1e-05
0.0416355 0.000350569 1e-05
0.0420557 0.000336766 1e-05
0.042476 0.000322783 1e-05
0.0428964 0.000308704 1e-05
0.0433214 0.000294376 1e-05
0.0437463 0.000279743 1e-05
0.0441713 0.000264834 1e-05
0.0445963 0.000249729 1e-05
0.0450213 0.000234465 1e-05
0.0454511 0.000218903 1e-05
0.0458808 0.000203016 1e-05
0.0463105 0.000186876 1e-05
0.0467402 0.000170512 1e-05
0.04717 0.000153923 1e-05
0.0476045 0.000136985 1e-05
0.048039 0.000119715 1e-05
0.0484735 0.000102191 1e-05
0.048908 8.4415e-05 1e-05
0.0493426 6.63795e-05 1e-05
0.0496585 5.31036e-05 1e-05
0.0499743 3.96579e-05 1e-05
0.0502901 2.60651e-05 1e-05
0.050606 1.23247e-05 1e-05
0.0508862 1.69407e-21 1e-05
0.0510169 -5.80059e-06 1e-05
0.0511475 -1.16259e-05 1e-05
0.0512782 -1.74761e-05 1e-05
0.0514089 -2.3351e-05 1e-05
0.0515395 -2.92513e-05 1e-05
0.0519838 -4.93817e-05 1e-05
0.0524281 -6.98353e-05 1e-05
0.0528723 -9.06007e-05 1e-05
0.0533166 -0.000111679 1e-05
0.0537609 -0.000133077 1e-05
0.0542102 -0.000154963 1e-05
0.0546594 -0.000177246 1e-05
0.0551086 -0.000199877 1e-05
0.0555578 -0.000222858 1e-05
0.0560071 -0.00024619 1e-05
0.0564614 -0.00027003 1e-05
0.0569156 -0.000294316 1e-05
0.0573698 -0.000319012 1e-05
0.057824 -0.000344097 1e-05
0.0582784 -0.000369529 1e-05
0.0587377 -0.00039554 1e-05
0.059197 -0.000422032 1e-05
0.0596562 -0.000449007 1e-05
0.0601155 -0.000476405 1e-05
0.060575 -0.000504168 1e-05
0.0610394 -0.000532589 1e-05
0.0615038 -0.000561532 1e-05
0.0619682 -0.000590998 1e-05
0.0624326 -0.000620922 1e-05
0.0628972 -0.000651275 1e-05
0.0633668 -0.000682372 1e-05
0.0638364 -0.000714037 1e-05
0.064306 -0.000746244 1e-05
0.0647755 -0.000778951 1e-05
0.0652453 -0.000812181 1e-05
0.0657202 -0.00084625 1e-05
0.066195 -0.000880936 1e-05
0.0666698 -0.000916184 1e-05
0.0671446 -0.000951997 1e-05
0.0676197 -0.000988411 1e-05
0.0677094 -0.000995397 1e-05
0.0677992 -0.00100241 1e-05
0.0678889 -0.00100944 1e-05
0.0679786 -0.00101649 1e-05
0.0680655 -0.00102334 1e-05
0.0684565 -0.00105426 1e-05
0.0688475 -0.0010856 1e-05
0.0692384 -0.00111734 1e-05
0.0696293 -0.0011495 1e-05
0.0700205 -0.0011821 1e-05
0.070506 -0.00122303 1e-05
0.0709915 -0.00126469 1e-05
0.0714769 -0.00130704 1e-05
0.0719623 -0.0013501 1e-05
0.0724481 -0.00139387 1e-05
0.0729391 -0.00143874 1e-05
0.07343 -0.00148443 1e-05
0.0739208 -0.00153094 1e-05
0.0744115 -0.00157821 1e-05
0.0749029 -0.00162628 1e-05
0.0753993 -0.00167558 1e-05
0.0758956 -0.00172578 1e-05
0.0763919 -0.00177688 1e-05
0.076888 -0.00182884 1e-05
0.077385 -0.00188173 1e-05
0.0778601 -0.0019331 1e-05
0.0783351 -0.00198537 1e-05
0.07881 -0.0020385 1e-05
0.0792849 -0.00209249 1e-05
0.0796837 -0.00213858 1e-05
0.0797259 -0.00214352 1e-05
0.0797681 -0.00214848 1e-05
0.0798104 -0.00215343 1e-05
0.0798526 -0.0021584 1e-05
0.0798948 -0.00216337 1e-05
0.0804024 -0.00222323 1e-05
0.0809098 -0.00228414 1e-05
0.0814171 -0.00234609 1e-05
0.0819243 -0.00240909 1e-05
0.0824326 -0.00247331 1e-05
0.0829458 -0.00253921 1e-05
0.0834589 -0.00260631 1e-05
0.0839718 -0.00267463 1e-05
0.0844846 -0.00274412 1e-05
0.0849987 -0.00281498 1e-05
0.0855177 -0.00288771 1e-05
0.0860365 -0.00296178 1e-05
0.086555 -0.00303721 1e-05
0.0870734 -0.00311396 1e-05
0.0875935 -0.00319237 1e-05
0.0878042 -0.00322469 1e-05
0.0880149 -0.00325725 1e-05
0.0882256 -0.00329005 1e-05
0.0884362 -0.00332309 1e-05
0.0886316 -0.00335397 1e-05
0.0889487 -0.00340443 1e-05
0.0892658 -0.00345543 1e-05
0.0895827 -0.00350696 1e-05
0.0898996 -0.00355904 1e-05
0.0902172 -0.00361181 1e-05
0.0907478 -0.00370089 1e-05
0.0912782 -0.00379162 1e-05
0.0918082 -0.00388402 1e-05
0.0923379 -0.00397806 1e-05
0.0928702 -0.00407425 1e-05
0.0934068 -0.00417295 1e-05
0.0939429 -0.00427353 1e-05
0.0944787 -0.00437601 1e-05
0.0950142 -0.00448037 1e-05
0.0955528 -0.00458739 1e-05
0.0956429 -0.00460561 1e-05
0.0957329 -0.0046239 1e-05
0.0958228 -0.00464224 1e-05
0.0959128 -0.00466063 1e-05
0.096 -0.00467851 1e-05
0.0964531 -0.00477175 1e-05
0.0969058 -0.00486641 1e-05
0.0973583 -0.00496252 1e-05
0.0978105 -0.00506013 1e-05
0.0982654 -0.0051599 1e-05
0.098814 -0.00528209 1e-05
0.099362 -0.0054067 1e-05
0.0999094 -0.0055338 1e-05
0.100456 -0.00566334 1e-05
0.101008 -0.00579657 1e-05
0.101273 -0.00586166 1e-05
0.101537 -0.00592738 1e-05
0.101801 -0.00599372 1e-05
0.102065 -0.00606066 1e-05
0.102305 -0.006122 1e-05
0.1026 -0.00619831 1e-05
0.102895 -0.00627539 1e-05
0.10319 -0.00635325 1e-05
0.103485 -0.00643192 1e-05
0.103782 -0.00651189 1e-05
0.104342 -0.00666455 1e-05
0.104903 -0.00682027 1e-05
0.105462 -0.00697918 1e-05
0.10602 -0.00714099 1e-05
0.106586 -0.00730793 1e-05
[...]
POINT_DATA 6535
 FIELD attributes 2
p 1 6535 float
-10.3994 -10.3999 -10.4003 -10.4007 -10.4011 -10.4016 -10.4059 -10.4107 -10.4155 -10.4204 -10.4258 -10.43 -10.4348 -10.4397 -10.4446 -10.45 -10.4543 -10.4591 -10.464 -10.469 -10.4745 -10.4788 -10.4837 -10.4887 -10.4938 -10.4993 -10.5038 -10.5088 -10.5138 -10.5191 -10.5248 -10.5294 -10.5345 -10.5397 -10.5451 -10.551 -10.5558 -10.5611 -10.5666 -10.5722 -10.5782 -10.5833 -10.5889 -10.5946 -10.6005 -10.6068 -10.6122 -10.6181 -10.6242 -10.6305 -10.6371 -10.6429 -10.6492 -10.6558 -10.6625 -10.6697 -10.676 -10.6829 -10.69 -10.6972 -10.7048 -10.7119 -10.7196 -10.7277 -10.7361 -10.7449 -10.7536 -10.7622 -10.7708 -10.7795 -10.7884 -10.8011 -10.8143 -10.8278 -10.8407 -10.8526 -10.8725 -10.8821 -10.8857 -10.8846 -10.875 -10.882 -10.8832 -10.8812 -10.8775 -10.8702 -10.8882 -10.899 -10.9066 -10.9099 -10.9028 -10.9181 -10.9255 -10.9302 -10.9317 -10.923 -10.9296 -10.9317 -10.9326 -10.9324 -10.9265 -10.9279 -10.9283 -10.9285 -10.9285 -10.9269 -10.9256 -10.9258 -10.926 -10.9263 -10.9278 -10.9247 -10.925 -10.9254 -10.9257 -10.929 -10.9256 -10.9263 -10.9269 -10.9276 -10.9318 -10.9294 -10.9308 -10.9322 -10.9336 -10.9381 -10.9375 -10.9399 -10.9423 -10.9447 -10.9492 -10.9508 -10.9543 -10.9577 -10.9612 -10.9657 -10.9693 -10.9738 -10.9782 -10.9827 -10.9866 -10.9869 -10.9872 -10.9875 -10.9877 -10.988 -10.9937 -10.9994 -11.0051 -11.0108 -11.0163 -11.023 -11.0297 -11.0364 -11.0431 -11.0496 -11.0571 -11.0646 -11.0721 -11.0797 -11.0871 -11.0952 -11.1034 -11.1115 -11.1197 -11.128 -11.1364 -11.1451 -11.1537 -11.1624 -11.1712 -11.18 -11.1888 -11.1977 -11.2068 -11.2159 -11.2248 -11.2337 -11.2427 -11.2519 -11.2611 -11.2699 -11.2788 -11.2877 -11.2968 -11.3059 -11.3145 -11.3232 -11.3319 -11.3407 -11.3495 -11.3578 -11.3662 -11.3746 -11.3829 -11.3912 -11.399 -11.4069 -11.4148 -11.4226 -11.4303 -11.4375 -11.4448 -11.452 -11.4592 -11.4661 -11.4726 -11.479 -11.4855 -11.4919 -11.4982 -11.5021 -11.5061 -11.51 -11.5139 -11.5174 -11.519 -11.5207 -11.5223 -11.5239 -11.5255 -11.5298 -11.5341 -11.5383 -11.5426 -11.5469 -11.5503 -11.5533 -11.5563 -11.5593 -11.5623 -11.5644 -11.5662 -11.5678 -11.5693 -11.5707 -11.5713 -11.5719 -11.5718 -11.5714 -11.5711 -11.5699 -11.5687 -11.567 -11.5646 -11.5621 -11.5588 -11.5552 -11.5513 -11.5471 -11.5422 -11.5364 -11.5297 -11.523 -11.5164 -11.5096 -11.5079 -11.5061 -11.5042 -11.5024 -11.5006 -11.4929 -11.4852 -11.4776 -11.47 -11.4611 -11.4499 -11.4369 -11.4239 -11.41 -11.3944 -11.3796 -11.3648 -11.3471 -11.3269 -11.3066 -11.2872 -11.2674 -11.2443 -11.2199 -11.1942 -11.1707 -11.1432 -11.1157 -11.0882 -11.0653 -11.0629 -11.0606 -11.0583 -11.056 -11.0533 -11.0194 -10.9851 -10.9509 -10.9164 -10.8769 -10.839 -10.8008 -10.7585 -10.7112 -10.6639 -10.6182 -10.5706 -10.5184 -10.4664 -10.4107 -10.389 -10.3651 -10.3405 -10.316 -10.2932 -10.2579 -10.2226 -10.1874 -10.1513 -10.1116 -10.0479 -9.98234 -9.9151 -9.84041 -9.76545 -9.69236 -9.61688 -9.53659 -9.45642 -9.37393 -9.36027 -9.34599 -9.33117 -9.31636 -9.30202 -9.23012 -9.15836 -9.08676 -9.01288 -8.93516 -8.84389 -8.75283 -8.658 -8.55895 -8.45913 -8.41217 -8.36458 -8.31599 -8.26745 -8.22343 -8.17029 -8.11723 -8.06426 -8.01028 -7.95517 -7.85302 -7.75119 -7.64862 -7.54539 -7.44091 -7.39398 -7.34744 -7.30188 -7.2564 -7.21474 -7.15854 -7.10245 -7.04647 -6.99126 -6.9359 -6.83784 -6.74016 -6.64618 -6.55394 -6.4605 -6.43926 -6.41826 -6.39869 -6.37914 -6.36016 -6.29127 -6.22252 -6.1539 -6.08826 -6.02284 -5.94312 -5.86455 -5.79094 -5.7174 -5.64824 -5.64506 -5.64188 -5.63869 -5.63562 -5.63259 -5.55975 -5.48727 -5.41479 -5.34605 -5.27788 -5.22803 -5.17891 -5.13246 -5.08594 -5.03837 -5.02329 -5.0082 -4.99311 -4.97849 -4.96412 -4.90481 -4.84697 -4.78935 -4.73462 -4.68029 -4.63724 -4.59502 -4.55417 -4.51319 -4.46798 -4.46014 -4.45229 -4.44444 -4.43671 -4.42914 -4.38251 -4.33656 -4.29049 -4.24534 -4.20139 -4.16001 -4.11851 -4.07826 -4.03872 -4.00062 -3.97881 -3.95748 -3.93625 -3.91498 -3.89013 -3.87622 -3.8623 -3.84837 -3.83441 -3.8202 -3.78774 -3.75537 -3.72295 -3.6902 -3.6574 -3.62846 -3.59951 -3.57065 -3.54138 -3.5124 -3.48634 -3.46026 -3.43372 -3.40752 -3.38159 -3.35773 -3.33364 -3.30943 -3.28525 -3.26165 -3.23932 -3.21678 -3.19426 -3.17175 -3.14955 -3.12819 -3.10675 -3.08532 -3.06391 -3.04259 -3.03806 -3.03351 -3.02896 -3.02442 -3.01937 -3.00317 -2.98699 -2.97081 -2.95465 -2.93848 -2.91777 -2.89709 -2.87643 -2.85577 -2.83515 -2.81411 -2.7932 -2.7723 -2.7514 -2.73055 -2.70885 -2.68735 -2.66586 -2.64436 -2.6229 -2.60029 -2.57791 -2.55553 -2.53315 -2.51069 -2.487 -2.4635 -2.43999 -2.41646 -2.39267 -2.36781 -2.343 -2.31817 -2.29322 -2.26787 -2.24178 -2.21558 -2.18931 -2.16267 -2.13562 -2.10824 -2.08073 -2.05295 -2.02439 -1.99554 -1.96689 -1.93823 -1.90884 -1.87824 -1.84761 -1.81774 -1.78786 -1.7568 -1.72451 -1.69218 -1.66121 -1.63024 -1.59768 -1.56391 -1.53009 -1.49824 -1.46578 -1.43201 -1.39765 -1.36265 -1.3302 -1.29617 -1.26172 -1.22726 -1.19163 -1.15835 -1.12364 -1.08893 -1.05421 -1.01914 -1.00707 -0.994623 -0.982176 -0.969729 -0.957375 -0.935348 -0.913321 -0.891293 -0.869263 -0.847158 -0.813267 -0.77952 -0.745774 -0.712028 -0.678144 -0.645326 -0.612807 -0.580299 -0.547759 -0.515158 -0.484188 -0.453324 -0.422622 -0.391898 -0.361189 -0.33263 -0.304103 -0.275742 -0.247469 -0.219222 -0.193613 -0.168038 -0.142623 -0.117346 -0.0920983 -0.0699178 -0.0478232 -0.0259395 -0.00410492 0.0176784 0.0360499 0.0541907 0.0722013 0.0901922 0.108162 0.122466 0.13642 0.150351 0.16426 0.178201 0.18827 0.198126 0.207957 0.217766 0.227596 0.231344 0.235022 0.238692 0.242353 0.246603 0.248774 0.250941 0.253106 0.255267 0.256337 0.259819 0.262286 0.264729 0.267148 0.265839 0.26844 0.267735 0.267009 0.266261 0.259831 0.261364 0.258011 0.254638 0.251246 0.240873 0.241249 0.235615 0.229965 0.2241 0.210709 0.208939 0.202259 0.194975 0.186373 0.172561 0.169079 0.160938 0.150927 0.138149 0.120439 0.111487 0.103132 0.0952678 0.0872832 0.0791883 0.0771157 0.0700292 0.0555457 0.0355771 0.0125943
-10.3917 -10.3921 -10.3925 -10.3929 -10.3933 -10.3937 -10.3983 -10.403 -10.4077 -10.4124 -10.4171 -10.4218 -10.4265 -10.4312 -10.4359 -10.4406 -10.4454 -10.4501 -10.4548 -10.4596 -10.4643 -10.4691 -10.4739 -10.4787 -10.4835 -10.4883 -10.4932 -10.4981 -10.503 -10.5079 -10.5127 -10.5177 -10.5227 -10.5277 -10.5327 -10.5377 -10.5428 -10.548 -10.5531 -10.5582 -10.5633 -10.5686 -10.574 -10.5793 -10.5846 -10.5898 -10.5953 -10.6009 -10.6064 -10.6119 -10.6173 -10.623 -10.6288 -10.6346 -10.6403 -10.646 -10.6519 -10.6579 -10.664 -10.6699 -10.6757 -10.6819 -10.6881 -10.6945 -10.7006 -10.7066 -10.7129 -10.7192 -10.7256 -10.7317 -10.7376 -10.7436 -10.7498 -10.7566 -10.7632 -10.7698 -10.7762 -10.7824 -10.7883 -10.7934 -10.7983 -10.803 -10.8073 -10.8109 -10.8139 -10.8167 -10.8195 -10.8224 -10.8253 -10.8283 -10.8313 -10.8341 -10.8369 -10.8398 -10.8425 -10.8452 -10.847 -10.8488 -10.8505 -10.8524 -10.8542 -10.8546 -10.8552 -10.8561 -10.8575 -10.8592 -10.859 -10.8592 -10.8599 -10.8612 -10.863 -10.8629 -10.8632 -10.8639 -10.8652 -10.867 -10.8672 -10.8677 -10.8686 -10.87 -10.8719 -10.8726 -10.8736 -10.875 -10.8767 -10.8789 -10.8802 -10.882 -10.8839 -10.8861 -10.8888 -10.8909 -10.8935 -10.8962 -10.8991 -10.9023 -10.9053 -10.9087 -10.9123 -10.9159 -10.9198 -10.9236 -10.9279 -10.9323 -10.9367 -10.9413 -10.9458 -10.9509 -10.9561 -10.9612 -10.9665 -10.9717 -10.9775 -10.9833 -10.9891 -10.995 -11.0008 -11.0072 -11.0135 -11.0199 -11.0262 -11.0325 -11.0393 -11.046 -11.0527 -11.0594 -11.066 -11.073 -11.0799 -11.0869 -11.0938 -11.1006 -11.1076 -11.1146 -11.1216 -11.1286 -11.1354 -11.1423 -11.1492 -11.1561 -11.163 -11.1661 -11.1692 -11.1723 -11.1755 -11.1783 -11.1819 -11.1855 -11.1891 -11.1927 -11.1964 -11.2027 -11.209 -11.2153 -11.2216 -11.2279 -11.2339 -11.2396 -11.2454 -11.2511 -11.2569 -11.2624 -11.2675 -11.2725 -11.2776 -11.2827 -11.2877 -11.2919 -11.2962 -11.3004 -11.3046 -11.3087 -11.3123 -11.3156 -11.3188 -11.3219 -11.325 -11.328 -11.3301 -11.332 -11.3339 -11.3359 -11.3379 -11.3389 -11.3393 -11.3397 -11.3404 -11.3411 -11.341 -11.3397 -11.3385 -11.3377 -11.3365 -11.3348 -11.3323 -11.3291 -11.3265 -11.3229 -11.3191 -11.3154 -11.3104 -11.3053 -11.2994 -11.2935 -11.2876 -11.2827 -11.2823 -11.282 -11.2816 -11.2813 -11.2808 -11.2726 -11.2644 -11.2561 -11.248 -11.2379 -11.2292 -11.218 -11.2068 -11.1943 -11.1802 -11.1682 -11.1563 -11.1411 -11.1232 -11.1052 -11.0894 -11.0731 -11.0536 -11.0326 -11.0102 -10.9898 -10.9652 -10.9407 -10.9163 -10.8947 -10.8942 -10.8937 -10.8931 -10.8926 -10.892 -10.8636 -10.8352 -10.8069 -10.7783 -10.7451 -10.7139 -10.6826 -10.6473 -10.6075 -10.5677 -10.5299 -10.49 -10.4462 -10.4024 -10.356 -10.3416 -10.3256 -10.3091 -10.2925 -10.2768 -10.2435 -10.2104 -10.1773 -10.143 -10.1064 -10.052 -9.99777 -9.93974 -9.87772 -9.81566 -9.76171 -9.70506 -9.64605 -9.58711 -9.53508 -9.5244 -9.51372 -9.50304 -9.49209 -9.48051 -9.40601 -9.33071 -9.25552 -9.17727 -9.09636 -9.01401 -8.93177 -8.84429 -8.75592 -8.66653 -8.62976 -8.59193 -8.5531 -8.51428 -8.47726 -8.42128 -8.36534 -8.30944 -8.25215 -8.19288 -8.09273 -7.99269 -7.89062 -7.78575 -7.68063 -7.60042 -7.51957 -7.43795 -7.35638 -7.28155 -7.25321 -7.22488 -7.19656 -7.16807 -7.13939 -7.02762 -6.91696 -6.8064 -6.69816 -6.58976 -6.48496 -6.38301 -6.28517 -6.18745 -6.0991 -6.09024 -6.08139 -6.07254 -6.06402 -6.05577 -5.95431 -5.85421 -5.75418 -5.66239 -5.57374 -5.48148 -5.3939 -5.3161 -5.23832 -5.16101 -5.15901 -5.15714 -5.15553 -5.15391 -5.15229 -5.08351 -5.01471 -4.9459 -4.88345 -4.82609 -4.76513 -4.70475 -4.65366 -4.60261 -4.55679 -4.54403 -4.53223 -4.52146 -4.51068 -4.49958 -4.46594 -4.43226 -4.39853 -4.36659 -4.33743 -4.29639 -4.25524 -4.2192 -4.18702 -4.15491 -4.12151 -4.09014 -4.0596 -4.02894 -3.99891 -3.99728 -3.99573 -3.99421 -3.99269 -3.99115 -3.96521 -3.93923 -3.91321 -3.88733 -3.86329 -3.83667 -3.81086 -3.78741 -3.76528 -3.74324 -3.72013 -3.69699 -3.67468 -3.65454 -3.63502 -3.61451 -3.59441 -3.5744 -3.55438 -3.53578 -3.52462 -3.51356 -3.5025 -3.49144 -3.47833 -3.47132 -3.46432 -3.45731 -3.45031 -3.44341 -3.42547 -3.408 -3.39055 -3.37312 -3.35586 -3.33787 -3.32101 -3.30418 -3.28735 -3.27054 -3.25304 -3.23586 -3.21917 -3.20235 -3.1855 -3.16804 -3.15059 -3.13349 -3.11619 -3.0989 -3.08108 -3.06327 -3.04524 -3.02715 -3.00906 -2.99052 -2.97197 -2.95284 -2.93365 -2.91445 -2.89488 -2.875 -2.85471 -2.83432 -2.81374 -2.79286 -2.77128 -2.74959 -2.72789 -2.70579 -2.68309 -2.65981 -2.63652 -2.6132 -2.58974 -2.58336 -2.57685 -2.57033 -2.56382 -2.55763 -2.53927 -2.52089 -2.50251 -2.48412 -2.46538 -2.43922 -2.41269 -2.38615 -2.35959 -2.33217 -2.30459 -2.27644 -2.24809 -2.21925 -2.18996 -2.16064 -2.13129 -2.10108 -2.07012 -2.03911 -2.00812 -1.9771 -1.94538 -1.9129 -1.88032 -1.84782 -1.8149 -1.78171 -1.7485 -1.71469 -1.68987 -1.66474 -1.6396 -1.61446 -1.59133 -1.58185 -1.57237 -1.56289 -1.5534 -1.54382 -1.50917 -1.47439 -1.43961 -1.40481 -1.36969 -1.33475 -1.29969 -1.26449 -1.22926 -1.19398 -1.15893 -1.12386 -1.08894 -1.05401 -1.01906 -0.984368 -0.94997 -0.915796 -0.88162 -0.847502 -0.827298 -0.807551 -0.787805 -0.768057 -0.748543 -0.735214 -0.721885 -0.708555 -0.695226 -0.682163 -0.650444 -0.618969 -0.587494 -0.556231 -0.525857 -0.495933 -0.466138 -0.43696 -0.409131 -0.381314 -0.353987 -0.326662 -0.300879 -0.276082 -0.251401 -0.22722 -0.204501 -0.18229 -0.160086 -0.138633 -0.128221 -0.11871 -0.1092 -0.0996935 -0.0897228 -0.0806046 -0.0714898 -0.0623783 -0.0532702 -0.0447386 -0.0290707 -0.0139792 0.00109364 0.0160026 0.0293612 0.0416476 0.0533605 0.0644622 0.074255 0.083666 0.0921532 0.100625 0.107765 0.113566 0.119335 0.124341 0.129224 0.132814 0.13568 0.138275 0.140252 0.141403 0.14212 0.14281 0.14276 0.141997 0.140385 0.138755 0.137109 0.135284 0.13331 0.131016 0.128715 0.126409 0.123744 0.122559 0.121371 0.120181 0.11899 0.117753 0.112815 0.10804 0.103253 0.0984534 0.0936876 0.087151 0.0805086 0.0738557 0.0671925 0.0588568 0.048645 0.0448993 0.0411852 0.0385482 0.0402808 0.0411691 0.0372976 0.0306823 0.0182389 0
-10.3851 -10.3855 -10.3858 -10.3862 -10.3865 -10.3869 -10.3914 -10.3959 -10.4004 -10.4048 -10.4093 -10.4138 -10.4183 -10.4228 -10.4273 -10.4317 -10.4362 -10.4407 -10.4452 -10.4497 -10.4542 -10.4587 -10.4633 -10.4678 -10.4723 -10.4768 -10.4814 -10.486 -10.4905 -10.4951 -10.4996 -10.5043 -10.5089 -10.5135 -10.5182 -10.5227 -10.5274 -10.5321 -10.5368 -10.5415 -10.5461 -10.5508 -10.5556 -10.5604 -10.5651 -10.5698 -10.5746 -10.5794 -10.5842 -10.5891 -10.5938 -10.5986 -10.6035 -10.6083 -10.6132 -10.6179 -10.6227 -10.6276 -10.6324 -10.6373 -10.642 -10.6467 -10.6515 -10.6563 -10.6611 -10.6657 -10.6702 -10.6748 -10.6793 -10.6839 -10.6883 -10.6926 -10.6972 -10.7018 -10.7063 -10.7109 -10.7154 -10.72 -10.7247 -10.7293 -10.7338 -10.738 -10.742 -10.7459 -10.7499 -10.7535 -10.7568 -10.76 -10.7631 -10.7663 -10.7692 -10.772 -10.7747 -10.7773 -10.78 -10.7825 -10.7848 -10.787 -10.7892 -10.7914 -10.7935 -10.7953 -10.797 -10.7987 -10.8005 -10.8021 -10.8037 -10.8051 -10.8066 -10.808 -10.8095 -10.811 -10.8124 -10.8138 -10.8152 -10.8166 -10.8181 -10.8196 -10.8211 -10.8226 -10.8241 -10.8258 -10.8275 -10.8292 -10.8309 -10.8326 -10.8346 -10.8367 -10.8387 -10.8408 -10.8428 -10.8452 -10.8477 -10.8502 -10.8527 -10.8552 -10.8581 -10.861 -10.864 -10.867 -10.8699 -10.8734 -10.8768 -10.8803 -10.8837 -10.8872 -10.8898 -10.8924 -10.8951 -10.8977 -10.9 -10.9014 -10.9028 -10.9041 -10.9055 -10.9069 -10.9112 -10.9156 -10.9199 -10.9243 -10.9287 -10.9333 -10.938 -10.9427 -10.9474 -10.9521 -10.9571 -10.962 -10.9669 -10.9718 -10.9768 -10.9819 -10.9869 -10.9919 -10.9969 -11.0021 -11.0073 -11.0122 -11.0172 -11.0222 -11.0273 -11.0324 -11.0372 -11.042 -11.0468 -11.0518 -11.0568 -11.0613 -11.0658 -11.0703 -11.0749 -11.0796 -11.0837 -11.0877 -11.0918 -11.0959 -11.1001 -11.1038 -11.1073 -11.1107 -11.1142 -11.1177 -11.1209 -11.1237 -11.1264 -11.129 -11.1317 -11.1344 -11.1363 -11.138 -11.1398 -11.1415 -11.1433 -11.1443 -11.145 -11.1456 -11.1463 -11.147 -11.1471 -11.1465 -11.1459 -11.1453 -11.1447 -11.1437 -11.1418 -11.1397 -11.1377 -11.1354 -11.1329 -11.1298 -11.1262 -11.1225 -11.1182 -11.1139 -11.1096 -11.1042 -11.0984 -11.092 -11.0856 -11.0793 -11.0726 -11.0687 -11.0645 -11.0604 -11.0563 -11.0525 -11.0481 -11.0437 -11.0392 -11.0348 -11.0301 -11.0198 -11.0088 -10.998 -10.9871 -10.9751 -10.963 -10.9495 -10.9357 -10.921 -10.9057 -10.8904 -10.8751 -10.8577 -10.8386 -10.8196 -10.8006 -10.7816 -10.7605 -10.7376 -10.7144 -10.6912 -10.6661 -10.6403 -10.6146 -10.5874 -10.5721 -10.5553 -10.5385 -10.5217 -10.5063 -10.4925 -10.4788 -10.465 -10.4513 -10.436 -10.4026 -10.3675 -10.3324 -10.296 -10.2571 -10.2185 -10.1799 -10.138 -10.0926 -10.0472 -10.0021 -9.95493 -9.905 -9.85514 -9.80328 -9.78163 -9.75808 -9.73425 -9.71042 -9.68778 -9.65555 -9.62336 -9.5912 -9.55839 -9.52266 -9.46274 -9.4014 -9.3393 -9.27136 -9.20295 -9.1353 -9.06641 -8.99241 -8.91842 -8.84248 -8.81582 -8.78769 -8.75877 -8.72987 -8.70183 -8.65072 -8.59964 -8.5486 -8.49576 -8.44014 -8.35527 -8.27044 -8.18223 -8.08951 -7.99672 -7.92253 -7.84589 -7.76693 -7.68799 -7.61271 -7.59338 -7.57406 -7.55474 -7.53479 -7.51431 -7.4127 -7.31099 -7.2093 -7.10377 -6.99759 -6.89405 -6.78956 -6.68366 -6.57778 -6.475 -6.47084 -6.46668 -6.46252 -6.45832 -6.45411 -6.34322 -6.23265 -6.12209 -6.01324 -5.90501 -5.7994 -5.69626 -5.59849 -5.50073 -5.40474 -5.39909 -5.39345 -5.3878 -5.38239 -5.37724 -5.27993 -5.18369 -5.08745 -4.99945 -4.91819 -4.83272 -4.74778 -4.68005 -4.61366 -4.5527 -4.53125 -4.5126 -4.49655 -4.48049 -4.4641 -4.42655 -4.38899 -4.35143 -4.3176 -4.28998 -4.24502 -4.20001 -4.16402 -4.13586 -4.1077 -4.07696 -4.05002 -4.02564 -4.00118 -3.978 -3.97569 -3.97366 -3.97171 -3.96976 -3.96777 -3.94978 -3.93178 -3.91377 -3.89614 -3.88101 -3.86249 -3.8446 -3.82915 -3.81512 -3.80111 -3.78599 -3.77091 -3.7563 -3.74292 -3.73053 -3.7174 -3.70419 -3.69098 -3.67778 -3.66492 -3.66301 -3.66105 -3.6591 -3.65714 -3.65511 -3.64451 -3.63392 -3.62334 -3.61278 -3.60212 -3.58903 -3.57677 -3.56453 -3.55219 -3.53959 -3.5266 -3.51378 -3.50142 -3.48855 -3.47566 -3.46248 -3.44932 -3.43594 -3.42241 -3.40889 -3.39515 -3.38135 -3.36685 -3.35238 -3.33791 -3.32329 -3.3081 -3.29262 -3.27714 -3.26144 -3.24543 -3.22868 -3.21193 -3.19516 -3.17828 -3.17217 -3.16585 -3.15954 -3.15322 -3.14713 -3.13532 -3.12351 -3.11169 -3.09986 -3.0877 -3.06836 -3.04869 -3.02901 -3.00931 -2.98866 -2.96792 -2.94659 -2.92503 -2.90286 -2.88022 -2.85759 -2.83494 -2.81125 -2.7866 -2.7619 -2.73728 -2.71263 -2.68689 -2.66028 -2.63349 -2.60682 -2.57933 -2.5515 -2.52364 -2.49505 -2.47898 -2.46239 -2.44579 -2.42918 -2.41394 -2.40067 -2.3874 -2.37412 -2.36083 -2.34715 -2.31651 -2.28534 -2.25416 -2.22273 -2.19047 -2.15847 -2.12635 -2.09335 -2.05952 -2.02564 -1.99207 -1.95842 -1.92401 -1.88916 -1.85393 -1.82078 -1.78703 -1.75326 -1.71947 -1.6888 -1.68643 -1.68407 -1.6817 -1.67934 -1.67693 -1.64104 -1.60509 -1.56913 -1.53313 -1.49673 -1.46069 -1.42456 -1.38815 -1.35163 -1.31506 -1.27886 -1.24268 -1.20663 -1.17052 -1.13427 -1.10855 -1.08315 -1.05778 -1.03241 -1.00784 -0.997635 -0.987431 -0.977226 -0.967026 -0.956969 -0.922445 -0.888041 -0.853632 -0.81952 -0.785955 -0.752715 -0.719472 -0.687039 -0.655497 -0.623946 -0.592712 -0.562291 -0.532719 -0.503149 -0.47413 -0.462859 -0.452344 -0.441901 -0.431459 -0.420933 -0.404495 -0.388059 -0.371625 -0.355204 -0.339987 -0.315055 -0.291425 -0.267837 -0.245701 -0.224467 -0.203397 -0.182334 -0.163307 -0.146359 -0.129439 -0.112572 -0.0971947 -0.0828018 -0.0684191 -0.0553011 -0.049486 -0.0446508 -0.0398186 -0.0349896 -0.0298829 -0.0239713 -0.0180661 -0.0121675 -0.00627541 -0.00139097 0.00713604 0.0146201 0.0220769 0.0289459 0.0343787 0.0400151 0.0454903 0.0497396 0.0524049 0.0550393 0.0578943 0.0607268 0.0623393 0.0628702 0.0633735 0.0640455 0.0640971 0.0635818 0.0629982 0.0620001 0.0609031 0.0589854 0.0570496 0.0550957 0.0531116 0.052246 0.0512484 0.0502485 0.0492465 0.0481624 0.0464889 0.0448098 0.0431252 0.041435 0.0395337 0.0361093 0.0326774 0.0292346 0.0257811 0.0209228 0.0157144 0.0143118 0.0129106 0.0124187 0.014718 0.0171479 0.0175383 0.0159081 0.00924918 0