# vtk DataFile Version 2.0
track0
ASCII
DATASET POLYDATA
POINTS 6535 float
-0.0205 0.001 1e-05
-0.0204727 0.0010001 1e-05
-0.0204454 0.00100021 1e-05
-0.0204181 0.00100031 1e-05
-0.0203908 0.00100042 1e-05
-0.0203635 0.00100052 1e-05
-0.0200299 0.00100177 1e-05
-0.0196963 0.00100307 1e-05
-0.0193627 0.00100435 1e-05
-0.0190291 0.00100562 1e-05
-0.0186954 0.00100688 1e-05
-0.018369 0.00100804 1e-05
-0.0180425 0.00100925 1e-05
-0.017716 0.00101044 1e-05
-0.0173896 0.00101163 1e-05
-0.0170631 0.00101279 1e-05
-0.0167436 0.00101388 1e-05
-0.0164242 0.001015 1e-05
-0.0161047 0.00101611 1e-05
-0.0157852 0.00101721 1e-05
-0.0154657 0.00101829 1e-05
-0.0151531 0.0010193 1e-05
-0.0148405 0.00102034 1e-05
-0.0145279 0.00102137 1e-05
-0.0142152 0.0010224 1e-05
-0.0139026 0.0010234 1e-05
-0.0135967 0.00102433 1e-05
-0.0132908 0.0010253 1e-05
-0.0129848 0.00102625 1e-05
-0.0126789 0.0010272 1e-05
-0.012373 0.00102813 1e-05
-0.0120736 0.00102899 1e-05
-0.0117742 0.00102988 1e-05
-0.0114749 0.00103077 1e-05
-0.0111755 0.00103165 1e-05
-0.0108761 0.0010325 1e-05
-0.0105832 0.0010333 1e-05
-0.0102902 0.00103412 1e-05
-0.00999724 0.00103493 1e-05
-0.00970429 0.00103574 1e-05
-0.00941133 0.00103653 1e-05
-0.00912465 0.00103725 1e-05
-0.00883797 0.001038 1e-05
-0.00855129 0.00103875 1e-05
-0.00826461 0.00103949 1e-05
-0.00797793 0.00104021 1e-05
-0.00769739 0.00104087 1e-05
-0.00741686 0.00104155 1e-05
-0.00713632 0.00104223 1e-05
-0.00685578 0.0010429 1e-05
-0.00657525 0.00104355 1e-05
-0.00630072 0.00104414 1e-05
-0.0060262 0.00104475 1e-05
-0.00575167 0.00104536 1e-05
-0.00547714 0.00104597 1e-05
-0.00520262 0.00104654 1e-05
-0.00493398 0.00104706 1e-05
-0.00466533 0.0010476 1e-05
-0.00439669 0.00104814 1e-05
-0.00412805 0.00104867 1e-05
-0.0038594 0.00104917 1e-05
-0.00359652 0.00104962 1e-05
-0.00333363 0.00105009 1e-05
-0.00307074 0.00105056 1e-05
-0.00280786 0.00105101 1e-05
-0.00254497 0.00105145 1e-05
-0.00228772 0.00105182 1e-05
-0.00203046 0.0010522 1e-05
-0.00177321 0.00105257 1e-05
-0.00151596 0.00105291 1e-05
-0.0012587 0.00105323 1e-05
-0.00100696 0.00105349 1e-05
-0.000755223 0.00105381 1e-05
-0.000503482 0.00105404 1e-05
-0.000251741 0.00105413 1e-05
0 0.00105403 1e-05
0.000329256 0.00105358 1e-05
0.000658511 0.00105325 1e-05
0.000987767 0.00105282 1e-05
0.00131702 0.00105214 1e-05
0.00164628 0.00105114 1e-05
0.00197921 0.00104964 1e-05
0.00231214 0.00104866 1e-05
0.00264507 0.00104777 1e-05
0.002978 0.00104678 1e-05
0.00331093 0.0010455 1e-05
0.00364757 0.00104352 1e-05
0.00398422 0.0010422 1e-05
0.00432087 0.00104103 1e-05
0.00465752 0.0010398 1e-05
0.00499415 0.00103828 1e-05
0.00533455 0.00103595 1e-05
0.00567496 0.00103425 1e-05
0.00601536 0.00103268 1e-05
0.00635577 0.00103104 1e-05
0.00669616 0.00102916 1e-05
0.00704036 0.00102643 1e-05
0.00738456 0.00102427 1e-05
0.00772877 0.00102218 1e-05
0.00807297 0.00102002 1e-05
0.00841716 0.00101767 1e-05
0.0087652 0.00101451 1e-05
0.00911325 0.00101183 1e-05
0.00946129 0.00100915 1e-05
0.00980933 0.00100639 1e-05
0.0101574 0.00100348 1e-05
0.0105093 0.000999847 1e-05
0.0108612 0.000996593 1e-05
0.0112131 0.00099327 1e-05
0.0115651 0.000989852 1e-05
0.011917 0.00098634 1e-05
0.0122728 0.000982196 1e-05
0.0126287 0.000978309 1e-05
0.0129845 0.000974324 1e-05
0.0133404 0.00097024 1e-05
0.0136962 0.000966054 1e-05
0.0140561 0.000961378 1e-05
0.0144159 0.000956838 1e-05
0.0147757 0.000952199 1e-05
0.0151355 0.00094746 1e-05
0.0154954 0.000942619 1e-05
0.0158592 0.000937404 1e-05
0.016223 0.000932232 1e-05
0.0165869 0.000926964 1e-05
0.0169507 0.000921598 1e-05
0.0173145 0.000916134 1e-05
0.0176824 0.000910384 1e-05
0.0180503 0.000904612 1e-05
0.0184182 0.000898748 1e-05
0.0187861 0.00089279 1e-05
0.019154 0.000886738 1e-05
0.019526 0.000880463 1e-05
0.019898 0.000874125 1e-05
0.02027 0.000867697 1e-05
0.020642 0.00086118 1e-05
0.0210141 0.000854573 1e-05
0.0213762 0.000848034 1e-05
0.0217383 0.000841417 1e-05
0.0221004 0.00083472 1e-05
0.0224625 0.000827942 1e-05
0.0227825 0.00082188 1e-05
0.0228049 0.00082145 1e-05
0.0228274 0.000821019 1e-05
0.0228499 0.000820588 1e-05
0.0228724 0.000820157 1e-05
0.0228948 0.000819725 1e-05
0.0232752 0.00081242 1e-05
0.0236555 0.000805024 1e-05
0.0240359 0.00079754 1e-05
0.0244162 0.000789967 1e-05
0.0247966 0.000782303 1e-05
0.0251812 0.000774545 1e-05
0.0255658 0.000766635 1e-05
0.0259504 0.000758632 1e-05
0.026335 0.000750537 1e-05
0.0267196 0.000742349 1e-05
0.0271085 0.000734121 1e-05
0.0274973 0.000725688 1e-05
0.0278862 0.000717158 1e-05
0.0282751 0.000708528 1e-05
0.028664 0.000699798 1e-05
0.0290572 0.000691067 1e-05
0.0294505 0.000682088 1e-05
0.0298437 0.000673001 1e-05
0.0302369 0.000663807 1e-05
0.0306301 0.000654502 1e-05
0.0310278 0.000645219 1e-05
0.0314254 0.000635664 1e-05
0.031823 0.000625977 1e-05
0.0322206 0.00061617 1e-05
0.0326182 0.000606291 1e-05
0.0330203 0.000596394 1e-05
0.0334223 0.000586232 1e-05
0.0338244 0.000575884 1e-05
0.0342264 0.000565402 1e-05
0.0346285 0.000554881 1e-05
0.035035 0.000544294 1e-05
0.0354416 0.000533443 1e-05
0.0358481 0.000522359 1e-05
0.0362546 0.000511124 1e-05
0.0366612 0.000499872 1e-05
0.0370722 0.000488507 1e-05
0.0374833 0.000476875 1e-05
0.0378944 0.000464975 1e-05
0.0383054 0.000452919 1e-05
0.0387166 0.000440837 1e-05
0.0391322 0.000428597 1e-05
0.0395479 0.00041608 1e-05
0.0399635 0.000403288 1e-05
0.0403792 0.000390327 1e-05
0.0407949 0.000377306 1e-05
0.0412152 0.000364082 1e-05
0.0416355 0.000350569 1e-05
0.0420557 0.000336766 1e-05
0.042476 0.000322783 1e-05
0.0428964 0.000308704 1e-05
0.0433214 0.000294376 1e-05
0.0437463 0.000279743 1e-05
0.0441713 0.000264834 1e-05
0.0445963 0.000249729 1e-05
0.0450213 0.000234465 1e-05
0.0454511 0.000218903 1e-05
0.0458808 0.000203016 1e-05
0.0463105 0.000186876 1e-05
0.0467402 0.000170512 1e-05
0.04717 0.000153923 1e-05
0.0476045 0.000136985 1e-05
0.048039 0.000119715 1e-05
0.0484735 0.000102191 1e-05
0.048908 8.4415e-05 1e-05
0.0493426 6.63795e-05 1e-05
0.0496585 5.31036e-05 1e-05
0.0499743 3.96579e-05 1e-05
0.0502901 2.60651e-05 1e-05
0.050606 1.23247e-05 1e-05
0.0508862 1.69407e-21 1e-05
0.0510169 -5.80059e-06 1e-05
0.0511475 -1.16259e-05 1e-05
0.0512782 -1.74761e-05 1e-05
0.0514089 -2.3351e-05 1e-05
0.0515395 -2.92513e-05 1e-05
0.0519838 -4.93817e-05 1e-05
0.0524281 -6.98353e-05 1e-05
0.0528723 -9.06007e-05 1e-05
0.0533166 -0.000111679 1e-05
0.0537609 -0.000133077 1e-05
0.0542102 -0.000154963 1e-05
0.0546594 -0.000177246 1e-05
0.0551086 -0.000199877 1e-05
0.0555578 -0.000222858 1e-05
0.0560071 -0.00024619 1e-05
0.0564614 -0.00027003 1e-05
0.0569156 -0.000294316 1e-05
0.0573698 -0.000319012 1e-05
0.057824 -0.000344097 1e-05
0.0582784 -0.000369529 1e-05
0.0587377 -0.00039554 1e-05
0.059197 -0.000422032 1e-05
0.0596562 -0.000449007 1e-05
0.0601155 -0.000476405 1e-05
0.060575 -0.000504168 1e-05
0.0610394 -0.000532589 1e-05
0.0615038 -0.000561532 1e-05
0.0619682 -0.000590998 1e-05
0.0624326 -0.000620922 1e-05
0.0628972 -0.000651275 1e-05
0.0633668 -0.000682372 1e-05
0.0638364 -0.000714037 1e-05
0.064306 -0.000746244 1e-05
0.0647755 -0.000778951 1e-05
0.0652453 -0.000812181 1e-05
0.0657202 -0.00084625 1e-05
0.066195 -0.000880936 1e-05
0.0666698 -0.000916184 1e-05
0.0671446 -0.000951997 1e-05
0.0676197 -0.000988411 1e-05
0.0677094 -0.000995397 1e-05
0.0677992 -0.00100241 1e-05
0.0678889 -0.00100944 1e-05
0.0679786 -0.00101649 1e-05
0.0680655 -0.00102334 1e-05
0.0684565 -0.00105426 1e-05
0.0688475 -0.0010856 1e-05
0.0692384 -0.00111734 1e-05
0.0696293 -0.0011495 1e-05
0.0700205 -0.0011821 1e-05
0.070506 -0.00122303 1e-05
0.0709915 -0.00126469 1e-05
0.0714769 -0.00130704 1e-05
0.0719623 -0.0013501 1e-05
0.0724481 -0.00139387 1e-05
0.0729391 -0.00143874 1e-05
0.07343 -0.00148443 1e-05
0.0739208 -0.00153094 1e-05
0.0744115 -0.00157821 1e-05
0.0749029 -0.00162628 1e-05
0.0753993 -0.00167558 1e-05
0.0758956 -0.00172578 1e-05
0.0763919 -0.00177688 1e-05
0.076888 -0.00182884 1e-05
0.077385 -0.00188173 1e-05
0.0778601 -0.0019331 1e-05
0.0783351 -0.00198537 1e-05
0.07881 -0.0020385 1e-05
0.0792849 -0.00209249 1e-05
0.0796837 -0.00213858 1e-05
0.0797259 -0.00214352 1e-05
0.0797681 -0.00214848 1e-05
0.0798104 -0.00215343 1e-05
0.0798526 -0.0021584 1e-05
0.0798948 -0.00216337 1e-05
0.0804024 -0.00222323 1e-05
0.0809098 -0.00228414 1e-05
0.0814171 -0.00234609 1e-05
0.0819243 -0.00240909 1e-05
0.0824326 -0.00247331 1e-05
0.0829458 -0.00253921 1e-05
0.0834589 -0.00260631 1e-05
0.0839718 -0.00267463 1e-05
0.0844846 -0.00274412 1e-05
0.0849987 -0.00281498 1e-05
0.0855177 -0.00288771 1e-05
0.0860365 -0.00296178 1e-05
0.086555 -0.00303721 1e-05
0.0870734 -0.00311396 1e-05
0.0875935 -0.00319237 1e-05
0.0878042 -0.00322469 1e-05
0.0880149 -0.00325725 1e-05
0.0882256 -0.00329005 1e-05
0.0884362 -0.00332309 1e-05
0.0886316 -0.00335397 1e-05
0.0889487 -0.00340443 1e-05
0.0892658 -0.00345543 1e-05
0.0895827 -0.00350696 1e-05
0.0898996 -0.00355904 1e-05
0.0902172 -0.00361181 1e-05
0.0907478 -0.00370089 1e-05
0.0912782 -0.00379162 1e-05
0.0918082 -0.00388402 1e-05
0.0923379 -0.00397806 1e-05
0.0928702 -0.00407425 1e-05
0.0934068 -0.00417295 1e-05
0.0939429 -0.00427353 1e-05
0.0944787 -0.00437601 1e-05
0.0950142 -0.00448037 1e-05
0.0955528 -0.00458739 1e-05
0.0956429 -0.00460561 1e-05
0.0957329 -0.0046239 1e-05
0.0958228 -0.00464224 1e-05
0.0959128 -0.00466063 1e-05
0.096 -0.00467851 1e-05
0.0964531 -0.00477175 1e-05
0.0969058 -0.00486641 1e-05
0.0973583 -0.00496252 1e-05
0.0978105 -0.00506013 1e-05
0.0982654 -0.0051599 1e-05
0.098814 -0.00528209 1e-05
0.099362 -0.0054067 1e-05
0.0999094 -0.0055338 1e-05
0.100456 -0.00566334 1e-05
0.101008 -0.00579657 1e-05
0.101273 -0.00586166 1e-05
0.101537 -0.00592738 1e-05
0.101801 -0.00599372 1e-05
0.102065 -0.00606066 1e-05
0.102305 -0.006122 1e-05
0.1026 -0.00619831 1e-05
0.102895 -0.00627539 1e-05
0.10319 -0.00635325 1e-05
0.103485 -0.00643192 1e-05
0.103782 -0.00651189 1e-05
0.104342 -0.00666455 1e-05
0.104903 -0.00682027 1e-05
0.105462 -0.00697918 1e-05
0.10602 -0.00714099 1e-05
0.106586 -0.00730793 1e-05
[...]
POINT_DATA 6535
 FIELD attributes 1
U 3 6535 float
6.82323 	0.0261972 	0 6.81228 	0.026043 	0 6.80134 	0.0258888 	0 6.7904 	0.0257345 	0 6.77945 	0.0255803 	0 6.76851 	0.025426 	0 6.89902 	0.0267262 	0 6.90335 	0.0265643 	0 6.89897 	0.0263014 	0 6.88316 	0.0259078 	0 6.74623 	0.0241287 	0 6.87678 	0.0253236 	0 6.88636 	0.0252152 	0 6.88221 	0.0249589 	0 6.86194 	0.0245309 	0 6.72516 	0.0228623 	0 6.85541 	0.0239779 	0 6.86981 	0.0239149 	0 6.86588 	0.0236653 	0 6.84152 	0.0232096 	0 6.70524 	0.0216248 	0 6.83488 	0.0226789 	0 6.85368 	0.0226545 	0 6.84998 	0.0224112 	0 6.8219 	0.0219315 	0 6.68643 	0.0204106 	0 6.81522 	0.0214147 	0 6.838 	0.0214229 	0 6.83451 	0.0211842 	0 6.80309 	0.0206825 	0 6.66869 	0.0192107 	0 6.79641 	0.0201714 	0 6.82276 	0.020206 	0 6.81948 	0.0199698 	0 6.7851 	0.0194466 	0 6.652 	0.0180121 	0 6.77846 	0.018932 	0 6.80799 	0.0189864 	0 6.80491 	0.0187496 	0 6.76794 	0.0182045 	0 6.63634 	0.0167984 	0 6.76137 	0.0176768 	0 6.79369 	0.0177431 	0 6.79082 	0.0175011 	0 6.75162 	0.0169316 	0 6.62169 	0.0155443 	0 6.74516 	0.0163753 	0 6.7799 	0.0164451 	0 6.77724 	0.016194 	0 6.73619 	0.0156 	0 6.60809 	0.0142284 	0 6.72988 	0.0150108 	0 6.76666 	0.0150714 	0 6.7642 	0.0147989 	0 6.72164 	0.0141667 	0 6.59549 	0.012785 	0 6.71547 	0.0134823 	0 6.75397 	0.0135231 	0 6.75178 	0.0132361 	0 6.70815 	0.012589 	0 6.5842 	0.011244 	0 6.70229 	0.0119465 	0 6.74204 	0.0119973 	0 6.73997 	0.0117 	0 6.69546 	0.010988 	0 6.57361 	0.00952023 	0 6.68987 	0.00985842 	0 6.73098 	0.00962809 	0 6.72963 	0.00907661 	0 6.68523 	0.00823315 	0 6.56621 	0.00688355 	0 6.68085 	0.00828951 	0 6.72154 	0.00631847 	0 6.71853 	0.00235548 	0 6.6719 	-0.00257208 	0 6.55234 	-0.00911214 	0 6.6641 	-0.00656732 	0 6.69996 	-0.00878635 	0 6.69101 	-0.0138094 	0 6.63996 	-0.0202519 	0 6.51557 	-0.0291658 	0 6.62557 	-0.0196457 	0 6.6553 	-0.0177308 	0 6.64261 	-0.0198254 	0 6.5916 	-0.0253703 	0 6.46359 	-0.0378433 	0 6.57487 	-0.0258123 	0 6.59921 	-0.0229561 	0 6.58471 	-0.0241898 	0 6.536 	-0.0293286 	0 6.40395 	-0.0439731 	0 6.51568 	-0.0324157 	0 6.53297 	-0.0302302 	0 6.51642 	-0.031395 	0 6.47134 	-0.0357639 	0 6.33572 	-0.0502946 	0 6.44622 	-0.0402795 	0 6.45488 	-0.0391949 	0 6.43685 	-0.0404444 	0 6.39799 	-0.0437657 	0 6.26089 	-0.0568765 	0 6.36812 	-0.0489315 	0 6.36675 	-0.0490403 	0 6.348 	-0.0504333 	0 6.31825 	-0.0527346 	0 6.18252 	-0.0638352 	0 6.28377 	-0.0580974 	0 6.2711 	-0.059214 	0 6.25206 	-0.0607104 	0 6.23282 	-0.0622146 	0 6.10226 	-0.0710603 	0 6.18908 	-0.0675936 	0 6.17017 	-0.0690957 	0 6.15105 	-0.0706046 	0 6.13173 	-0.0721203 	0 6.02089 	-0.0782498 	0 6.08518 	-0.0767762 	0 6.06637 	-0.0782111 	0 6.04736 	-0.0796518 	0 6.02816 	-0.0810982 	0 5.93915 	-0.0851345 	0 5.98111 	-0.0850151 	0 5.96257 	-0.0863334 	0 5.94385 	-0.0876564 	0 5.92495 	-0.0889841 	0 5.85786 	-0.0915521 	0 5.87955 	-0.0922438 	0 5.86146 	-0.0934319 	0 5.8432 	-0.0946238 	0 5.82478 	-0.0958194 	0 5.77784 	-0.0974587 	0 5.78271 	-0.098535 	0 5.76523 	-0.0996112 	0 5.7476 	-0.10069 	0 5.72981 	-0.101773 	0 5.69995 	-0.102922 	0 5.6928 	-0.104024 	0 5.67671 	-0.10499 	0 5.66048 	-0.105958 	0 5.64412 	-0.106928 	0 5.62955 	-0.107787 	0 5.6285 	-0.107848 	0 5.62744 	-0.107909 	0 5.62639 	-0.10797 	0 5.62533 	-0.108031 	0 5.62435 	-0.10802 	0 5.6084 	-0.109058 	0 5.59217 	-0.11004 	0 5.5758 	-0.111023 	0 5.55928 	-0.112009 	0 5.54376 	-0.11183 	0 5.53104 	-0.113765 	0 5.51572 	-0.114767 	0 5.50027 	-0.11577 	0 5.48469 	-0.116775 	0 5.4708 	-0.115746 	0 5.4613 	-0.118421 	0 5.44691 	-0.119486 	0 5.43239 	-0.120552 	0 5.41772 	-0.121619 	0 5.40507 	-0.120007 	0 5.39872 	-0.123276 	0 5.38522 	-0.124441 	0 5.37157 	-0.125607 	0 5.35777 	-0.126773 	0 5.34595 	-0.124805 	0 5.34195 	-0.128375 	0 5.32991 	-0.129851 	0 5.31704 	-0.131146 	0 5.30437 	-0.131781 	0 5.29272 	-0.130292 	0 5.28908 	-0.133684 	0 5.28026 	-0.135902 	0 5.26805 	-0.13735 	0 5.25612 	-0.137535 	0 5.24454 	-0.136585 	0 5.24113 	-0.139888 	0 5.23539 	-0.142747 	0 5.22369 	-0.144367 	0 5.21206 	-0.144246 	0 5.20046 	-0.143776 	0 5.19721 	-0.147064 	0 5.19364 	-0.150348 	0 5.18309 	-0.152019 	0 5.17139 	-0.15198 	0 5.15966 	-0.15194 	0 5.15647 	-0.155272 	0 5.15298 	-0.158598 	0 5.14526 	-0.160436 	0 5.13334 	-0.160789 	0 5.12135 	-0.16114 	0 5.11815 	-0.16456 	0 5.11465 	-0.167975 	0 5.10942 	-0.169997 	0 5.09716 	-0.170714 	0 5.0848 	-0.17143 	0 5.08152 	-0.174972 	0 5.07747 	-0.178128 	0 5.07195 	-0.18027 	0 5.06225 	-0.181794 	0 5.04941 	-0.182858 	0 5.04595 	-0.186548 	0 5.04072 	-0.189334 	0 5.03461 	-0.191723 	0 5.028 	-0.194066 	0 5.01459 	-0.195471 	0 5.01048 	-0.199151 	0 5.00395 	-0.201803 	0 4.99717 	-0.204449 	0 4.99015 	-0.207088 	0 4.97981 	-0.209318 	0 4.97585 	-0.211831 	0 4.97069 	-0.213932 	0 4.96539 	-0.216028 	0 4.95995 	-0.21812 	0 4.955 	-0.219974 	0 4.9537 	-0.220857 	0 4.95239 	-0.221739 	0 4.95105 	-0.222621 	0 4.9497 	-0.223503 	0 4.94801 	-0.224196 	0 4.94483 	-0.227656 	0 4.94043 	-0.230927 	0 4.93579 	-0.234192 	0 4.93093 	-0.237449 	0 4.92409 	-0.239894 	0 4.92394 	-0.244245 	0 4.91889 	-0.247818 	0 4.9136 	-0.251383 	0 4.90779 	-0.254837 	0 4.89856 	-0.257086 	0 4.89955 	-0.261962 	0 4.89614 	-0.266208 	0 4.89013 	-0.270092 	0 4.8815 	-0.273216 	0 4.8711 	-0.275844 	0 4.87143 	-0.280987 	0 4.87141 	-0.286116 	0 4.86434 	-0.290202 	0 4.85297 	-0.293233 	0 4.84134 	-0.296254 	0 4.8409 	-0.301695 	0 4.8401 	-0.30712 	0 4.83444 	-0.311544 	0 4.8218 	-0.314987 	0 4.80887 	-0.31842 	0 4.80756 	-0.324188 	0 4.80371 	-0.329482 	0 4.79657 	-0.334135 	0 4.78757 	-0.338596 	0 4.77324 	-0.342459 	0 4.77029 	-0.348466 	0 4.7621 	-0.353539 	0 4.75353 	-0.358593 	0 4.74457 	-0.363627 	0 4.73386 	-0.3685 	0 4.73296 	-0.369674 	0 4.7312 	-0.370706 	0 4.72943 	-0.371736 	0 4.72764 	-0.372766 	0 4.7259 	-0.373762 	0 4.71965 	-0.37825 	0 4.71314 	-0.382724 	0 4.70638 	-0.387184 	0 4.69937 	-0.391631 	0 4.69299 	-0.395603 	0 4.68534 	-0.402054 	0 4.67606 	-0.408005 	0 4.66637 	-0.413933 	0 4.65661 	-0.419555 	0 4.64699 	-0.424718 	0 4.63812 	-0.431674 	0 4.62876 	-0.4386 	0 4.61744 	-0.44486 	0 4.60576 	-0.450519 	0 4.59365 	-0.45616 	0 4.58311 	-0.463556 	0 4.57199 	-0.470839 	0 4.56008 	-0.47751 	0 4.54665 	-0.483884 	0 4.53171 	-0.48998 	0 4.5198 	-0.497367 	0 4.5065 	-0.504123 	0 4.4927 	-0.510845 	0 4.47839 	-0.517534 	0 4.46595 	-0.523126 	0 4.46483 	-0.523719 	0 4.46371 	-0.524311 	0 4.46259 	-0.524904 	0 4.46146 	-0.525496 	0 4.4604 	-0.526053 	0 4.44686 	-0.533718 	0 4.43263 	-0.541277 	0 4.41784 	-0.548797 	0 4.40252 	-0.55624 	0 4.38682 	-0.563262 	0 4.37144 	-0.57172 	0 4.35528 	-0.580073 	0 4.33713 	-0.587804 	0 4.31798 	-0.595096 	0 4.29816 	-0.602366 	0 4.27955 	-0.611073 	0 4.25988 	-0.61957 	0 4.23866 	-0.627634 	0 4.21674 	-0.635645 	0 4.19227 	-0.643007 	0 4.18324 	-0.646536 	0 4.17351 	-0.649861 	0 4.16346 	-0.653113 	0 4.15328 	-0.656357 	0 4.14372 	-0.659359 	0 4.13036 	-0.664365 	0 4.11674 	-0.669353 	0 4.10287 	-0.674322 	0 4.08869 	-0.679223 	0 4.07403 	-0.683932 	0 4.04993 	-0.692949 	0 4.02433 	-0.701492 	0 3.99735 	-0.709614 	0 3.96856 	-0.71714 	0 3.93884 	-0.724651 	0 3.90975 	-0.733422 	0 3.87922 	-0.741877 	0 3.84671 	-0.749777 	0 3.8133 	-0.757609 	0 3.77779 	-0.76491 	0 3.77199 	-0.766278 	0 3.76596 	-0.767558 	0 3.75974 	-0.76876 	0 3.75349 	-0.769961 	0 3.74742 	-0.771122 	0 3.71981 	-0.777674 	0 3.6916 	-0.784189 	0 3.66276 	-0.790664 	0 3.63318 	-0.796796 	0 3.6026 	-0.802492 	0 3.56518 	-0.810683 	0 3.52673 	-0.818802 	0 3.4868 	-0.825921 	0 3.4445 	-0.831495 	0 3.40077 	-0.837068 	0 3.37963 	-0.840481 	0 3.35814 	-0.843536 	0 3.33625 	-0.846052 	0 3.31411 	-0.84855 	0 3.29377 	-0.850802 	0 3.27143 	-0.85416 	0 3.2488 	-0.8575 	0 3.22586 	-0.860824 	0 3.20316 	-0.863483 	0 3.18041 	-0.865661 	0 3.1353 	-0.871821 	0 3.08904 	-0.877899 	0 3.04216 	-0.881707 	0 2.99498 	-0.883286 	0 2.94609 	-0.884831 	0 2.92275 	-0.886636 	0 2.89946 	-0.887982 	0 2.87683 	-0.887957 	0 2.854 	-0.887915 	0 2.83286 	-0.88786 	0 2.80758 	-0.888911 	0 2.78201 	-0.889945 	0 2.75612 	-0.890961 	0 2.73158 	-0.890263 	0 2.70723 	-0.888862 	0 2.65999 	-0.889221 	0 2.61175 	-0.889497 	0 2.56546 	-0.88605 	0 2.51916 	-0.880112 	0 2.47122 	-0.873483 	0 2.45946 	-0.872654 	0 2.44775 	-0.871659 	0 2.43674 	-0.869573 	0 2.4257 	-0.867484 	0 2.41495 	-0.865452 	0 2.38248 	-0.860702 	0 2.34969 	-0.855931 	0 2.31657 	-0.85114 	0 2.28549 	-0.843269 	0 2.25458 	-0.834511 	0 2.21291 	-0.826352 	0 2.17126 	-0.817404 	0 2.13159 	-0.804623 	0 2.09178 	-0.791825 	0 2.05418 	-0.779764 	0 2.05278 	-0.779352 	0 2.05138 	-0.778939 	0 2.04998 	-0.778526 	0 2.04867 	-0.777989 	0 2.04739 	-0.777414 	0 2.0113 	-0.764252 	0 1.97503 	-0.750709 	0 1.93874 	-0.737166 	0 1.9044 	-0.720671 	0 1.87063 	-0.70367 	0 1.84318 	-0.692713 	0 1.81604 	-0.681316 	0 1.78995 	-0.668334 	0 1.76403 	-0.655369 	0 1.73775 	-0.642155 	0 1.73135 	-0.63871 	0 1.72496 	-0.635266 	0 1.71858 	-0.631824 	0 1.71258 	-0.628016 	0 1.7068 	-0.624033 	0 1.67831 	-0.609183 	0 1.64964 	-0.593103 	0 1.62134 	-0.576799 	0 1.59544 	-0.558834 	0 1.5704 	-0.54111 	0 1.54761 	-0.528442 	0 1.5257 	-0.515432 	0 1.50507 	-0.501872 	0 1.48484 	-0.488351 	0 1.46305 	-0.473527 	0 1.46021 	-0.471266 	0 1.45739 	-0.469006 	0 1.45458 	-0.466747 	0 1.45198 	-0.464406 	0 1.44964 	-0.461971 	0 1.42945 	-0.447503 	0 1.40975 	-0.432389 	0 1.39067 	-0.417323 	0 1.3741 	-0.401791 	0 1.35952 	-0.386317 	0 1.34136 	-0.373263 	0 1.32377 	-0.360263 	0 1.30954 	-0.346912 	0 1.29602 	-0.333047 	0 1.28346 	-0.318851 	0 1.27383 	-0.311599 	0 1.26568 	-0.304316 	0 1.25814 	-0.297039 	0 1.25085 	-0.289784 	0 1.24263 	-0.281347 	0 1.23924 	-0.276876 	0 1.23595 	-0.272414 	0 1.23276 	-0.267961 	0 1.22974 	-0.263515 	0 1.22815 	-0.259053 	0 1.21843 	-0.248927 	0 1.20997 	-0.238184 	0 1.20214 	-0.227495 	0 1.19638 	-0.216902 	0 1.19353 	-0.206575 	0 1.18522 	-0.197896 	0 1.1774 	-0.189266 	0 1.17221 	-0.180134 	0 1.17038 	-0.171172 	0 1.16916 	-0.162351 	0 1.16246 	-0.154804 	0 1.15628 	-0.147304 	0 1.15386 	-0.140293 	0 1.15327 	-0.132966 	0 1.15355 	-0.12564 	0 1.14832 	-0.119217 	0 1.14557 	-0.113193 	0 1.14433 	-0.107394 	0 1.14353 	-0.10162 	0 1.14515 	-0.0957474 	0 1.14178 	-0.0905404 	0 1.14123 	-0.0858744 	0 1.14099 	-0.0812287 	0 1.14108 	-0.0766035 	0 1.14262 	-0.0720649 	0 1.14162 	-0.0682183 	0 1.14202 	-0.064651 	0 1.14266 	-0.0610981 	0 1.14356 	-0.0575598 	0 1.14489 	-0.0540672 	0 1.14495 	-0.0534708 	0 1.14519 	-0.0529168 	0 1.14544 	-0.0523632 	0 1.14569 	-0.0518101 	0 1.14598 	-0.0511958 	0 1.14718 	-0.049201 	0 1.14848 	-0.0472134 	0 1.14988 	-0.0452329 	0 1.15139 	-0.0432596 	0 1.15345 	-0.0414653 	0 1.15491 	-0.039707 	0 1.15711 	-0.0381117 	0 1.15943 	-0.0365239 	0 1.16185 	-0.0349436 	0 1.16523 	-0.0336957 	0 1.16666 	-0.032624 	0 1.16949 	-0.0319198 	0 1.17236 	-0.0312192 	0 1.1753 	-0.0305223 	0 1.17937 	-0.0302512 	0 1.18082 	-0.0297776 	0 1.1842 	-0.0298721 	0 1.18759 	-0.0299665 	0 1.19097 	-0.0300609 	0 1.1956 	-0.030636 	0 1.19707 	-0.0306628 	0 1.20095 	-0.0314532 	0 1.20477 	-0.03224 	0 1.20855 	-0.0330231 	0 1.21365 	-0.0343142 	0 1.21509 	-0.0347285 	0 1.2194 	-0.0361034 	0 1.22362 	-0.0374711 	0 1.22778 	-0.0388429 	0 1.23323 	-0.0407047 	0 1.23493 	-0.0414964 	0 1.23927 	-0.0432221 	0 1.24384 	-0.0450537 	0 1.24855 	-0.046968 	0 1.25408 	-0.0491891 	0 1.25633 	-0.0503586 	0 1.26033 	-0.0521827 	0 1.2652 	-0.0543599 	0 1.27042 	-0.0566702 	0 1.27602 	-0.0591327 	0 1.27883 	-0.0605811 	0 1.28243 	-0.0623579 	0 1.28761 	-0.0647655 	0 1.29326 	-0.0673193 	0 1.29896 	-0.06991 	0 1.30234 	-0.0715429 	0 1.30561 	-0.0731648 	0 1.31112 	-0.0756873 	0 1.31711 	-0.0783175 	0 1.32293 	-0.0809301 	0 1.32692 	-0.0826612 	0 1.3308 	-0.0843796 	0 1.33592 	-0.0865619 	0 1.3421 	-0.0891173 	0 1.3481 	-0.0916547 	0 1.35277 	-0.0934064 	0 1.35732 	-0.0951447 	0 1.36216 	-0.0968507 	0 1.36859 	-0.0992445 	0 1.37487 	-0.10162 	0 1.38029 	-0.103326 	0 1.38567 	-0.104966 	0 1.39107 	-0.106479 	0 1.39711 	-0.108309 	0 1.40377 	-0.110451 	0 1.41006 	-0.112055 	0 1.41628 	-0.113443 	0 1.42243 	-0.114766 	0 1.42851 	-0.116081 	0 1.43555 	-0.117872 	0 1.44278 	-0.119232 	0 1.44986 	-0.120336 	0 1.45689 	-0.121434 	0 1.46388 	-0.122526 	0 1.47103 	-0.123715 	0 1.474 	-0.124107 	0 1.47692 	-0.124414 	0 1.47983 	-0.124722 	0 1.48274 	-0.125029 	0 1.48562 	-0.125333 	0 1.49117 	-0.125962 	0 1.4967 	-0.12659 	0 1.50223 	-0.127216 	0 1.50775 	-0.127842 	0 1.50946 	-0.128613 	0 1.52269 	-0.128915 	0 1.53247 	-0.129644 	0 1.54227 	-0.130373 	0 1.55207 	-0.131104 	0 1.5516 	-0.132159 	0 1.57197 	-0.131665 	0 1.58311 	-0.132109 	0 1.59412 	-0.132575 	0 1.60105 	-0.133149 	0 1.59892 	-0.133948 	0 1.62111 	-0.133304 	0 1.6398 	-0.132972 	0 1.65208 	-0.133164 	0 1.65338 	-0.133577 	0 1.65202 	-0.134037 	0 1.67607 	-0.133244 	0 1.70035 	-0.132485 	0 1.7124 	-0.132287 	0 1.71188 	-0.132398 	0 1.71135 	-0.132507 	0 1.73723 	-0.131561 	0 1.76334 	-0.130651 	0 1.7765 	-0.129967 	0 1.77676 	-0.129706 	0 1.77704 	-0.129448 	0 1.80464 	-0.128332 	0 1.8292 	-0.127279 	0 1.84235 	-0.126349 	0 1.84788 	-0.125598 	0 1.84887 	-0.124956 	0 1.87803 	-0.123645 	0 1.89746 	-0.122442 	0 1.91178 	-0.121304 	0 1.92472 	-0.120196 	0 1.92626 	-0.11916 	0 1.95576 	-0.11764 	0 1.97086 	-0.116275 	0 1.98614 	-0.114936 	0 2.00161 	-0.113621 	0 2.00818 	-0.112245 	0 2.03259 	-0.110569 	0 2.04836 	-0.109022 	0 2.06432 	-0.1075 	0 2.08047 	-0.106004 	0 2.09331 	-0.104462 	0 2.10652 	-0.103346 	0 2.11646 	-0.102291 	0 2.12648 	-0.101246 	0 2.13657 	-0.10021 	0 2.14839 	-0.0990155 	0 2.15457 	-0.0984587 	0 2.16077 	-0.0979047 	0 2.16698 	-0.0973533 	0 2.17322 	-0.0968047 	0 2.1444 	-0.0957316 	0 2.1961 	-0.0945949 	0 2.21284 	-0.0928857 	0 2.22974 	-0.091197 	0 2.24681 	-0.0895284 	0 2.12795 	-0.08606 	0 2.28053 	-0.0863961 	0 2.29693 	-0.0846362 	0 2.31348 	-0.0828948 	0 2.3302 	-0.0811714 	0 2.10814 	-0.0766384 	0 2.36322 	-0.0782499 	0 2.37908 	-0.076506 	0 2.39509 	-0.074778 	0 2.41125 	-0.0730658 	0 2.0863 	-0.0678002 	0 2.44334 	-0.0704485 	0 2.45843 	-0.068806 	0 2.47366 	-0.0671767 	0 2.47782 	-0.0654572 	0 2.06296 	-0.0598771 	0 2.47603 	-0.0628686 	0 2.53377 	-0.0618698 	0 2.54851 	-0.0603951 	0 2.47342 	-0.0581835 	0 2.03977 	-0.0529954 	0 2.47387 	-0.0558683 	0 2.60774 	-0.0558932 	0 2.62074 	-0.0547689 	0 2.46641 	-0.0524016 	0 2.01184 	-0.047788 	0 2.45944 	-0.050784 	0 2.6686 	-0.0518666 	0 2.68431 	-0.0513803 	0 2.45859 	-0.0491139 	0 1.99439 	-0.0450753 	0 2.47529 	-0.0491173 	0 2.76686 	-0.0514845 	0 2.77625 	-0.0513226 	0 2.63804 	-0.0511813 	0 2.41789 	-0.0510393 	0