# vtk DataFile Version 2.0
track0
ASCII
DATASET POLYDATA
POINTS 6430 float
-0.0205 0.001 1e-05
-0.0204727 0.00100011 1e-05
-0.0204454 0.00100021 1e-05
-0.0204181 0.00100032 1e-05
-0.0203908 0.00100042 1e-05
-0.0203635 0.00100053 1e-05
-0.0200299 0.00100181 1e-05
-0.0196963 0.00100312 1e-05
-0.0193627 0.00100443 1e-05
-0.0190291 0.00100573 1e-05
-0.0186954 0.00100701 1e-05
-0.018369 0.00100821 1e-05
-0.0180425 0.00100944 1e-05
-0.017716 0.00101066 1e-05
-0.0173896 0.00101188 1e-05
-0.0170631 0.00101307 1e-05
-0.0167436 0.00101419 1e-05
-0.0164242 0.00101534 1e-05
-0.0161047 0.00101648 1e-05
-0.0157852 0.00101761 1e-05
-0.0154657 0.00101873 1e-05
-0.0151531 0.00101977 1e-05
-0.0148405 0.00102085 1e-05
-0.0145279 0.00102191 1e-05
-0.0142152 0.00102297 1e-05
-0.0139026 0.00102401 1e-05
-0.0135967 0.00102499 1e-05
-0.0132908 0.00102599 1e-05
-0.0129848 0.00102698 1e-05
-0.0126789 0.00102797 1e-05
-0.012373 0.00102894 1e-05
-0.0120736 0.00102985 1e-05
-0.0117742 0.00103078 1e-05
-0.0114749 0.00103171 1e-05
-0.0111755 0.00103263 1e-05
-0.0108761 0.00103354 1e-05
-0.0105832 0.00103438 1e-05
-0.0102902 0.00103524 1e-05
-0.00999724 0.00103611 1e-05
-0.00970429 0.00103697 1e-05
-0.00941133 0.00103781 1e-05
-0.00912465 0.00103859 1e-05
-0.00883797 0.00103939 1e-05
-0.00855129 0.00104019 1e-05
-0.00826461 0.00104099 1e-05
-0.00797793 0.00104177 1e-05
-0.00769739 0.00104249 1e-05
-0.00741686 0.00104323 1e-05
-0.00713632 0.00104398 1e-05
-0.00685578 0.00104471 1e-05
-0.00657525 0.00104543 1e-05
-0.00630072 0.00104609 1e-05
-0.0060262 0.00104677 1e-05
-0.00575167 0.00104746 1e-05
-0.00547714 0.00104814 1e-05
-0.00520262 0.00104879 1e-05
-0.00493398 0.00104939 1e-05
-0.00466533 0.00105002 1e-05
-0.00439669 0.00105064 1e-05
-0.00412805 0.00105126 1e-05
-0.0038594 0.00105186 1e-05
-0.00359652 0.0010524 1e-05
-0.00333363 0.00105297 1e-05
-0.00307074 0.00105354 1e-05
-0.00280786 0.00105411 1e-05
-0.00254497 0.00105465 1e-05
-0.00228772 0.00105514 1e-05
-0.00203046 0.00105564 1e-05
-0.00177321 0.00105614 1e-05
-0.00151596 0.00105662 1e-05
-0.0012587 0.00105707 1e-05
-0.00100696 0.00105748 1e-05
-0.000755223 0.00105794 1e-05
-0.000503482 0.00105834 1e-05
-0.000251741 0.00105861 1e-05
0 0.00105871 1e-05
0.000329256 0.00105853 1e-05
0.000658511 0.00105851 1e-05
0.000987767 0.00105842 1e-05
0.00131702 0.00105811 1e-05
0.00164628 0.00105749 1e-05
0.00197921 0.00105642 1e-05
0.00231214 0.00105586 1e-05
0.00264507 0.00105544 1e-05
0.002978 0.00105494 1e-05
0.00331093 0.00105415 1e-05
0.00364757 0.0010527 1e-05
0.00398422 0.0010519 1e-05
0.00432087 0.00105131 1e-05
0.00465751 0.00105067 1e-05
0.00499415 0.00104974 1e-05
0.00533455 0.00104801 1e-05
0.00567496 0.00104694 1e-05
0.00601536 0.00104606 1e-05
0.00635577 0.00104512 1e-05
0.00669616 0.00104391 1e-05
0.00704036 0.00104188 1e-05
0.00738456 0.00104044 1e-05
0.00772877 0.00103914 1e-05
0.00807297 0.00103779 1e-05
0.00841716 0.00103619 1e-05
0.0087652 0.00103381 1e-05
0.00911324 0.00103193 1e-05
0.00946129 0.00103013 1e-05
0.00980933 0.00102825 1e-05
0.0101574 0.00102618 1e-05
0.0105093 0.0010234 1e-05
0.0108612 0.00102101 1e-05
0.0112131 0.00101863 1e-05
0.0115651 0.00101617 1e-05
0.011917 0.00101355 1e-05
0.0122728 0.00101032 1e-05
0.0126287 0.00100738 1e-05
0.0129845 0.00100439 1e-05
0.0133404 0.00100131 1e-05
0.0136962 0.000998112 1e-05
0.0140561 0.000994407 1e-05
0.0144159 0.000990888 1e-05
0.0147757 0.000987285 1e-05
0.0151355 0.000983591 1e-05
0.0154954 0.000979805 1e-05
0.0158592 0.000975611 1e-05
0.016223 0.000971505 1e-05
0.0165869 0.000967313 1e-05
0.0169507 0.000963034 1e-05
0.0173145 0.000958666 1e-05
0.0176824 0.000953992 1e-05
0.0180503 0.000949331 1e-05
0.0184182 0.00094459 1e-05
0.0187861 0.00093977 1e-05
0.019154 0.000934868 1e-05
0.019526 0.000929739 1e-05
0.019898 0.000924571 1e-05
0.02027 0.000919333 1e-05
0.020642 0.000914023 1e-05
0.0210141 0.000908642 1e-05
0.0213902 0.00090309 1e-05
0.0217664 0.00089747 1e-05
0.0221425 0.000891788 1e-05
0.0225187 0.000886044 1e-05
0.0228948 0.000880237 1e-05
0.0232752 0.000874296 1e-05
0.0236555 0.000868277 1e-05
0.0240359 0.000862205 1e-05
0.0244162 0.000856078 1e-05
0.0247966 0.000849896 1e-05
0.0251385 0.000844293 1e-05
0.0254805 0.000838635 1e-05
0.0258224 0.000832939 1e-05
0.0261643 0.000827204 1e-05
0.0264797 0.00082188 1e-05
0.0265276 0.000821065 1e-05
0.0265756 0.000820249 1e-05
0.0266236 0.000819432 1e-05
0.0266716 0.000818614 1e-05
0.0267196 0.000817796 1e-05
0.0271085 0.000811164 1e-05
0.0274973 0.000804481 1e-05
0.0278862 0.000797751 1e-05
0.0282751 0.000790975 1e-05
0.028664 0.000784151 1e-05
0.0290572 0.000777266 1e-05
0.0294505 0.00077029 1e-05
0.0298437 0.000763268 1e-05
0.0302369 0.0007562 1e-05
0.0306301 0.000749085 1e-05
0.0310278 0.000741947 1e-05
0.0314254 0.000734687 1e-05
0.031823 0.000727378 1e-05
0.0322206 0.000720021 1e-05
0.0326182 0.000712614 1e-05
0.0330203 0.00070521 1e-05
0.0334223 0.000697656 1e-05
0.0338244 0.000690048 1e-05
0.0342264 0.000682387 1e-05
0.0346285 0.000674672 1e-05
0.035035 0.000666973 1e-05
0.0354416 0.000659099 1e-05
0.0358481 0.000651164 1e-05
0.0362546 0.000643168 1e-05
0.0366612 0.000635122 1e-05
0.0370722 0.000627087 1e-05
0.0374833 0.000618873 1e-05
0.0378944 0.000610565 1e-05
0.0383055 0.000602186 1e-05
0.0387166 0.00059378 1e-05
0.0391322 0.000585352 1e-05
0.0395479 0.000576743 1e-05
0.0399635 0.000568003 1e-05
0.0403792 0.000559178 1e-05
0.0407949 0.000550342 1e-05
0.0412152 0.000541453 1e-05
0.0416355 0.000532375 1e-05
0.0420558 0.00052313 1e-05
0.042476 0.000513784 1e-05
0.0428964 0.000504437 1e-05
0.0433214 0.000495006 1e-05
0.0437463 0.000485376 1e-05
0.0441713 0.000475545 1e-05
0.0445963 0.000465603 1e-05
0.0450213 0.000455655 1e-05
0.0454511 0.00044559 1e-05
0.0458808 0.000435313 1e-05
0.0463105 0.000424824 1e-05
0.0467402 0.00041421 1e-05
0.04717 0.000403562 1e-05
0.0476045 0.000392764 1e-05
0.048039 0.000381739 1e-05
0.0484736 0.000370488 1e-05
0.0489081 0.000359098 1e-05
0.0493426 0.000347646 1e-05
0.049782 0.000336007 1e-05
0.0502214 0.000324127 1e-05
0.0506607 0.000312008 1e-05
0.0511001 0.000299738 1e-05
0.0515395 0.000287371 1e-05
0.0519838 0.000274778 1e-05
0.0524281 0.000261928 1e-05
0.0528723 0.000248853 1e-05
0.0533166 0.000235603 1e-05
0.0537609 0.000222204 1e-05
0.0542102 0.000208538 1e-05
0.0546594 0.000194598 1e-05
0.0551086 0.000180441 1e-05
0.0555578 0.000166086 1e-05
0.0560071 0.000151532 1e-05
0.0564614 0.000136667 1e-05
0.0569156 0.00012152 1e-05
0.0573698 0.000106151 1e-05
0.0578241 9.05591e-05 1e-05
0.0582784 7.47413e-05 1e-05
0.0587023 5.97931e-05 1e-05
0.0591262 4.46095e-05 1e-05
0.0595501 2.92151e-05 1e-05
0.059974 1.36093e-05 1e-05
0.0603387 0 1e-05
0.060386 -1.78367e-06 1e-05
0.0604332 -3.56993e-06 1e-05
0.0604805 -5.35878e-06 1e-05
0.0605277 -7.15021e-06 1e-05
0.060575 -8.94428e-06 1e-05
0.0610394 -2.66006e-05 1e-05
0.0615038 -4.45264e-05 1e-05
0.0619683 -6.27193e-05 1e-05
0.0624327 -8.118e-05 1e-05
0.0628972 -9.99136e-05 1e-05
0.0633668 -0.000119091 1e-05
0.0638364 -0.00013859 1e-05
0.064306 -0.000158383 1e-05
0.0647756 -0.000178468 1e-05
0.0652453 -0.000198853 1e-05
0.0657202 -0.000219696 1e-05
0.0661951 -0.000240908 1e-05
0.0666699 -0.000262442 1e-05
0.0671447 -0.000284296 1e-05
0.0676197 -0.000306454 1e-05
0.0680998 -0.000329113 1e-05
0.06858 -0.000352162 1e-05
0.0690601 -0.000375586 1e-05
0.0695402 -0.000399357 1e-05
0.0700205 -0.000423432 1e-05
0.070506 -0.000448062 1e-05
0.0709916 -0.000473103 1e-05
0.071477 -0.000498557 1e-05
0.0719625 -0.000524376 1e-05
0.0724481 -0.000550527 1e-05
0.0729391 -0.000577288 1e-05
0.07343 -0.000604484 1e-05
0.0739209 -0.000632115 1e-05
0.0744118 -0.000660133 1e-05
0.0749029 -0.000688521 1e-05
0.0753993 -0.00071758 1e-05
0.0758957 -0.000747096 1e-05
0.0763921 -0.000777044 1e-05
0.0768884 -0.000807407 1e-05
0.077385 -0.000838201 1e-05
0.0778869 -0.000869726 1e-05
0.0783889 -0.000901724 1e-05
0.0788908 -0.000934164 1e-05
0.0793927 -0.000967049 1e-05
0.0798948 -0.0010004 1e-05
0.0799629 -0.00100499 1e-05
0.0800311 -0.00100959 1e-05
0.0800993 -0.00101419 1e-05
0.0801674 -0.0010188 1e-05
0.0802343 -0.00102334 1e-05
0.0806739 -0.00105321 1e-05
0.0811136 -0.00108343 1e-05
0.0815532 -0.001114 1e-05
0.0819928 -0.00114493 1e-05
0.0824326 -0.00117622 1e-05
0.0829458 -0.00121311 1e-05
0.083459 -0.00125053 1e-05
0.0839722 -0.00128845 1e-05
0.0844853 -0.00132686 1e-05
0.0849987 -0.00136579 1e-05
0.0855177 -0.00140557 1e-05
0.0860366 -0.00144593 1e-05
0.0865555 -0.00148684 1e-05
0.0870743 -0.00152828 1e-05
0.0875935 -0.00157023 1e-05
0.0881183 -0.0016131 1e-05
0.088643 -0.00165656 1e-05
0.0891676 -0.00170063 1e-05
0.0896922 -0.00174524 1e-05
0.0902172 -0.0017904 1e-05
0.0907478 -0.00183656 1e-05
0.0912784 -0.00188334 1e-05
0.0918089 -0.00193071 1e-05
0.0923393 -0.00197865 1e-05
0.0928702 -0.00202722 1e-05
0.0931109 -0.00204949 1e-05
0.0933516 -0.00207189 1e-05
0.0935922 -0.00209442 1e-05
0.0938328 -0.00211706 1e-05
0.0940603 -0.00213858 1e-05
0.0943588 -0.00216697 1e-05
0.0946573 -0.00219554 1e-05
0.0949558 -0.00222429 1e-05
0.0952542 -0.00225324 1e-05
0.0955528 -0.00228238 1e-05
0.0960954 -0.00233564 1e-05
0.0966378 -0.00238956 1e-05
0.0971802 -0.00244409 1e-05
0.0977225 -0.00249925 1e-05
0.0982654 -0.00255508 1e-05
0.098814 -0.00261208 1e-05
0.0993624 -0.00266977 1e-05
0.0999109 -0.00272817 1e-05
0.100459 -0.00278721 1e-05
0.101008 -0.00284693 1e-05
0.101563 -0.0029079 1e-05
0.102117 -0.00296959 1e-05
0.102672 -0.003032 1e-05
0.103226 -0.00309508 1e-05
0.103782 -0.00315892 1e-05
0.104117 -0.00319793 1e-05
0.104453 -0.00323722 1e-05
0.104789 -0.00327676 1e-05
0.105124 -0.00331654 1e-05
0.105438 -0.00335397 1e-05
0.105668 -0.00338154 1e-05
0.105897 -0.00340922 1e-05
0.106127 -0.00343702 1e-05
0.106356 -0.00346493 1e-05
0.106586 -0.00349299 1e-05
0.107153 -0.00356252 1e-05
0.10772 -0.0036328 1e-05
0.108287 -0.00370381 1e-05
0.108854 -0.00377555 1e-05
0.109422 -0.00384811 1e-05
0.109995 -0.00392209 1e-05
0.110568 -0.00399688 1e-05
0.111142 -0.00407248 1e-05
0.111715 -0.00414883 1e-05
0.112289 -0.00422602 1e-05
[...]
POINT_DATA 6430
 FIELD attributes 1
U 3 6430 float
6.81883 	0.0266731 	0 6.80785 	0.0265194 	0 6.79687 	0.0263657 	0 6.78589 	0.026212 	0 6.7749 	0.0260583 	0 6.76392 	0.0259046 	0 6.89478 	0.0272266 	0 6.89908 	0.0270774 	0 6.89461 	0.0268263 	0 6.87858 	0.026443 	0 6.74114 	0.0246711 	0 6.87207 	0.025891 	0 6.88174 	0.0257985 	0 6.87749 	0.0255555 	0 6.85687 	0.0251381 	0 6.71952 	0.0234775 	0 6.85018 	0.0246216 	0 6.8648 	0.0245781 	0 6.86077 	0.0243438 	0 6.83591 	0.0238992 	0 6.69899 	0.0223235 	0 6.8291 	0.0234101 	0 6.84826 	0.0234095 	0 6.84444 	0.0231836 	0 6.81569 	0.0227159 	0 6.67953 	0.0212057 	0 6.80883 	0.0222471 	0 6.83213 	0.0222841 	0 6.8285 	0.0220658 	0 6.79623 	0.0215774 	0 6.66107 	0.0201182 	0 6.78935 	0.0211222 	0 6.8164 	0.0211915 	0 6.81297 	0.0209794 	0 6.77753 	0.0204714 	0 6.64358 	0.0190525 	0 6.77067 	0.0200229 	0 6.80108 	0.0201194 	0 6.79784 	0.0199116 	0 6.75958 	0.0193845 	0 6.62704 	0.017998 	0 6.75278 	0.0189364 	0 6.7862 	0.019054 	0 6.78314 	0.0188474 	0 6.7424 	0.0183003 	0 6.61142 	0.0169383 	0 6.73568 	0.0178417 	0 6.77175 	0.0179749 	0 6.76888 	0.017768 	0 6.72599 	0.017203 	0 6.59672 	0.0158646 	0 6.71941 	0.0167366 	0 6.75778 	0.0168773 	0 6.75508 	0.0166619 	0 6.71035 	0.0160689 	0 6.58289 	0.0147325 	0 6.70389 	0.0155443 	0 6.74427 	0.0156875 	0 6.74181 	0.0154753 	0 6.69563 	0.0148824 	0 6.57017 	0.0135991 	0 6.68946 	0.0144511 	0 6.73144 	0.0146423 	0 6.72904 	0.0144541 	0 6.68153 	0.0138261 	0 6.55793 	0.0124568 	0 6.67558 	0.0130103 	0 6.71932 	0.0129599 	0 6.71758 	0.0125379 	0 6.66964 	0.011797 	0 6.5486 	0.0105514 	0 6.665 	0.012238 	0 6.70893 	0.0107332 	0 6.70549 	0.00714575 	0 6.6546 	0.00255555 	0 6.53255 	-0.00353775 	0 6.64603 	-0.000392733 	0 6.68612 	-0.00182404 	0 6.67712 	-0.00631007 	0 6.62126 	-0.0124084 	0 6.49479 	-0.0209368 	0 6.60651 	-0.0110629 	0 6.64206 	-0.00830123 	0 6.62961 	-0.010009 	0 6.57266 	-0.0156532 	0 6.44291 	-0.0277306 	0 6.55574 	-0.0154603 	0 6.58775 	-0.0115787 	0 6.57354 	-0.0124821 	0 6.51707 	-0.0181067 	0 6.38347 	-0.0323296 	0 6.49652 	-0.0204418 	0 6.5237 	-0.0170162 	0 6.50749 	-0.0178552 	0 6.45244 	-0.0230041 	0 6.31548 	-0.0372208 	0 6.42708 	-0.0268117 	0 6.44808 	-0.0243784 	0 6.43046 	-0.0253391 	0 6.37917 	-0.0296488 	0 6.24097 	-0.0425955 	0 6.34892 	-0.0342528 	0 6.36231 	-0.0330305 	0 6.34398 	-0.0341914 	0 6.29924 	-0.0375627 	0 6.1627 	-0.0486144 	0 6.26411 	-0.0425073 	0 6.26827 	-0.0424208 	0 6.24961 	-0.0437431 	0 6.21373 	-0.0462196 	0 6.08205 	-0.0551337 	0 6.17391 	-0.0510814 	0 6.16769 	-0.0518473 	0 6.14887 	-0.0532298 	0 6.12335 	-0.054958 	0 5.99963 	-0.0617877 	0 6.07946 	-0.0594508 	0 6.06277 	-0.0607097 	0 6.04394 	-0.0620475 	0 6.02493 	-0.0633912 	0 5.91598 	-0.0682051 	0 5.97465 	-0.0674191 	0 5.95612 	-0.0686241 	0 5.93743 	-0.0698337 	0 5.91858 	-0.0710481 	0 5.83171 	-0.0740858 	0 5.8687 	-0.074358 	0 5.85047 	-0.0753872 	0 5.83208 	-0.07642 	0 5.81355 	-0.0774566 	0 5.74761 	-0.0792401 	0 5.76605 	-0.0801042 	0 5.74828 	-0.0809458 	0 5.73039 	-0.0817902 	0 5.71238 	-0.0826374 	0 5.66465 	-0.0836062 	0 5.66865 	-0.0846947 	0 5.65154 	-0.085365 	0 5.63433 	-0.0860374 	0 5.61701 	-0.0867119 	0 5.58391 	-0.0872297 	0 5.57788 	-0.0882586 	0 5.56159 	-0.0887915 	0 5.54522 	-0.0893258 	0 5.52876 	-0.0898617 	0 5.50648 	-0.0902319 	0 5.49619 	-0.0909392 	0 5.48256 	-0.0913285 	0 5.46887 	-0.0917187 	0 5.45513 	-0.0921096 	0 5.44241 	-0.092471 	0 5.44043 	-0.0925269 	0 5.43844 	-0.0925827 	0 5.43646 	-0.0926386 	0 5.43447 	-0.0926945 	0 5.43262 	-0.0926448 	0 5.41828 	-0.0931188 	0 5.40366 	-0.0935101 	0 5.38898 	-0.0939023 	0 5.37422 	-0.0942952 	0 5.36039 	-0.0938584 	0 5.34878 	-0.0948898 	0 5.33519 	-0.0952713 	0 5.32154 	-0.0956535 	0 5.30783 	-0.0960363 	0 5.29557 	-0.0950645 	0 5.28656 	-0.0965334 	0 5.27396 	-0.0969438 	0 5.2613 	-0.0973546 	0 5.24857 	-0.0977659 	0 5.23761 	-0.0964564 	0 5.23102 	-0.0982853 	0 5.21932 	-0.0987587 	0 5.20756 	-0.0992323 	0 5.19574 	-0.0997063 	0 5.18581 	-0.0982032 	0 5.18147 	-0.100355 	0 5.17057 	-0.100922 	0 5.1596 	-0.101489 	0 5.1487 	-0.10189 	0 5.1394 	-0.100456 	0 5.1359 	-0.102634 	0 5.12697 	-0.103612 	0 5.11666 	-0.1043 	0 5.1067 	-0.104424 	0 5.09762 	-0.103349 	0 5.0945 	-0.105524 	0 5.0878 	-0.106978 	0 5.07803 	-0.107812 	0 5.06868 	-0.107748 	0 5.05969 	-0.107001 	0 5.05688 	-0.109224 	0 5.05231 	-0.111136 	0 5.04297 	-0.112135 	0 5.03388 	-0.111945 	0 5.02486 	-0.111506 	0 5.02228 	-0.113811 	0 5.01949 	-0.116114 	0 5.01075 	-0.117216 	0 5.00161 	-0.117072 	0 4.99245 	-0.116929 	0 4.98999 	-0.119336 	0 4.98733 	-0.12174 	0 4.98057 	-0.123019 	0 4.97121 	-0.123164 	0 4.96182 	-0.123307 	0 4.95938 	-0.125827 	0 4.95673 	-0.128344 	0 4.95171 	-0.129807 	0 4.94206 	-0.130233 	0 4.93235 	-0.130659 	0 4.92982 	-0.133296 	0 4.92704 	-0.135903 	0 4.92292 	-0.137483 	0 4.91354 	-0.138284 	0 4.90345 	-0.138986 	0 4.90072 	-0.141746 	0 4.89722 	-0.144135 	0 4.89259 	-0.145915 	0 4.88515 	-0.147315 	0 4.8746 	-0.148289 	0 4.87158 	-0.151174 	0 4.867 	-0.153379 	0 4.86179 	-0.155356 	0 4.85635 	-0.157322 	0 4.84526 	-0.15856 	0 4.84154 	-0.161445 	0 4.83585 	-0.16362 	0 4.82998 	-0.165791 	0 4.82393 	-0.167958 	0 4.81495 	-0.169783 	0 4.81019 	-0.172289 	0 4.80428 	-0.174469 	0 4.79821 	-0.176645 	0 4.79196 	-0.178818 	0 4.78644 	-0.180685 	0 4.78599 	-0.18093 	0 4.78554 	-0.181176 	0 4.78508 	-0.181421 	0 4.78463 	-0.181666 	0 4.78404 	-0.18187 	0 4.78004 	-0.184495 	0 4.77557 	-0.187073 	0 4.77093 	-0.189647 	0 4.76613 	-0.192218 	0 4.7595 	-0.194352 	0 4.75788 	-0.197561 	0 4.75272 	-0.200311 	0 4.74738 	-0.203056 	0 4.74186 	-0.205797 	0 4.73262 	-0.207724 	0 4.73312 	-0.211431 	0 4.72772 	-0.214407 	0 4.72163 	-0.217314 	0 4.71384 	-0.21991 	0 4.70307 	-0.221936 	0 4.70277 	-0.225746 	0 4.7003 	-0.229316 	0 4.69339 	-0.232373 	0 4.6824 	-0.234716 	0 4.67056 	-0.236932 	0 4.66939 	-0.240838 	0 4.66797 	-0.244737 	0 4.66052 	-0.247871 	0 4.64775 	-0.250261 	0 4.63479 	-0.252647 	0 4.63268 	-0.256639 	0 4.63032 	-0.260625 	0 4.6229 	-0.263862 	0 4.60961 	-0.266468 	0 4.59548 	-0.269002 	0 4.59238 	-0.273068 	0 4.58605 	-0.2767 	0 4.57721 	-0.28 	0 4.56773 	-0.283251 	0 4.5524 	-0.28591 	0 4.54707 	-0.289876 	0 4.53722 	-0.293258 	0 4.52711 	-0.296633 	0 4.51674 	-0.299998 	0 4.50531 	-0.303278 	0 4.50438 	-0.303809 	0 4.50292 	-0.304272 	0 4.50145 	-0.304734 	0 4.49997 	-0.305197 	0 4.49852 	-0.30565 	0 4.49035 	-0.308664 	0 4.482 	-0.311672 	0 4.47346 	-0.314674 	0 4.46474 	-0.31767 	0 4.45569 	-0.320287 	0 4.44687 	-0.324265 	0 4.43612 	-0.327781 	0 4.42512 	-0.331289 	0 4.4137 	-0.334595 	0 4.40167 	-0.337459 	0 4.39206 	-0.341537 	0 4.38189 	-0.345535 	0 4.36953 	-0.34902 	0 4.3562 	-0.351909 	0 4.34262 	-0.354792 	0 4.33179 	-0.358852 	0 4.32067 	-0.3629 	0 4.30837 	-0.366393 	0 4.29356 	-0.369299 	0 4.27837 	-0.372175 	0 4.26627 	-0.376194 	0 4.25299 	-0.379755 	0 4.23904 	-0.383119 	0 4.22481 	-0.386471 	0 4.20881 	-0.389495 	0 4.20272 	-0.391244 	0 4.19597 	-0.39273 	0 4.18917 	-0.394214 	0 4.1823 	-0.395695 	0 4.17575 	-0.397093 	0 4.16825 	-0.398975 	0 4.16067 	-0.400853 	0 4.15301 	-0.402728 	0 4.14526 	-0.4046 	0 4.13726 	-0.40617 	0 4.12414 	-0.409877 	0 4.10954 	-0.413188 	0 4.09466 	-0.416487 	0 4.07926 	-0.419529 	0 4.06321 	-0.422182 	0 4.04911 	-0.4259 	0 4.0347 	-0.429603 	0 4.01842 	-0.432696 	0 4.00089 	-0.435234 	0 3.98307 	-0.437763 	0 3.96755 	-0.441343 	0 3.95134 	-0.444689 	0 3.93411 	-0.447583 	0 3.91641 	-0.450419 	0 3.89677 	-0.452797 	0 3.88658 	-0.454841 	0 3.87554 	-0.4565 	0 3.86435 	-0.45813 	0 3.85304 	-0.459755 	0 3.84237 	-0.461269 	0 3.8355 	-0.462435 	0 3.82858 	-0.463598 	0 3.82161 	-0.46476 	0 3.81459 	-0.465914 	0 3.80736 	-0.466807 	0 3.79076 	-0.469854 	0 3.77294 	-0.472532 	0 3.75482 	-0.475197 	0 3.73612 	-0.477536 	0 3.71676 	-0.479506 	0 3.69905 	-0.482481 	0 3.68102 	-0.485439 	0 3.66161 	-0.487796 	0 3.64068 	-0.489529 	0 3.61943 	-0.491252 	0 3.60017 	-0.493982 	0 3.57983 	-0.496202 	0 3.55884 	-0.498176 	0 3.53752 	-0.500133 	0 3.51543 	-0.50194 	0 3.5129 	-0.502237 	0 3.51024 	-0.502463 	0 3.50754 	-0.502669 	0 3.50484 	-0.502876 	0 3.50217 	-0.50308 	0 3.48494 	-0.504763 	0 3.46749 	-0.506436 	0 3.44981 	-0.508097 	0 3.43184 	-0.509658 	0 3.41322 	-0.510658 	0 3.39334 	-0.512792 	0 3.37299 	-0.514851 	0 3.35117 	-0.516308 	0 3.32846 	-0.517124 	0 3.30543 	-0.517927 	0 3.28397 	-0.519743 	0 3.26181 	-0.521228 	0 3.23879 	-0.522214 	0 3.21545 	-0.523181 	0 3.19085 	-0.523773 	0 3.18453 	-0.524176 	0 3.17798 	-0.524416 	0 3.17132 	-0.524591 	0 3.16463 	-0.524764 	0 3.15809 	-0.524932 	0 3.14233 	-0.525586 	0 3.12642 	-0.526232 	0 3.11036 	-0.526868 	0 3.09408 	-0.527366 	0 3.07742 	-0.527394 	0 3.05555 	-0.528473 	0 3.03314 	-0.529416 	0 3.00958 	-0.529813 	0 2.98528 	-0.529465 	0 2.96066 	-0.529101 	0 2.93725 	-0.529802 	0 2.91321 	-0.530102 	0 2.88849 	-0.52988 	0 2.86346 	-0.529639 	0 2.83751 	-0.529107 	0 2.83308 	-0.529162 	0 2.82855 	-0.529112 	0 2.82396 	-0.529003 	0 2.81936 	-0.528895 	0 2.81482 	-0.528787 	0 2.7959 	-0.528541 	0 2.7768 	-0.528283 	0 2.75752 	-0.528015 	0 2.73804 	-0.527518 	0 2.71829 	-0.526465 	0 2.6949 	-0.526325 	0 2.67121 	-0.526164 	0 2.64651 	-0.525206 	0 2.62124 	-0.523505 	0 2.59565 	-0.521784 	0 2.57255 	-0.521273 	0 2.54899 	-0.520161 	0 2.52509 	-0.518695 	0 2.50094 	-0.517213 	0 2.47824 	-0.515815 	0 2.47633 	-0.515711 	0 2.47442 	-0.515607 	0 2.4725 	-0.515502 	0 2.4706 	-0.515371 	0 2.46872 	-0.515184 	0 2.44539 	-0.51371 	0 2.42171 	-0.512086 	0 2.39778 	-0.510446 	0 2.3738 	-0.508329 	0 2.34976 	-0.505609 	0 2.32571 	-0.504177 	0 2.30138 	-0.502723 	0 2.27703 	-0.500384 	0 2.25201 	-0.497363 	0 2.22661 	-0.494205 	0 2.21241 	-0.493174 	0 2.1982 	-0.491776 	0 2.18396 	-0.49012 	0 2.16965 	-0.488458 	0 2.15579 	-0.486849 	0 2.14587 	-0.48571 	0 2.13591 	-0.484568 	0 2.12592 	-0.483423 	0 2.11607 	-0.482103 	0 2.10651 	-0.480453 	0 2.08392 	-0.478151 	0 2.06091 	-0.475402 	0 2.03762 	-0.472449 	0 2.01519 	-0.468381 	0 1.99265 	-0.464249 	0 1.96931 	-0.461591 	0 1.94612 	-0.458507 	0 1.92338 	-0.454654 	0 1.90053 	-0.45079 	0 1.87728 	-0.446566 	0 1.87328 	-0.446067 	0 1.86936 	-0.445457 	0 1.8655 	-0.444764 	0 1.86164 	-0.444071 	0 1.8578 	-0.443382 	0 1.84097 	-0.440242 	0 1.82409 	-0.437096 	0 1.80715 	-0.433946 	0 1.79073 	-0.430436 	0 1.77533 	-0.426256 	0 1.75492 	-0.422892 	0 1.73438 	-0.419515 	0 1.71464 	-0.415177 	0 1.69586 	-0.409893 	0 1.67711 	-0.404608 	0 1.66013 	-0.401623 	0 1.64402 	-0.398007 	0 1.62845 	-0.39401 	0 1.61291 	-0.390015 	0 1.59754 	-0.386065 	0 1.59476 	-0.385295 	0 1.59198 	-0.384525 	0 1.58921 	-0.383756 	0 1.58658 	-0.382919 	0 1.58432 	-0.381922 	0 1.5682 	-0.377677 	0 1.55234 	-0.373075 	0 1.53655 	-0.368481 	0 1.52231 	-0.363208 	0 1.50957 	-0.357347 	0 1.49384 	-0.353414 	0 1.47812 	-0.349482 	0 1.46466 	-0.344499 	0 1.45215 	-0.33867 	0 1.43998 	-0.332742 	0 1.42966 	-0.329993 	0 1.42065 	-0.32663 	0 1.41222 	-0.323032 	0 1.4039 	-0.319447 	0 1.39542 	-0.315768 	0 1.39254 	-0.314307 	0 1.38967 	-0.312849 	0 1.38683 	-0.311394 	0 1.3842 	-0.309868 	0 1.38245 	-0.30802 	0 1.37278 	-0.303793 	0 1.36384 	-0.298984 	0 1.35514 	-0.294206 	0 1.34845 	-0.288773 	0 1.34363 	-0.282818 	0 1.3351 	-0.279004 	0 1.32674 	-0.275215 	0 1.3208 	-0.270446 	0 1.31679 	-0.264567 	0 1.31323 	-0.258772 	0 1.30619 	-0.255111 	0 1.30166 	-0.250543 	0 1.29809 	-0.245766 	0 1.29486 	-0.241046 	0 1.29217 	-0.236155 	0 1.29136 	-0.23564 	0 1.29095 	-0.234965 	0 1.29056 	-0.234284 	0 1.29018 	-0.233604 	0 1.2898 	-0.232912 	0 1.28908 	-0.229245 	0 1.28858 	-0.225617 	0 1.28832 	-0.222026 	0 1.28829 	-0.218473 	0 1.29011 	-0.21491 	0 1.29018 	-0.211168 	0 1.29073 	-0.207218 	0 1.29165 	-0.203226 	0 1.29415 	-0.199201 	0 1.2975 	-0.195214 	0 1.29905 	-0.191787 	0 1.30087 	-0.188405 	0 1.30388 	-0.184812 	0 1.30797 	-0.180973 	0 1.31237 	-0.177204 	0 1.31529 	-0.174081 	0 1.31891 	-0.170943 	0 1.32369 	-0.167729 	0 1.32875 	-0.164421 	0 1.33407 	-0.16087 	0 1.33829 	-0.158022 	0 1.34381 	-0.155028 	0 1.34959 	-0.152077 	0 1.35562 	-0.14917 	0 1.36184 	-0.146144 	0 1.36407 	-0.145086 	0 1.36656 	-0.143979 	0 1.3691 	-0.142878 	0 1.37167 	-0.141783 	0 1.37453 	-0.140592 	0 1.37894 	-0.139066 	0 1.38342 	-0.137552 	0 1.38798 	-0.13605 	0 1.39261 	-0.13456 	0 1.39425 	-0.133326 	0 1.40529 	-0.130787 	0 1.41313 	-0.128381 	0 1.42117 	-0.126006 	0 1.4294 	-0.123663 	0 1.42971 	-0.121934 	0 1.44611 	-0.119495 	0 1.45514 	-0.117263 	0 1.46364 	-0.115075 	0 1.46893 	-0.113137 	0 1.46823 	-0.111623 	0 1.48532 	-0.109391 	0 1.49968 	-0.107243 	0 1.50854 	-0.105226 	0 1.50974 	-0.103698 	0 1.50914 	-0.1023 	0 1.52682 	-0.100255 	0 1.54472 	-0.098238 	0 1.55314 	-0.0964697 	0 1.55247 	-0.095167 	0 1.55187 	-0.0938762 	0 1.57005 	-0.0920011 	0 1.58842 	-0.0901502 	0 1.59732 	-0.0886617 	0 1.59658 	-0.0874593 	0 1.59592 	-0.0862671 	0 1.61451 	-0.0845461 	0 1.63327 	-0.0828461 	0 1.64253 	-0.0816083 	0 1.64166 	-0.0804987 	0 1.64086 	-0.0793977 	0 1.6598 	-0.0778168 	0 1.67628 	-0.0763638 	0 1.68498 	-0.0752606 	0 1.68734 	-0.0742123 	0 1.68634 	-0.0731963 	0 1.70557 	-0.0717433 	0 1.71917 	-0.070529 	0 1.72791 	-0.0695193 	0 1.73331 	-0.0685375 	0 1.73208 	-0.0676011 	0 1.75154 	-0.0662657 	0 1.76235 	-0.0652561 	0 1.7711 	-0.0643324 	0 1.77935 	-0.063419 	0 1.77785 	-0.0625581 	0 1.79699 	-0.0613484 	0 1.80563 	-0.0604978 	0 1.81434 	-0.0596539 	0 1.82313 	-0.0588167 	0 1.82348 	-0.0580193 	0 1.84023 	-0.0569875 	0 1.84882 	-0.0562129 	0 1.85748 	-0.0554442 	0 1.8662 	-0.0546812 	0 1.86883 	-0.0539459 	0 1.88328 	-0.0530719 	0 1.89182 	-0.0523701 	0 1.90041 	-0.0516734 	0 1.90907 	-0.0509816 	0 1.91385 	-0.0503087 	0 1.92608 	-0.049578 	0 1.93456 	-0.0489496 	0 1.94308 	-0.0483256 	0 1.95165 	-0.0477058 	0 1.95849 	-0.0470976 	0 1.96734 	-0.0465863 	0 1.97449 	-0.046118 	0 1.98167 	-0.0456523 	0 1.98889 	-0.0451892 	0 1.99721 	-0.0446599 	0 1.99834 	-0.0445931 	0 1.99946 	-0.0445263 	0 2.00058 	-0.0444595 	0 2.0017 	-0.0443928 	0 1.99661 	-0.0442813 	0 2.01135 	-0.0438856 	0 2.0199 	-0.0434451 	0 2.02849 	-0.0430075 	0 2.03712 	-0.0425726 	0 1.98992 	-0.041767 	0 2.05447 	-0.0418363 	0 2.06329 	-0.041522 	0 2.07214 	-0.0412098 	0 2.08102 	-0.0408997 	0 1.98383 	-0.0399171 	0 2.09863 	-0.0404766 	0 2.1067 	-0.0403807 	0 2.11478 	-0.040286 	0 2.12288 	-0.0401923 	0 1.97247 	-0.0391095 	0 2.13918 	-0.0404705 	0 2.1502 	-0.0412751 	0 2.16118 	-0.0420768 	0 2.17213 	-0.0428756 	0 1.97093 	-0.0423418 	0 2.20011 	-0.0451675 	0 2.20699 	-0.0458829 	0 2.21385 	-0.0465959 	0 2.22069 	-0.0473068 	0 2.09899 	-0.0473593 	0