# vtk DataFile Version 2.0
track0
ASCII
DATASET POLYDATA
POINTS 6430 float
-0.0205 0.001 1e-05
-0.0204727 0.00100011 1e-05
-0.0204454 0.00100021 1e-05
-0.0204181 0.00100032 1e-05
-0.0203908 0.00100042 1e-05
-0.0203635 0.00100053 1e-05
-0.0200299 0.00100181 1e-05
-0.0196963 0.00100312 1e-05
-0.0193627 0.00100443 1e-05
-0.0190291 0.00100573 1e-05
-0.0186954 0.00100701 1e-05
-0.018369 0.00100821 1e-05
-0.0180425 0.00100944 1e-05
-0.017716 0.00101066 1e-05
-0.0173896 0.00101188 1e-05
-0.0170631 0.00101307 1e-05
-0.0167436 0.00101419 1e-05
-0.0164242 0.00101534 1e-05
-0.0161047 0.00101648 1e-05
-0.0157852 0.00101761 1e-05
-0.0154657 0.00101873 1e-05
-0.0151531 0.00101977 1e-05
-0.0148405 0.00102085 1e-05
-0.0145279 0.00102191 1e-05
-0.0142152 0.00102297 1e-05
-0.0139026 0.00102401 1e-05
-0.0135967 0.00102499 1e-05
-0.0132908 0.00102599 1e-05
-0.0129848 0.00102698 1e-05
-0.0126789 0.00102797 1e-05
-0.012373 0.00102894 1e-05
-0.0120736 0.00102985 1e-05
-0.0117742 0.00103078 1e-05
-0.0114749 0.00103171 1e-05
-0.0111755 0.00103263 1e-05
-0.0108761 0.00103354 1e-05
-0.0105832 0.00103438 1e-05
-0.0102902 0.00103524 1e-05
-0.00999724 0.00103611 1e-05
-0.00970429 0.00103697 1e-05
-0.00941133 0.00103781 1e-05
-0.00912465 0.00103859 1e-05
-0.00883797 0.00103939 1e-05
-0.00855129 0.00104019 1e-05
-0.00826461 0.00104099 1e-05
-0.00797793 0.00104177 1e-05
-0.00769739 0.00104249 1e-05
-0.00741686 0.00104323 1e-05
-0.00713632 0.00104398 1e-05
-0.00685578 0.00104471 1e-05
-0.00657525 0.00104543 1e-05
-0.00630072 0.00104609 1e-05
-0.0060262 0.00104677 1e-05
-0.00575167 0.00104746 1e-05
-0.00547714 0.00104814 1e-05
-0.00520262 0.00104879 1e-05
-0.00493398 0.00104939 1e-05
-0.00466533 0.00105002 1e-05
-0.00439669 0.00105064 1e-05
-0.00412805 0.00105126 1e-05
-0.0038594 0.00105186 1e-05
-0.00359652 0.0010524 1e-05
-0.00333363 0.00105297 1e-05
-0.00307074 0.00105354 1e-05
-0.00280786 0.00105411 1e-05
-0.00254497 0.00105465 1e-05
-0.00228772 0.00105514 1e-05
-0.00203046 0.00105564 1e-05
-0.00177321 0.00105614 1e-05
-0.00151596 0.00105662 1e-05
-0.0012587 0.00105707 1e-05
-0.00100696 0.00105748 1e-05
-0.000755223 0.00105794 1e-05
-0.000503482 0.00105834 1e-05
-0.000251741 0.00105861 1e-05
0 0.00105871 1e-05
0.000329256 0.00105853 1e-05
0.000658511 0.00105851 1e-05
0.000987767 0.00105842 1e-05
0.00131702 0.00105811 1e-05
0.00164628 0.00105749 1e-05
0.00197921 0.00105642 1e-05
0.00231214 0.00105586 1e-05
0.00264507 0.00105544 1e-05
0.002978 0.00105494 1e-05
0.00331093 0.00105415 1e-05
0.00364757 0.0010527 1e-05
0.00398422 0.0010519 1e-05
0.00432087 0.00105131 1e-05
0.00465751 0.00105067 1e-05
0.00499415 0.00104974 1e-05
0.00533455 0.00104801 1e-05
0.00567496 0.00104694 1e-05
0.00601536 0.00104606 1e-05
0.00635577 0.00104512 1e-05
0.00669616 0.00104391 1e-05
0.00704036 0.00104188 1e-05
0.00738456 0.00104044 1e-05
0.00772877 0.00103914 1e-05
0.00807297 0.00103779 1e-05
0.00841716 0.00103619 1e-05
0.0087652 0.00103381 1e-05
0.00911324 0.00103193 1e-05
0.00946129 0.00103013 1e-05
0.00980933 0.00102825 1e-05
0.0101574 0.00102618 1e-05
0.0105093 0.0010234 1e-05
0.0108612 0.00102101 1e-05
0.0112131 0.00101863 1e-05
0.0115651 0.00101617 1e-05
0.011917 0.00101355 1e-05
0.0122728 0.00101032 1e-05
0.0126287 0.00100738 1e-05
0.0129845 0.00100439 1e-05
0.0133404 0.00100131 1e-05
0.0136962 0.000998112 1e-05
0.0140561 0.000994407 1e-05
0.0144159 0.000990888 1e-05
0.0147757 0.000987285 1e-05
0.0151355 0.000983591 1e-05
0.0154954 0.000979805 1e-05
0.0158592 0.000975611 1e-05
0.016223 0.000971505 1e-05
0.0165869 0.000967313 1e-05
0.0169507 0.000963034 1e-05
0.0173145 0.000958666 1e-05
0.0176824 0.000953992 1e-05
0.0180503 0.000949331 1e-05
0.0184182 0.00094459 1e-05
0.0187861 0.00093977 1e-05
0.019154 0.000934868 1e-05
0.019526 0.000929739 1e-05
0.019898 0.000924571 1e-05
0.02027 0.000919333 1e-05
0.020642 0.000914023 1e-05
0.0210141 0.000908642 1e-05
0.0213902 0.00090309 1e-05
0.0217664 0.00089747 1e-05
0.0221425 0.000891788 1e-05
0.0225187 0.000886044 1e-05
0.0228948 0.000880237 1e-05
0.0232752 0.000874296 1e-05
0.0236555 0.000868277 1e-05
0.0240359 0.000862205 1e-05
0.0244162 0.000856078 1e-05
0.0247966 0.000849896 1e-05
0.0251385 0.000844293 1e-05
0.0254805 0.000838635 1e-05
0.0258224 0.000832939 1e-05
0.0261643 0.000827204 1e-05
0.0264797 0.00082188 1e-05
0.0265276 0.000821065 1e-05
0.0265756 0.000820249 1e-05
0.0266236 0.000819432 1e-05
0.0266716 0.000818614 1e-05
0.0267196 0.000817796 1e-05
0.0271085 0.000811164 1e-05
0.0274973 0.000804481 1e-05
0.0278862 0.000797751 1e-05
0.0282751 0.000790975 1e-05
0.028664 0.000784151 1e-05
0.0290572 0.000777266 1e-05
0.0294505 0.00077029 1e-05
0.0298437 0.000763268 1e-05
0.0302369 0.0007562 1e-05
0.0306301 0.000749085 1e-05
0.0310278 0.000741947 1e-05
0.0314254 0.000734687 1e-05
0.031823 0.000727378 1e-05
0.0322206 0.000720021 1e-05
0.0326182 0.000712614 1e-05
0.0330203 0.00070521 1e-05
0.0334223 0.000697656 1e-05
0.0338244 0.000690048 1e-05
0.0342264 0.000682387 1e-05
0.0346285 0.000674672 1e-05
0.035035 0.000666973 1e-05
0.0354416 0.000659099 1e-05
0.0358481 0.000651164 1e-05
0.0362546 0.000643168 1e-05
0.0366612 0.000635122 1e-05
0.0370722 0.000627087 1e-05
0.0374833 0.000618873 1e-05
0.0378944 0.000610565 1e-05
0.0383055 0.000602186 1e-05
0.0387166 0.00059378 1e-05
0.0391322 0.000585352 1e-05
0.0395479 0.000576743 1e-05
0.0399635 0.000568003 1e-05
0.0403792 0.000559178 1e-05
0.0407949 0.000550342 1e-05
0.0412152 0.000541453 1e-05
0.0416355 0.000532375 1e-05
0.0420558 0.00052313 1e-05
0.042476 0.000513784 1e-05
0.0428964 0.000504437 1e-05
0.0433214 0.000495006 1e-05
0.0437463 0.000485376 1e-05
0.0441713 0.000475545 1e-05
0.0445963 0.000465603 1e-05
0.0450213 0.000455655 1e-05
0.0454511 0.00044559 1e-05
0.0458808 0.000435313 1e-05
0.0463105 0.000424824 1e-05
0.0467402 0.00041421 1e-05
0.04717 0.000403562 1e-05
0.0476045 0.000392764 1e-05
0.048039 0.000381739 1e-05
0.0484736 0.000370488 1e-05
0.0489081 0.000359098 1e-05
0.0493426 0.000347646 1e-05
0.049782 0.000336007 1e-05
0.0502214 0.000324127 1e-05
0.0506607 0.000312008 1e-05
0.0511001 0.000299738 1e-05
0.0515395 0.000287371 1e-05
0.0519838 0.000274778 1e-05
0.0524281 0.000261928 1e-05
0.0528723 0.000248853 1e-05
0.0533166 0.000235603 1e-05
0.0537609 0.000222204 1e-05
0.0542102 0.000208538 1e-05
0.0546594 0.000194598 1e-05
0.0551086 0.000180441 1e-05
0.0555578 0.000166086 1e-05
0.0560071 0.000151532 1e-05
0.0564614 0.000136667 1e-05
0.0569156 0.00012152 1e-05
0.0573698 0.000106151 1e-05
0.0578241 9.05591e-05 1e-05
0.0582784 7.47413e-05 1e-05
0.0587023 5.97931e-05 1e-05
0.0591262 4.46095e-05 1e-05
0.0595501 2.92151e-05 1e-05
0.059974 1.36093e-05 1e-05
0.0603387 0 1e-05
0.060386 -1.78367e-06 1e-05
0.0604332 -3.56993e-06 1e-05
0.0604805 -5.35878e-06 1e-05
0.0605277 -7.15021e-06 1e-05
0.060575 -8.94428e-06 1e-05
0.0610394 -2.66006e-05 1e-05
0.0615038 -4.45264e-05 1e-05
0.0619683 -6.27193e-05 1e-05
0.0624327 -8.118e-05 1e-05
0.0628972 -9.99136e-05 1e-05
0.0633668 -0.000119091 1e-05
0.0638364 -0.00013859 1e-05
0.064306 -0.000158383 1e-05
0.0647756 -0.000178468 1e-05
0.0652453 -0.000198853 1e-05
0.0657202 -0.000219696 1e-05
0.0661951 -0.000240908 1e-05
0.0666699 -0.000262442 1e-05
0.0671447 -0.000284296 1e-05
0.0676197 -0.000306454 1e-05
0.0680998 -0.000329113 1e-05
0.06858 -0.000352162 1e-05
0.0690601 -0.000375586 1e-05
0.0695402 -0.000399357 1e-05
0.0700205 -0.000423432 1e-05
0.070506 -0.000448062 1e-05
0.0709916 -0.000473103 1e-05
0.071477 -0.000498557 1e-05
0.0719625 -0.000524376 1e-05
0.0724481 -0.000550527 1e-05
0.0729391 -0.000577288 1e-05
0.07343 -0.000604484 1e-05
0.0739209 -0.000632115 1e-05
0.0744118 -0.000660133 1e-05
0.0749029 -0.000688521 1e-05
0.0753993 -0.00071758 1e-05
0.0758957 -0.000747096 1e-05
0.0763921 -0.000777044 1e-05
0.0768884 -0.000807407 1e-05
0.077385 -0.000838201 1e-05
0.0778869 -0.000869726 1e-05
0.0783889 -0.000901724 1e-05
0.0788908 -0.000934164 1e-05
0.0793927 -0.000967049 1e-05
0.0798948 -0.0010004 1e-05
0.0799629 -0.00100499 1e-05
0.0800311 -0.00100959 1e-05
0.0800993 -0.00101419 1e-05
0.0801674 -0.0010188 1e-05
0.0802343 -0.00102334 1e-05
0.0806739 -0.00105321 1e-05
0.0811136 -0.00108343 1e-05
0.0815532 -0.001114 1e-05
0.0819928 -0.00114493 1e-05
0.0824326 -0.00117622 1e-05
0.0829458 -0.00121311 1e-05
0.083459 -0.00125053 1e-05
0.0839722 -0.00128845 1e-05
0.0844853 -0.00132686 1e-05
0.0849987 -0.00136579 1e-05
0.0855177 -0.00140557 1e-05
0.0860366 -0.00144593 1e-05
0.0865555 -0.00148684 1e-05
0.0870743 -0.00152828 1e-05
0.0875935 -0.00157023 1e-05
0.0881183 -0.0016131 1e-05
0.088643 -0.00165656 1e-05
0.0891676 -0.00170063 1e-05
0.0896922 -0.00174524 1e-05
0.0902172 -0.0017904 1e-05
0.0907478 -0.00183656 1e-05
0.0912784 -0.00188334 1e-05
0.0918089 -0.00193071 1e-05
0.0923393 -0.00197865 1e-05
0.0928702 -0.00202722 1e-05
0.0931109 -0.00204949 1e-05
0.0933516 -0.00207189 1e-05
0.0935922 -0.00209442 1e-05
0.0938328 -0.00211706 1e-05
0.0940603 -0.00213858 1e-05
0.0943588 -0.00216697 1e-05
0.0946573 -0.00219554 1e-05
0.0949558 -0.00222429 1e-05
0.0952542 -0.00225324 1e-05
0.0955528 -0.00228238 1e-05
0.0960954 -0.00233564 1e-05
0.0966378 -0.00238956 1e-05
0.0971802 -0.00244409 1e-05
0.0977225 -0.00249925 1e-05
0.0982654 -0.00255508 1e-05
0.098814 -0.00261208 1e-05
0.0993624 -0.00266977 1e-05
0.0999109 -0.00272817 1e-05
0.100459 -0.00278721 1e-05
0.101008 -0.00284693 1e-05
0.101563 -0.0029079 1e-05
0.102117 -0.00296959 1e-05
0.102672 -0.003032 1e-05
0.103226 -0.00309508 1e-05
0.103782 -0.00315892 1e-05
0.104117 -0.00319793 1e-05
0.104453 -0.00323722 1e-05
0.104789 -0.00327676 1e-05
0.105124 -0.00331654 1e-05
0.105438 -0.00335397 1e-05
0.105668 -0.00338154 1e-05
0.105897 -0.00340922 1e-05
0.106127 -0.00343702 1e-05
0.106356 -0.00346493 1e-05
0.106586 -0.00349299 1e-05
0.107153 -0.00356252 1e-05
0.10772 -0.0036328 1e-05
0.108287 -0.00370381 1e-05
0.108854 -0.00377555 1e-05
0.109422 -0.00384811 1e-05
0.109995 -0.00392209 1e-05
0.110568 -0.00399688 1e-05
0.111142 -0.00407248 1e-05
0.111715 -0.00414883 1e-05
0.112289 -0.00422602 1e-05
[...]
POINT_DATA 6430
 FIELD attributes 2
p 1 6430 float
-9.87075 -9.87113 -9.87151 -9.87189 -9.87227 -9.87265 -9.87637 -9.88057 -9.88479 -9.88907 -9.89383 -9.89746 -9.90159 -9.90577 -9.91002 -9.91477 -9.91837 -9.92245 -9.92661 -9.93087 -9.93561 -9.93921 -9.94328 -9.94745 -9.95173 -9.95649 -9.96012 -9.96421 -9.96843 -9.97276 -9.97755 -9.98125 -9.9854 -9.98968 -9.9941 -9.99895 -10.0028 -10.007 -10.0114 -10.0159 -10.0209 -10.0248 -10.0292 -10.0338 -10.0385 -10.0435 -10.0477 -10.0523 -10.057 -10.0619 -10.0672 -10.0716 -10.0764 -10.0814 -10.0866 -10.0922 -10.097 -10.1021 -10.1075 -10.113 -10.1188 -10.124 -10.1298 -10.1359 -10.1422 -10.1489 -10.1555 -10.1618 -10.168 -10.1743 -10.1807 -10.1908 -10.2012 -10.2116 -10.2216 -10.2309 -10.2477 -10.2559 -10.2584 -10.2563 -10.2473 -10.2541 -10.2559 -10.2546 -10.2514 -10.245 -10.2626 -10.2738 -10.2814 -10.2839 -10.2771 -10.2917 -10.2997 -10.3044 -10.305 -10.2969 -10.3033 -10.3061 -10.3074 -10.3069 -10.3017 -10.3031 -10.3038 -10.3043 -10.3044 -10.3032 -10.3015 -10.3014 -10.3015 -10.3019 -10.3034 -10.2993 -10.2986 -10.2983 -10.2982 -10.3015 -10.2959 -10.2952 -10.2946 -10.2941 -10.2982 -10.2926 -10.292 -10.2914 -10.2909 -10.2949 -10.2902 -10.29 -10.2897 -10.2894 -10.2929 -10.2898 -10.29 -10.2903 -10.2905 -10.2934 -10.2922 -10.2932 -10.2942 -10.2952 -10.2977 -10.2984 -10.3003 -10.3022 -10.3042 -10.3067 -10.3089 -10.3115 -10.3142 -10.3168 -10.3193 -10.3196 -10.32 -10.3204 -10.3207 -10.3211 -10.3251 -10.3292 -10.3332 -10.3373 -10.3414 -10.3464 -10.3515 -10.3567 -10.3618 -10.3672 -10.373 -10.3792 -10.3854 -10.3916 -10.3982 -10.4048 -10.4118 -10.4189 -10.426 -10.4338 -10.441 -10.4488 -10.4567 -10.4646 -10.4732 -10.481 -10.4893 -10.4976 -10.5062 -10.5153 -10.5236 -10.5321 -10.5408 -10.5498 -10.5591 -10.5677 -10.5763 -10.5851 -10.5942 -10.6034 -10.612 -10.6206 -10.6293 -10.6382 -10.6471 -10.6555 -10.6639 -10.6722 -10.6806 -10.6891 -10.697 -10.705 -10.7129 -10.7206 -10.7283 -10.7356 -10.7429 -10.7501 -10.757 -10.7639 -10.7704 -10.7768 -10.783 -10.7891 -10.7949 -10.8004 -10.8056 -10.8107 -10.8159 -10.8205 -10.8247 -10.8286 -10.8324 -10.8363 -10.8399 -10.8423 -10.8445 -10.8467 -10.8489 -10.8508 -10.8511 -10.8513 -10.8516 -10.8518 -10.852 -10.8528 -10.8536 -10.8544 -10.8552 -10.8558 -10.8552 -10.8542 -10.8533 -10.8523 -10.8509 -10.8488 -10.846 -10.8431 -10.8401 -10.8367 -10.8326 -10.8282 -10.8234 -10.818 -10.8125 -10.8062 -10.7999 -10.7929 -10.7852 -10.7775 -10.7689 -10.7604 -10.7511 -10.7411 -10.7311 -10.7202 -10.7088 -10.697 -10.6852 -10.6727 -10.6591 -10.6448 -10.6305 -10.6162 -10.6018 -10.5996 -10.5973 -10.595 -10.5928 -10.5905 -10.5761 -10.5617 -10.5473 -10.5329 -10.5176 -10.4992 -10.4799 -10.4606 -10.4409 -10.42 -10.3991 -10.378 -10.3559 -10.3322 -10.3086 -10.2849 -10.2612 -10.236 -10.2096 -10.1832 -10.1566 -10.1288 -10.1006 -10.0724 -10.0435 -10.0302 -10.0163 -10.0023 -9.98832 -9.97513 -9.95807 -9.94102 -9.92398 -9.90695 -9.88898 -9.85623 -9.82272 -9.78925 -9.75504 -9.71964 -9.6843 -9.649 -9.61232 -9.57415 -9.53596 -9.49782 -9.45906 -9.41905 -9.379 -9.3381 -9.31363 -9.2881 -9.26252 -9.23696 -9.21307 -9.19579 -9.17852 -9.16126 -9.14399 -9.12587 -9.08163 -9.03679 -8.99199 -8.94628 -8.89944 -8.85288 -8.80636 -8.75849 -8.70932 -8.6601 -8.61112 -8.56092 -8.51017 -8.45946 -8.40849 -8.40229 -8.39592 -8.38951 -8.3831 -8.37677 -8.3306 -8.28446 -8.23835 -8.19203 -8.14422 -8.09031 -8.03637 -7.98166 -7.92555 -7.86936 -7.81358 -7.75722 -7.69996 -7.64272 -7.58509 -7.5694 -7.55345 -7.5374 -7.52135 -7.50571 -7.46313 -7.42056 -7.378 -7.33522 -7.29151 -7.23208 -7.1726 -7.11274 -7.05179 -6.99071 -6.93017 -6.8692 -6.80766 -6.74615 -6.68441 -6.67356 -6.66262 -6.65163 -6.64065 -6.62982 -6.57862 -6.52743 -6.47627 -6.42489 -6.37283 -6.31032 -6.24784 -6.18509 -6.12192 -6.05858 -6.00018 -5.94154 -5.88277 -5.82402 -5.76934 -5.76413 -5.75892 -5.75371 -5.74849 -5.74322 -5.6801 -5.61701 -5.55395 -5.49075 -5.42719 -5.3644 -5.30163 -5.23881 -5.17617 -5.11339 -5.07845 -5.04358 -5.00875 -4.97393 -4.94034 -4.91279 -4.88525 -4.85771 -4.83016 -4.80258 -4.741 -4.67964 -4.61839 -4.55737 -4.4962 -4.43588 -4.37574 -4.31591 -4.25608 -4.19633 -4.18655 -4.17683 -4.16716 -4.15749 -4.14789 -4.09882 -4.04975 -4.00069 -3.95176 -3.90302 -3.84559 -3.78816 -3.73128 -3.67494 -3.61852 -3.5726 -3.52711 -3.48187 -3.43663 -3.39188 -3.38222 -3.37257 -3.36291 -3.35328 -3.34371 -3.29033 -3.23714 -3.18395 -3.1311 -3.07863 -3.02735 -2.97607 -2.92545 -2.87534 -2.82536 -2.79163 -2.75835 -2.72525 -2.69214 -2.65801 -2.64316 -2.6283 -2.61344 -2.59855 -2.58356 -2.5376 -2.49148 -2.44536 -2.39903 -2.35271 -2.30939 -2.26607 -2.22252 -2.17875 -2.13515 -2.0944 -2.05353 -2.01263 -1.97173 -1.931 -1.92537 -1.91972 -1.91408 -1.90843 -1.90267 -1.86974 -1.83682 -1.80391 -1.77102 -1.73559 -1.7019 -1.66655 -1.63063 -1.59259 -1.55386 -1.52273 -1.49163 -1.45811 -1.42214 -1.38635 -1.35768 -1.32822 -1.29714 -1.26543 -1.23245 -1.20599 -1.17746 -1.14896 -1.12051 -1.09147 -1.08155 -1.0711 -1.06066 -1.05023 -1.03882 -1.0233 -1.0078 -0.992317 -0.976843 -0.961534 -0.937682 -0.913739 -0.889831 -0.865957 -0.842417 -0.820941 -0.799167 -0.777393 -0.755721 -0.734246 -0.714805 -0.695254 -0.675455 -0.655792 -0.6362 -0.618632 -0.601097 -0.583213 -0.565335 -0.547491 -0.531643 -0.515824 -0.499846 -0.483593 -0.467365 -0.453094 -0.438847 -0.424608 -0.409853 -0.395118 -0.382291 -0.369472 -0.356634 -0.34345 -0.330092 -0.318589 -0.30706 -0.295508 -0.283778 -0.271692 -0.261403 -0.251046 -0.24068 -0.230291 -0.219382 -0.210207 -0.200928 -0.191657 -0.182395 -0.172693 -0.164525 -0.15627 -0.148021 -0.13978 -0.131232 -0.124007 -0.116716 -0.10943 -0.10215 -0.0946839 -0.0883645 -0.0820072 -0.0756548 -0.0693072 -0.0628826 -0.0582792 -0.0536561 -0.0490359 -0.0444186 -0.0391148 -0.0384212 -0.0377276 -0.0370341 -0.0363407 -0.0357335 -0.0312068 -0.0267654 -0.0223273 -0.0178926 -0.0142008 -0.00999556 -0.0064115 -0.00282986 0.000749401 0.00312042 0.00613597 0.00759419 0.00905099 0.0105064 0.00958097 0.0120016 0.0147355 0.0174702 0.0202058 0.0228237 0.0253817 0.0214565 0.0175363 0.0136209 0.00313685
-9.86388 -9.86422 -9.86456 -9.8649 -9.86524 -9.86557 -9.86964 -9.87375 -9.87788 -9.88201 -9.88616 -9.89021 -9.89429 -9.89838 -9.90246 -9.90654 -9.91059 -9.91466 -9.91872 -9.92278 -9.92681 -9.93088 -9.93495 -9.93902 -9.94307 -9.94708 -9.95118 -9.95528 -9.95937 -9.96343 -9.96746 -9.9716 -9.97575 -9.97989 -9.98398 -9.98803 -9.99225 -9.99646 -10.0007 -10.0048 -10.0089 -10.0132 -10.0175 -10.0219 -10.0261 -10.0303 -10.0347 -10.0391 -10.0435 -10.0479 -10.0522 -10.0567 -10.0613 -10.0659 -10.0704 -10.0748 -10.0795 -10.0842 -10.089 -10.0936 -10.0982 -10.103 -10.1078 -10.1128 -10.1176 -10.1223 -10.1273 -10.1322 -10.1373 -10.142 -10.1466 -10.1514 -10.1563 -10.1616 -10.1669 -10.1721 -10.1772 -10.1822 -10.1869 -10.191 -10.1949 -10.1987 -10.2023 -10.2052 -10.2078 -10.2102 -10.2127 -10.2153 -10.218 -10.2207 -10.2235 -10.2261 -10.2286 -10.2313 -10.2337 -10.2361 -10.2376 -10.2392 -10.2408 -10.2424 -10.244 -10.2442 -10.2445 -10.2452 -10.2464 -10.2477 -10.2473 -10.247 -10.2473 -10.2482 -10.2495 -10.2488 -10.2483 -10.2482 -10.2489 -10.2498 -10.2491 -10.2485 -10.2482 -10.2486 -10.2493 -10.2486 -10.248 -10.2478 -10.248 -10.2485 -10.2481 -10.2478 -10.2478 -10.2481 -10.2487 -10.2487 -10.2488 -10.2492 -10.2498 -10.2507 -10.2512 -10.2519 -10.2528 -10.2539 -10.2553 -10.2565 -10.2578 -10.2594 -10.2612 -10.2632 -10.2651 -10.2673 -10.2697 -10.2722 -10.275 -10.2777 -10.2807 -10.284 -10.2874 -10.291 -10.2945 -10.2984 -10.3025 -10.3067 -10.3111 -10.3155 -10.3202 -10.3251 -10.3301 -10.3353 -10.3404 -10.346 -10.3516 -10.3573 -10.3631 -10.3689 -10.3751 -10.3814 -10.3877 -10.394 -10.4004 -10.4071 -10.4138 -10.4206 -10.4271 -10.434 -10.441 -10.448 -10.455 -10.4617 -10.4688 -10.4759 -10.483 -10.4901 -10.4968 -10.5038 -10.5108 -10.5178 -10.5249 -10.5314 -10.5382 -10.5449 -10.5516 -10.5583 -10.5645 -10.5709 -10.5771 -10.5833 -10.5895 -10.5953 -10.6009 -10.6065 -10.612 -10.6175 -10.6228 -10.6275 -10.6322 -10.6368 -10.6415 -10.6461 -10.6466 -10.647 -10.6474 -10.6478 -10.6482 -10.6515 -10.6547 -10.658 -10.6613 -10.6646 -10.6672 -10.6697 -10.6722 -10.6748 -10.6772 -10.6788 -10.6799 -10.6811 -10.6823 -10.6832 -10.6836 -10.6833 -10.683 -10.6827 -10.6817 -10.6808 -10.6791 -10.6772 -10.6749 -10.6721 -10.6696 -10.6666 -10.663 -10.6584 -10.6536 -10.6493 -10.645 -10.6393 -10.6324 -10.6255 -10.6193 -10.613 -10.6054 -10.5963 -10.5873 -10.5789 -10.5703 -10.5604 -10.5495 -10.5382 -10.5276 -10.5159 -10.5036 -10.4914 -10.4777 -10.4644 -10.4497 -10.435 -10.4204 -10.4054 -10.4013 -10.3969 -10.3925 -10.3881 -10.3839 -10.3714 -10.3589 -10.3464 -10.3339 -10.3205 -10.3021 -10.2829 -10.2636 -10.244 -10.2228 -10.2022 -10.1813 -10.1595 -10.1358 -10.112 -10.0888 -10.0656 -10.0408 -10.0143 -9.98785 -9.962 -9.93502 -9.90709 -9.87919 -9.8502 -9.83133 -9.81121 -9.7911 -9.77101 -9.75245 -9.74186 -9.73128 -9.7207 -9.71013 -9.69884 -9.66678 -9.63415 -9.60156 -9.56833 -9.53363 -9.49937 -9.46513 -9.42943 -9.39212 -9.3548 -9.31788 -9.28019 -9.24122 -9.20228 -9.16247 -9.14433 -9.12536 -9.10628 -9.08721 -9.06902 -9.04683 -9.02465 -9.00248 -8.98018 -8.95722 -8.91444 -8.87135 -8.82819 -8.78386 -8.7393 -8.69411 -8.64881 -8.60232 -8.55575 -8.50891 -8.48693 -8.46455 -8.44198 -8.41942 -8.39779 -8.37156 -8.34534 -8.31913 -8.29285 -8.26604 -8.21558 -8.16501 -8.11445 -8.06312 -8.01155 -7.95913 -7.90674 -7.85347 -7.80017 -7.74682 -7.71297 -7.67875 -7.64442 -7.61009 -7.57732 -7.55652 -7.53573 -7.51494 -7.49407 -7.47286 -7.41676 -7.36065 -7.30457 -7.24786 -7.19082 -7.1334 -7.076 -7.01791 -6.95983 -6.90174 -6.86687 -6.83176 -6.79656 -6.76136 -6.72749 -6.70342 -6.67936 -6.6553 -6.63118 -6.60686 -6.54694 -6.48728 -6.42765 -6.3677 -6.30762 -6.24719 -6.18676 -6.12615 -6.06566 -6.00537 -5.97744 -5.94951 -5.92158 -5.89366 -5.86638 -5.83344 -5.80049 -5.76756 -5.73461 -5.70163 -5.64046 -5.57959 -5.51895 -5.45848 -5.39796 -5.33715 -5.27645 -5.21604 -5.15564 -5.09568 -5.07852 -5.06148 -5.04449 -5.02751 -5.0107 -4.96775 -4.9248 -4.88185 -4.839 -4.79641 -4.73666 -4.67701 -4.61814 -4.55986 -4.50154 -4.44297 -4.38487 -4.32722 -4.26958 -4.2122 -4.20475 -4.19739 -4.19008 -4.18277 -4.17547 -4.12616 -4.07684 -4.02752 -3.97843 -3.92998 -3.87409 -3.81821 -3.76345 -3.70961 -3.65577 -3.60172 -3.54851 -3.49577 -3.44304 -3.39045 -3.38716 -3.38394 -3.38074 -3.37754 -3.37434 -3.32623 -3.27811 -3.22999 -3.18213 -3.13527 -3.08514 -3.03501 -2.98614 -2.93838 -2.89064 -2.84277 -2.79575 -2.74937 -2.70299 -2.65703 -2.6491 -2.64138 -2.63372 -2.62606 -2.61837 -2.58145 -2.54453 -2.50761 -2.47086 -2.43515 -2.3919 -2.34891 -2.30672 -2.26589 -2.22508 -2.18426 -2.14374 -2.1044 -2.06527 -2.0269 -2.0036 -1.98109 -1.95869 -1.93629 -1.91322 -1.89862 -1.88401 -1.86941 -1.85483 -1.84076 -1.80508 -1.76998 -1.73489 -1.70037 -1.66667 -1.63311 -1.59955 -1.56707 -1.53567 -1.50432 -1.47308 -1.44239 -1.41245 -1.38251 -1.35341 -1.33497 -1.31729 -1.29961 -1.28193 -1.26331 -1.25329 -1.24328 -1.23327 -1.22326 -1.21359 -1.18725 -1.16123 -1.13521 -1.10938 -1.08445 -1.05984 -1.03538 -1.0114 -0.988415 -0.965458 -0.942815 -0.920175 -0.898324 -0.877195 -0.856095 -0.835299 -0.815039 -0.795126 -0.775218 -0.75581 -0.739848 -0.724406 -0.708968 -0.693533 -0.676565 -0.674048 -0.671531 -0.669014 -0.666497 -0.664039 -0.647124 -0.630254 -0.613391 -0.596535 -0.580143 -0.56447 -0.549078 -0.533693 -0.518517 -0.503701 -0.489438 -0.475225 -0.461211 -0.447689 -0.434195 -0.421242 -0.408293 -0.395689 -0.38341 -0.371144 -0.359408 -0.347718 -0.336406 -0.325225 -0.314102 -0.303496 -0.293137 -0.282923 -0.272724 -0.262665 -0.253164 -0.243975 -0.234789 -0.225607 -0.216486 -0.209694 -0.20303 -0.196369 -0.18971 -0.182379 -0.180946 -0.179512 -0.178079 -0.176646 -0.175214 -0.167871 -0.160515 -0.153161 -0.145812 -0.138482 -0.132131 -0.125639 -0.119149 -0.112662 -0.106182 -0.100749 -0.0951751 -0.0895998 -0.0840735 -0.0786923 -0.0743317 -0.0696014 -0.064555 -0.0593181 -0.0539613 -0.0495649 -0.0452776 -0.0417574 -0.0398525 -0.0380099 -0.0370224 -0.0360349 -0.0292313 -0.0170131 -0.00479519 0.00709507 0.0189855 0.019851 0.00992574 0
-9.85875 -9.85906 -9.85937 -9.85969 -9.86 -9.86032 -9.86428 -9.86824 -9.8722 -9.87616 -9.88007 -9.88399 -9.88791 -9.89183 -9.89574 -9.89962 -9.9035 -9.90739 -9.91128 -9.91516 -9.91901 -9.92288 -9.92675 -9.93061 -9.93448 -9.93831 -9.94217 -9.94604 -9.9499 -9.95377 -9.95758 -9.96144 -9.96532 -9.96919 -9.97306 -9.97687 -9.98075 -9.98463 -9.98852 -9.99241 -9.99623 -10.0001 -10.004 -10.0079 -10.0118 -10.0157 -10.0196 -10.0235 -10.0274 -10.0313 -10.0352 -10.0391 -10.043 -10.0469 -10.0509 -10.0547 -10.0586 -10.0625 -10.0664 -10.0703 -10.0741 -10.0779 -10.0818 -10.0856 -10.0895 -10.0932 -10.0969 -10.1006 -10.1042 -10.1079 -10.1115 -10.115 -10.1187 -10.1224 -10.1261 -10.1298 -10.1335 -10.1372 -10.141 -10.1447 -10.1484 -10.1519 -10.1551 -10.1584 -10.1617 -10.1647 -10.1675 -10.1701 -10.1728 -10.1754 -10.178 -10.1803 -10.1826 -10.1848 -10.1871 -10.1892 -10.1912 -10.193 -10.1948 -10.1966 -10.1982 -10.1997 -10.201 -10.2023 -10.2036 -10.2048 -10.2059 -10.2068 -10.2077 -10.2087 -10.2096 -10.2104 -10.2111 -10.2118 -10.2125 -10.2132 -10.2139 -10.2144 -10.215 -10.2156 -10.2161 -10.2167 -10.2172 -10.2178 -10.2183 -10.2188 -10.2195 -10.2201 -10.2207 -10.2214 -10.222 -10.2229 -10.2237 -10.2246 -10.2255 -10.2264 -10.2275 -10.2287 -10.2299 -10.2312 -10.2324 -10.234 -10.2357 -10.2373 -10.239 -10.2407 -10.2428 -10.245 -10.2472 -10.2494 -10.2516 -10.2543 -10.2571 -10.2598 -10.2626 -10.2654 -10.2687 -10.272 -10.2754 -10.2787 -10.2821 -10.2859 -10.2898 -10.2938 -10.2977 -10.3016 -10.3059 -10.3104 -10.3148 -10.3192 -10.3236 -10.3284 -10.3332 -10.3381 -10.3429 -10.3477 -10.3528 -10.3579 -10.3631 -10.3682 -10.3733 -10.3768 -10.3803 -10.3837 -10.3872 -10.3902 -10.3921 -10.394 -10.3959 -10.3978 -10.3997 -10.405 -10.4103 -10.4156 -10.4209 -10.4262 -10.4314 -10.4366 -10.4417 -10.4469 -10.452 -10.457 -10.4618 -10.4666 -10.4715 -10.4763 -10.4809 -10.4852 -10.4896 -10.4939 -10.4983 -10.5023 -10.506 -10.5097 -10.5134 -10.5171 -10.5205 -10.5234 -10.5263 -10.5292 -10.5319 -10.5346 -10.5365 -10.5385 -10.5404 -10.5421 -10.5438 -10.5448 -10.5456 -10.5464 -10.5469 -10.5474 -10.5473 -10.5469 -10.5463 -10.5455 -10.5447 -10.5435 -10.5417 -10.5396 -10.5373 -10.535 -10.5326 -10.5293 -10.5254 -10.5215 -10.5176 -10.5137 -10.5088 -10.5032 -10.4975 -10.4919 -10.4862 -10.4797 -10.4722 -10.4647 -10.4572 -10.4497 -10.4413 -10.4319 -10.4224 -10.413 -10.4032 -10.3927 -10.3817 -10.3701 -10.3586 -10.3462 -10.3336 -10.321 -10.3073 -10.2933 -10.2784 -10.2635 -10.2486 -10.2333 -10.2232 -10.2125 -10.2019 -10.1913 -10.1816 -10.1749 -10.1683 -10.1616 -10.155 -10.148 -10.129 -10.1097 -10.0905 -10.0712 -10.0507 -10.0302 -10.0086 -9.9869 -9.96461 -9.94122 -9.91828 -9.89514 -9.87104 -9.84513 -9.81924 -9.7938 -9.76837 -9.7414 -9.71297 -9.68456 -9.65661 -9.62798 -9.59813 -9.56799 -9.53706 -9.50641 -9.47401 -9.44163 -9.40926 -9.3767 -9.37113 -9.3653 -9.35947 -9.35363 -9.3479 -9.31924 -9.2906 -9.26198 -9.23338 -9.20332 -9.16749 -9.13073 -9.09394 -9.056 -9.01713 -8.97886 -8.9406 -8.90088 -8.85964 -8.81841 -8.77776 -8.73634 -8.69367 -8.65097 -8.60747 -8.57935 -8.54994 -8.52054 -8.49115 -8.46329 -8.4477 -8.43211 -8.41652 -8.40091 -8.38464 -8.33859 -8.29216 -8.24575 -8.19856 -8.15029 -8.10242 -8.05457 -8.00557 -7.95546 -7.90533 -7.85558 -7.80478 -7.7534 -7.70204 -7.65051 -7.64202 -7.63333 -7.6246 -7.61586 -7.60722 -7.56335 -7.5195 -7.47566 -7.43158 -7.38659 -7.33282 -7.27906 -7.22484 -7.16975 -7.11463 -7.05957 -7.00396 -6.94789 -6.89183 -6.83573 -6.82945 -6.82311 -6.81674 -6.81037 -6.80404 -6.75365 -6.70326 -6.65288 -6.60226 -6.55121 -6.4936 -6.436 -6.37813 -6.32017 -6.26218 -6.2224 -6.18249 -6.1425 -6.10252 -6.06378 -6.04506 -6.02633 -6.00761 -5.98887 -5.9701 -5.91107 -5.85235 -5.7937 -5.7351 -5.67647 -5.61827 -5.56018 -5.50221 -5.44425 -5.38846 -5.3872 -5.38594 -5.38468 -5.38342 -5.38217 -5.32345 -5.26478 -5.2061 -5.14758 -5.0893 -5.03063 -4.97197 -4.91371 -4.85623 -4.79872 -4.76134 -4.72423 -4.6873 -4.65037 -4.61391 -4.59345 -4.573 -4.55254 -4.53217 -4.51199 -4.45476 -4.3983 -4.34184 -4.2861 -4.23055 -4.17461 -4.11882 -4.06395 -4.00919 -3.95511 -3.93396 -3.9131 -3.8924 -3.87171 -3.85108 -3.81813 -3.78519 -3.75224 -3.7195 -3.68729 -3.63425 -3.58157 -3.52952 -3.47871 -3.4279 -3.37673 -3.32607 -3.27631 -3.22655 -3.17745 -3.1646 -3.15202 -3.13956 -3.1271 -3.11462 -3.07888 -3.04315 -3.00741 -2.97192 -2.93729 -2.89007 -2.84307 -2.79702 -2.75231 -2.7076 -2.66259 -2.61814 -2.5747 -2.53125 -2.48859 -2.47428 -2.46038 -2.4466 -2.43282 -2.41893 -2.39112 -2.36332 -2.33551 -2.30786 -2.28111 -2.2406 -2.20066 -2.16112 -2.12301 -2.08507 -2.04688 -2.00877 -1.97214 -1.93597 -1.9003 -1.87469 -1.85002 -1.82551 -1.801 -1.77575 -1.7659 -1.75606 -1.74621 -1.73639 -1.72697 -1.69384 -1.66117 -1.62851 -1.59636 -1.5652 -1.53386 -1.50253 -1.47235 -1.44331 -1.41429 -1.38511 -1.3565 -1.3287 -1.30092 -1.27393 -1.2582 -1.24323 -1.22826 -1.2133 -1.19778 -1.18691 -1.17605 -1.16518 -1.15432 -1.14395 -1.11926 -1.09502 -1.07079 -1.04693 -1.02393 -1.00086 -0.977802 -0.955619 -0.934382 -0.913163 -0.891888 -0.870703 -0.850515 -0.830708 -0.811158 -0.791567 -0.772936 -0.754364 -0.735795 -0.717421 -0.712937 -0.708652 -0.704368 -0.700083 -0.69571 -0.682781 -0.669854 -0.656931 -0.644011 -0.631616 -0.615371 -0.599516 -0.583667 -0.568094 -0.553102 -0.538156 -0.523267 -0.508797 -0.49507 -0.481354 -0.467694 -0.454038 -0.440991 -0.428452 -0.415922 -0.403459 -0.391308 -0.379526 -0.36781 -0.356384 -0.345115 -0.334397 -0.32368 -0.312966 -0.302347 -0.299008 -0.295794 -0.292581 -0.289368 -0.286059 -0.279496 -0.272936 -0.266377 -0.259819 -0.253477 -0.24447 -0.235573 -0.22668 -0.217789 -0.209394 -0.201186 -0.193119 -0.185098 -0.177337 -0.169813 -0.162463 -0.155121 -0.147913 -0.1411 -0.134291 -0.127654 -0.121019 -0.114776 -0.108863 -0.102953 -0.0972132 -0.0914671 -0.0856665 -0.0796277 -0.0735025 -0.067512 -0.0626346 -0.0584424 -0.0543554 -0.0512093 -0.047554 -0.0391322 -0.0307134 -0.0222977 -0.0117752 -0.00631514 -0.00535407 -0.00439103 -0.00342601 -0.00243228 -0.00171044 -0.000988778 -0.000267297 0.000454006 0