# vtk DataFile Version 2.0
track0
ASCII
DATASET POLYDATA
POINTS 6430 float
-0.0205 0.001 1e-05
-0.0204727 0.00100011 1e-05
-0.0204454 0.00100021 1e-05
-0.0204181 0.00100032 1e-05
-0.0203908 0.00100042 1e-05
-0.0203635 0.00100053 1e-05
-0.0200299 0.00100181 1e-05
-0.0196963 0.00100312 1e-05
-0.0193627 0.00100443 1e-05
-0.0190291 0.00100573 1e-05
-0.0186954 0.00100701 1e-05
-0.018369 0.00100821 1e-05
-0.0180425 0.00100944 1e-05
-0.017716 0.00101066 1e-05
-0.0173896 0.00101188 1e-05
-0.0170631 0.00101307 1e-05
-0.0167436 0.00101419 1e-05
-0.0164242 0.00101534 1e-05
-0.0161047 0.00101648 1e-05
-0.0157852 0.00101761 1e-05
-0.0154657 0.00101873 1e-05
-0.0151531 0.00101977 1e-05
-0.0148405 0.00102085 1e-05
-0.0145279 0.00102191 1e-05
-0.0142152 0.00102297 1e-05
-0.0139026 0.00102401 1e-05
-0.0135967 0.00102499 1e-05
-0.0132908 0.00102599 1e-05
-0.0129848 0.00102698 1e-05
-0.0126789 0.00102797 1e-05
-0.012373 0.00102894 1e-05
-0.0120736 0.00102985 1e-05
-0.0117742 0.00103078 1e-05
-0.0114749 0.00103171 1e-05
-0.0111755 0.00103263 1e-05
-0.0108761 0.00103354 1e-05
-0.0105832 0.00103438 1e-05
-0.0102902 0.00103524 1e-05
-0.00999724 0.00103611 1e-05
-0.00970429 0.00103697 1e-05
-0.00941133 0.00103781 1e-05
-0.00912465 0.00103859 1e-05
-0.00883797 0.00103939 1e-05
-0.00855129 0.00104019 1e-05
-0.00826461 0.00104099 1e-05
-0.00797793 0.00104177 1e-05
-0.00769739 0.00104249 1e-05
-0.00741686 0.00104323 1e-05
-0.00713632 0.00104398 1e-05
-0.00685578 0.00104471 1e-05
-0.00657525 0.00104543 1e-05
-0.00630072 0.00104609 1e-05
-0.0060262 0.00104677 1e-05
-0.00575167 0.00104746 1e-05
-0.00547714 0.00104814 1e-05
-0.00520262 0.00104879 1e-05
-0.00493398 0.00104939 1e-05
-0.00466533 0.00105002 1e-05
-0.00439669 0.00105064 1e-05
-0.00412805 0.00105126 1e-05
-0.0038594 0.00105186 1e-05
-0.00359652 0.0010524 1e-05
-0.00333363 0.00105297 1e-05
-0.00307074 0.00105354 1e-05
-0.00280786 0.00105411 1e-05
-0.00254497 0.00105465 1e-05
-0.00228772 0.00105514 1e-05
-0.00203046 0.00105564 1e-05
-0.00177321 0.00105614 1e-05
-0.00151596 0.00105662 1e-05
-0.0012587 0.00105707 1e-05
-0.00100696 0.00105748 1e-05
-0.000755223 0.00105794 1e-05
-0.000503482 0.00105834 1e-05
-0.000251741 0.00105861 1e-05
0 0.00105871 1e-05
0.000329256 0.00105853 1e-05
0.000658511 0.00105851 1e-05
0.000987767 0.00105842 1e-05
0.00131702 0.00105811 1e-05
0.00164628 0.00105749 1e-05
0.00197921 0.00105642 1e-05
0.00231214 0.00105586 1e-05
0.00264507 0.00105544 1e-05
0.002978 0.00105494 1e-05
0.00331093 0.00105415 1e-05
0.00364757 0.0010527 1e-05
0.00398422 0.00105191 1e-05
0.00432087 0.00105131 1e-05
0.00465751 0.00105067 1e-05
0.00499415 0.00104974 1e-05
0.00533455 0.00104802 1e-05
0.00567496 0.00104694 1e-05
0.00601536 0.00104606 1e-05
0.00635577 0.00104512 1e-05
0.00669616 0.00104391 1e-05
0.00704036 0.00104188 1e-05
0.00738456 0.00104044 1e-05
0.00772877 0.00103914 1e-05
0.00807297 0.00103779 1e-05
0.00841716 0.00103619 1e-05
0.0087652 0.00103381 1e-05
0.00911324 0.00103194 1e-05
0.00946129 0.00103013 1e-05
0.00980933 0.00102825 1e-05
0.0101574 0.00102618 1e-05
0.0105093 0.0010234 1e-05
0.0108612 0.00102102 1e-05
0.0112131 0.00101863 1e-05
0.0115651 0.00101617 1e-05
0.011917 0.00101355 1e-05
0.0122728 0.00101033 1e-05
0.0126287 0.00100739 1e-05
0.0129845 0.00100439 1e-05
0.0133404 0.00100131 1e-05
0.0136962 0.000998122 1e-05
0.0140561 0.000994417 1e-05
0.0144159 0.000990899 1e-05
0.0147757 0.000987297 1e-05
0.0151355 0.000983604 1e-05
0.0154954 0.000979819 1e-05
0.0158592 0.000975625 1e-05
0.016223 0.000971521 1e-05
0.0165869 0.00096733 1e-05
0.0169507 0.000963052 1e-05
0.0173145 0.000958686 1e-05
0.0176824 0.000954013 1e-05
0.0180503 0.000949353 1e-05
0.0184182 0.000944614 1e-05
0.0187861 0.000939795 1e-05
0.019154 0.000934895 1e-05
0.019526 0.000929768 1e-05
0.019898 0.000924602 1e-05
0.02027 0.000919366 1e-05
0.020642 0.000914058 1e-05
0.0210141 0.000908679 1e-05
0.0213902 0.000903129 1e-05
0.0217664 0.000897511 1e-05
0.0221425 0.000891832 1e-05
0.0225187 0.00088609 1e-05
0.0228948 0.000880285 1e-05
0.0232752 0.000874346 1e-05
0.0236555 0.00086833 1e-05
0.0240359 0.00086226 1e-05
0.0244162 0.000856135 1e-05
0.0247966 0.000849956 1e-05
0.0251394 0.00084434 1e-05
0.0254822 0.000838671 1e-05
0.025825 0.000832962 1e-05
0.0261677 0.000827215 1e-05
0.0264838 0.00082188 1e-05
0.0265309 0.000821079 1e-05
0.0265781 0.000820277 1e-05
0.0266253 0.000819475 1e-05
0.0266724 0.000818671 1e-05
0.0267196 0.000817867 1e-05
0.0271085 0.000811237 1e-05
0.0274973 0.000804556 1e-05
0.0278862 0.000797828 1e-05
0.0282751 0.000791054 1e-05
0.028664 0.000784232 1e-05
0.0290572 0.000777349 1e-05
0.0294505 0.000770375 1e-05
0.0298437 0.000763355 1e-05
0.0302369 0.000756289 1e-05
0.0306301 0.000749176 1e-05
0.0310278 0.00074204 1e-05
0.0314254 0.000734781 1e-05
0.031823 0.000727474 1e-05
0.0322206 0.000720119 1e-05
0.0326182 0.000712714 1e-05
0.0330203 0.000705311 1e-05
0.0334223 0.000697759 1e-05
0.0338244 0.000690153 1e-05
0.0342264 0.000682494 1e-05
0.0346285 0.00067478 1e-05
0.035035 0.000667083 1e-05
0.0354416 0.00065921 1e-05
0.0358481 0.000651276 1e-05
0.0362546 0.000643281 1e-05
0.0366612 0.000635236 1e-05
0.0370722 0.000627202 1e-05
0.0374833 0.000618987 1e-05
0.0378944 0.00061068 1e-05
0.0383055 0.0006023 1e-05
0.0387166 0.000593894 1e-05
0.0391322 0.000585466 1e-05
0.0395479 0.000576856 1e-05
0.0399635 0.000568115 1e-05
0.0403792 0.000559289 1e-05
0.0407949 0.000550451 1e-05
0.0412152 0.000541561 1e-05
0.0416355 0.000532481 1e-05
0.0420558 0.000523234 1e-05
0.042476 0.000513887 1e-05
0.0428964 0.000504537 1e-05
0.0433214 0.000495104 1e-05
0.0437463 0.000485472 1e-05
0.0441713 0.000475639 1e-05
0.0445963 0.000465695 1e-05
0.0450213 0.000455745 1e-05
0.0454511 0.000445678 1e-05
0.0458808 0.000435399 1e-05
0.0463105 0.000424908 1e-05
0.0467402 0.000414292 1e-05
0.04717 0.000403643 1e-05
0.0476045 0.000392843 1e-05
0.048039 0.000381817 1e-05
0.0484736 0.000370564 1e-05
0.0489081 0.000359172 1e-05
0.0493426 0.000347719 1e-05
0.049782 0.000336078 1e-05
0.0502214 0.000324196 1e-05
0.0506607 0.000312075 1e-05
0.0511001 0.000299803 1e-05
0.0515395 0.000287434 1e-05
0.0519838 0.000274839 1e-05
0.0524281 0.000261986 1e-05
0.0528723 0.000248907 1e-05
0.0533166 0.000235654 1e-05
0.0537609 0.000222252 1e-05
0.0542102 0.000208582 1e-05
0.0546594 0.000194638 1e-05
0.0551086 0.000180477 1e-05
0.0555578 0.000166118 1e-05
0.0560071 0.000151559 1e-05
0.0564614 0.000136689 1e-05
0.0569156 0.000121538 1e-05
0.0573698 0.000106164 1e-05
0.0578241 9.05678e-05 1e-05
0.0582784 7.47454e-05 1e-05
0.0587022 5.97963e-05 1e-05
0.059126 4.46121e-05 1e-05
0.0595498 2.92173e-05 1e-05
0.0599736 1.36112e-05 1e-05
0.0603383 0 1e-05
0.0603856 -1.78742e-06 1e-05
0.060433 -3.57743e-06 1e-05
0.0604803 -5.37003e-06 1e-05
0.0605276 -7.16524e-06 1e-05
0.060575 -8.96308e-06 1e-05
0.0610394 -2.66237e-05 1e-05
0.0615038 -4.45538e-05 1e-05
0.0619683 -6.27508e-05 1e-05
0.0624327 -8.12156e-05 1e-05
0.0628972 -9.99532e-05 1e-05
0.0633668 -0.000119134 1e-05
0.0638364 -0.000138638 1e-05
0.064306 -0.000158434 1e-05
0.0647756 -0.000178524 1e-05
0.0652453 -0.000198913 1e-05
0.0657202 -0.00021976 1e-05
0.0661951 -0.000240977 1e-05
0.0666699 -0.000262516 1e-05
0.0671447 -0.000284374 1e-05
0.0676197 -0.000306537 1e-05
0.0680998 -0.000329201 1e-05
0.06858 -0.000352255 1e-05
0.0690601 -0.000375685 1e-05
0.0695402 -0.000399461 1e-05
0.0700205 -0.000423542 1e-05
0.070506 -0.000448178 1e-05
0.0709916 -0.000473226 1e-05
0.071477 -0.000498685 1e-05
0.0719625 -0.000524511 1e-05
0.0724481 -0.000550667 1e-05
0.0729391 -0.000577435 1e-05
0.07343 -0.000604638 1e-05
0.0739209 -0.000632275 1e-05
0.0744118 -0.000660299 1e-05
0.0749029 -0.000688693 1e-05
0.0753993 -0.000717759 1e-05
0.0758957 -0.000747281 1e-05
0.0763921 -0.000777236 1e-05
0.0768884 -0.000807606 1e-05
0.077385 -0.000838406 1e-05
0.0778869 -0.000869938 1e-05
0.0783889 -0.000901944 1e-05
0.0788908 -0.000934391 1e-05
0.0793927 -0.000967283 1e-05
0.0798948 -0.00100064 1e-05
0.0799622 -0.00100518 1e-05
0.0800296 -0.00100973 1e-05
0.080097 -0.00101429 1e-05
0.0801645 -0.00101885 1e-05
0.0802306 -0.00102334 1e-05
0.080671 -0.00105327 1e-05
0.0811114 -0.00108354 1e-05
0.0815517 -0.00111417 1e-05
0.0819921 -0.00114515 1e-05
0.0824326 -0.0011765 1e-05
0.0829458 -0.0012134 1e-05
0.083459 -0.00125083 1e-05
0.0839722 -0.00128876 1e-05
0.0844853 -0.00132718 1e-05
0.0849987 -0.00136612 1e-05
0.0855177 -0.00140592 1e-05
0.0860366 -0.00144628 1e-05
0.0865555 -0.00148721 1e-05
0.0870743 -0.00152866 1e-05
0.0875935 -0.00157062 1e-05
0.0881183 -0.0016135 1e-05
0.088643 -0.00165698 1e-05
0.0891676 -0.00170106 1e-05
0.0896922 -0.00174568 1e-05
0.0902172 -0.00179086 1e-05
0.0907478 -0.00183703 1e-05
0.0912784 -0.00188383 1e-05
0.0918089 -0.00193121 1e-05
0.0923393 -0.00197916 1e-05
0.0928702 -0.00202775 1e-05
0.0931097 -0.00204991 1e-05
0.0933491 -0.00207221 1e-05
0.0935886 -0.00209463 1e-05
0.093828 -0.00211716 1e-05
0.0940543 -0.00213858 1e-05
0.094354 -0.00216709 1e-05
0.0946537 -0.00219578 1e-05
0.0949534 -0.00222466 1e-05
0.095253 -0.00225372 1e-05
0.0955528 -0.002283 1e-05
0.0960954 -0.00233627 1e-05
0.0966378 -0.0023902 1e-05
0.0971802 -0.00244476 1e-05
0.0977225 -0.00249994 1e-05
0.0982654 -0.00255579 1e-05
0.098814 -0.00261281 1e-05
0.0993624 -0.00267053 1e-05
0.0999109 -0.00272895 1e-05
0.100459 -0.00278801 1e-05
0.101008 -0.00284776 1e-05
0.101563 -0.00290875 1e-05
0.102117 -0.00297047 1e-05
0.102672 -0.00303291 1e-05
0.103226 -0.00309601 1e-05
0.103782 -0.00315989 1e-05
0.104116 -0.00319871 1e-05
0.104449 -0.0032378 1e-05
0.104783 -0.00327713 1e-05
0.105117 -0.00331672 1e-05
0.105429 -0.00335397 1e-05
0.10566 -0.00338176 1e-05
0.105892 -0.00340966 1e-05
0.106123 -0.00343769 1e-05
0.106355 -0.00346584 1e-05
0.106586 -0.00349412 1e-05
0.107153 -0.00356369 1e-05
0.10772 -0.00363401 1e-05
0.108287 -0.00370505 1e-05
0.108854 -0.00377683 1e-05
0.109422 -0.00384943 1e-05
0.109995 -0.00392345 1e-05
0.110568 -0.00399828 1e-05
0.111142 -0.00407392 1e-05
0.111715 -0.00415032 1e-05
0.112289 -0.00422756 1e-05
[...]
POINT_DATA 6430
 FIELD attributes 2
p 1 6430 float
-9.87677 -9.87715 -9.87753 -9.87792 -9.8783 -9.87868 -9.8824 -9.88659 -9.89082 -9.89509 -9.89985 -9.90349 -9.90761 -9.91179 -9.91605 -9.92079 -9.92439 -9.92847 -9.93264 -9.93689 -9.94163 -9.94523 -9.9493 -9.95348 -9.95776 -9.96251 -9.96614 -9.97024 -9.97445 -9.97879 -9.98357 -9.98728 -9.99142 -9.99571 -10.0001 -10.005 -10.0088 -10.013 -10.0174 -10.022 -10.0269 -10.0309 -10.0352 -10.0398 -10.0445 -10.0496 -10.0537 -10.0583 -10.063 -10.0679 -10.0732 -10.0776 -10.0824 -10.0875 -10.0927 -10.0982 -10.103 -10.1082 -10.1135 -10.119 -10.1248 -10.13 -10.1358 -10.1419 -10.1482 -10.1549 -10.1615 -10.1678 -10.174 -10.1803 -10.1868 -10.1969 -10.2072 -10.2176 -10.2276 -10.2369 -10.2537 -10.2619 -10.2644 -10.2623 -10.2533 -10.2601 -10.2619 -10.2606 -10.2574 -10.251 -10.2686 -10.2798 -10.2874 -10.2899 -10.2831 -10.2977 -10.3057 -10.3104 -10.3109 -10.3029 -10.3093 -10.3121 -10.3134 -10.3129 -10.3077 -10.3091 -10.3098 -10.3103 -10.3104 -10.3091 -10.3075 -10.3073 -10.3075 -10.3079 -10.3094 -10.3053 -10.3046 -10.3043 -10.3042 -10.3075 -10.3019 -10.3012 -10.3006 -10.3001 -10.3042 -10.2986 -10.298 -10.2974 -10.2969 -10.3009 -10.2963 -10.296 -10.2957 -10.2955 -10.2989 -10.2959 -10.2961 -10.2964 -10.2966 -10.2995 -10.2983 -10.2993 -10.3003 -10.3014 -10.3039 -10.3046 -10.3065 -10.3085 -10.3104 -10.3129 -10.3152 -10.3178 -10.3205 -10.3232 -10.3256 -10.326 -10.3263 -10.3267 -10.3271 -10.3274 -10.3315 -10.3355 -10.3396 -10.3437 -10.3478 -10.3527 -10.3579 -10.3631 -10.3682 -10.3736 -10.3794 -10.3856 -10.3918 -10.398 -10.4046 -10.4112 -10.4183 -10.4254 -10.4325 -10.4403 -10.4474 -10.4553 -10.4631 -10.471 -10.4796 -10.4874 -10.4957 -10.5041 -10.5127 -10.5217 -10.53 -10.5385 -10.5472 -10.5562 -10.5655 -10.574 -10.5827 -10.5914 -10.6005 -10.6097 -10.6183 -10.6269 -10.6356 -10.6445 -10.6534 -10.6618 -10.6702 -10.6785 -10.6869 -10.6954 -10.7033 -10.7112 -10.7191 -10.7269 -10.7346 -10.7419 -10.7492 -10.7564 -10.7633 -10.7702 -10.7766 -10.783 -10.7893 -10.7953 -10.8012 -10.8066 -10.8118 -10.8169 -10.8221 -10.8267 -10.8309 -10.8347 -10.8386 -10.8424 -10.846 -10.8484 -10.8506 -10.8528 -10.855 -10.8569 -10.8572 -10.8574 -10.8577 -10.8579 -10.8582 -10.8589 -10.8597 -10.8605 -10.8613 -10.8619 -10.8613 -10.8603 -10.8594 -10.8585 -10.8571 -10.8549 -10.8521 -10.8493 -10.8463 -10.8429 -10.8387 -10.8343 -10.8295 -10.8241 -10.8186 -10.8123 -10.8061 -10.799 -10.7913 -10.7836 -10.7751 -10.7666 -10.7573 -10.7473 -10.7372 -10.7263 -10.7149 -10.7032 -10.6914 -10.6789 -10.6653 -10.651 -10.6367 -10.6224 -10.608 -10.6059 -10.6036 -10.6013 -10.5991 -10.5969 -10.5824 -10.568 -10.5536 -10.5392 -10.5239 -10.5055 -10.4861 -10.4669 -10.4471 -10.4263 -10.4053 -10.3842 -10.3621 -10.3385 -10.3149 -10.2911 -10.2674 -10.2422 -10.2158 -10.1894 -10.1628 -10.1351 -10.1068 -10.0786 -10.0497 -10.0365 -10.0226 -10.0087 -9.99481 -9.98168 -9.96455 -9.94743 -9.93032 -9.91321 -9.89517 -9.86242 -9.8289 -9.79541 -9.76119 -9.72578 -9.69043 -9.65511 -9.61842 -9.58023 -9.54202 -9.50386 -9.46509 -9.42506 -9.38498 -9.34406 -9.31971 -9.29431 -9.26886 -9.24341 -9.21963 -9.20221 -9.1848 -9.16739 -9.14997 -9.1317 -9.08744 -9.04257 -8.99774 -8.952 -8.90513 -8.85854 -8.81198 -8.76407 -8.71487 -8.66561 -8.61659 -8.56634 -8.51555 -8.46479 -8.4138 -8.40781 -8.40166 -8.39548 -8.3893 -8.38319 -8.33675 -8.29034 -8.24396 -8.19738 -8.14929 -8.09533 -8.04135 -7.98657 -7.93042 -7.87417 -7.81834 -7.76192 -7.7046 -7.64732 -7.58963 -7.57427 -7.55865 -7.54293 -7.52722 -7.51189 -7.46892 -7.42597 -7.38304 -7.33987 -7.29577 -7.23628 -7.17676 -7.11683 -7.05583 -6.99469 -6.9341 -6.87307 -6.81147 -6.74991 -6.68812 -6.67773 -6.66725 -6.65672 -6.6462 -6.63582 -6.58411 -6.53241 -6.48074 -6.42884 -6.37627 -6.31371 -6.25118 -6.18838 -6.12517 -6.06178 -6.00396 -5.9459 -5.88771 -5.82954 -5.77537 -5.76955 -5.76374 -5.75792 -5.75209 -5.74622 -5.68305 -5.61994 -5.55684 -5.49361 -5.43002 -5.36721 -5.30441 -5.24157 -5.17891 -5.11611 -5.08188 -5.04772 -5.0136 -4.97948 -4.94656 -4.9183 -4.89004 -4.86178 -4.83353 -4.80524 -4.74365 -4.68228 -4.62103 -4.56002 -4.49886 -4.43855 -4.37842 -4.31861 -4.2588 -4.19905 -4.19003 -4.18107 -4.17215 -4.16324 -4.15439 -4.10458 -4.05477 -4.00497 -3.9553 -3.90584 -3.84843 -3.79103 -3.73419 -3.67789 -3.6215 -3.57641 -3.53173 -3.4873 -3.44288 -3.39891 -3.38849 -3.37806 -3.36763 -3.35723 -3.3469 -3.29356 -3.24042 -3.18728 -3.13451 -3.08209 -3.03087 -2.97965 -2.9291 -2.87904 -2.82913 -2.79613 -2.76357 -2.73118 -2.69878 -2.66541 -2.64988 -2.63436 -2.61884 -2.60329 -2.58763 -2.54175 -2.4957 -2.44966 -2.4034 -2.35715 -2.3139 -2.27065 -2.22719 -2.18349 -2.13997 -2.09929 -2.05849 -2.01767 -1.97685 -1.9362 -1.93102 -1.92582 -1.92063 -1.91544 -1.91015 -1.87683 -1.84352 -1.81023 -1.77695 -1.74111 -1.70749 -1.67225 -1.6364 -1.59842 -1.55978 -1.52871 -1.49767 -1.46423 -1.42833 -1.39262 -1.36401 -1.3346 -1.30358 -1.27195 -1.23904 -1.21262 -1.18414 -1.1557 -1.1273 -1.09833 -1.08844 -1.07803 -1.06762 -1.05722 -1.04585 -1.03035 -1.01485 -0.999374 -0.983907 -0.968606 -0.944786 -0.920875 -0.896998 -0.873155 -0.849647 -0.828188 -0.806429 -0.784672 -0.763018 -0.741561 -0.722121 -0.702569 -0.682773 -0.663113 -0.643525 -0.625942 -0.608392 -0.590491 -0.572603 -0.554747 -0.53887 -0.52302 -0.507009 -0.49073 -0.474476 -0.460159 -0.445867 -0.431578 -0.416782 -0.402006 -0.389119 -0.376241 -0.363344 -0.350098 -0.336685 -0.325107 -0.313505 -0.301881 -0.290073 -0.277919 -0.267542 -0.257101 -0.246648 -0.236168 -0.225178 -0.215906 -0.20653 -0.197162 -0.187803 -0.178001 -0.169727 -0.161364 -0.153009 -0.14466 -0.136002 -0.128663 -0.121256 -0.113856 -0.106461 -0.0988739 -0.0924344 -0.0859559 -0.0794822 -0.0730133 -0.0664615 -0.0613566 -0.0562309 -0.0511085 -0.0459896 -0.0400512 -0.0397612 -0.0394713 -0.0391814 -0.0388915 -0.0386367 -0.0340321 -0.0294642 -0.0248997 -0.0203384 -0.0164694 -0.0121784 -0.0084666 -0.00475716 -0.00105006 0.00149336 0.00457462 0.00614877 0.00772156 0.009293 0.00853408 0.0110822 0.013946 0.0168107 0.0196763 0.0224385 0.0250123 0.0211651 0.0173231 0.0134862 0.00310086
-9.8699 -9.87024 -9.87058 -9.87092 -9.87126 -9.8716 -9.87567 -9.87978 -9.8839 -9.88804 -9.89218 -9.89624 -9.90031 -9.9044 -9.90848 -9.91256 -9.91662 -9.92068 -9.92475 -9.9288 -9.93284 -9.93691 -9.94098 -9.94505 -9.94909 -9.95311 -9.95721 -9.9613 -9.9654 -9.96946 -9.97348 -9.97763 -9.98177 -9.98591 -9.99 -9.99406 -9.99827 -10.0025 -10.0067 -10.0108 -10.015 -10.0193 -10.0236 -10.0279 -10.0321 -10.0363 -10.0407 -10.0451 -10.0496 -10.0539 -10.0582 -10.0628 -10.0673 -10.0719 -10.0764 -10.0808 -10.0855 -10.0902 -10.095 -10.0996 -10.1042 -10.109 -10.1139 -10.1188 -10.1236 -10.1283 -10.1333 -10.1382 -10.1433 -10.148 -10.1527 -10.1574 -10.1623 -10.1676 -10.1729 -10.1781 -10.1832 -10.1882 -10.1929 -10.197 -10.2009 -10.2047 -10.2083 -10.2112 -10.2138 -10.2162 -10.2187 -10.2213 -10.224 -10.2267 -10.2295 -10.2321 -10.2346 -10.2373 -10.2397 -10.2421 -10.2436 -10.2452 -10.2468 -10.2484 -10.25 -10.2502 -10.2505 -10.2512 -10.2524 -10.2538 -10.2533 -10.253 -10.2533 -10.2542 -10.2555 -10.2548 -10.2543 -10.2543 -10.2549 -10.2559 -10.2551 -10.2545 -10.2543 -10.2546 -10.2553 -10.2546 -10.2541 -10.2538 -10.2541 -10.2546 -10.2542 -10.2539 -10.2539 -10.2542 -10.2548 -10.2548 -10.255 -10.2553 -10.256 -10.2568 -10.2574 -10.2581 -10.259 -10.2601 -10.2615 -10.2627 -10.264 -10.2656 -10.2674 -10.2695 -10.2714 -10.2735 -10.2759 -10.2785 -10.2813 -10.284 -10.287 -10.2903 -10.2937 -10.2973 -10.3008 -10.3047 -10.3088 -10.313 -10.3175 -10.3218 -10.3266 -10.3315 -10.3365 -10.3417 -10.3468 -10.3523 -10.358 -10.3637 -10.3695 -10.3753 -10.3815 -10.3878 -10.3941 -10.4004 -10.4068 -10.4135 -10.4202 -10.4269 -10.4335 -10.4403 -10.4473 -10.4544 -10.4614 -10.4681 -10.4751 -10.4822 -10.4893 -10.4964 -10.5031 -10.5102 -10.5172 -10.5242 -10.5312 -10.5377 -10.5445 -10.5512 -10.5579 -10.5646 -10.5708 -10.5771 -10.5833 -10.5895 -10.5957 -10.6016 -10.6072 -10.6127 -10.6182 -10.6237 -10.629 -10.6338 -10.6384 -10.6431 -10.6477 -10.6524 -10.6528 -10.6532 -10.6536 -10.654 -10.6544 -10.6577 -10.6609 -10.6642 -10.6675 -10.6708 -10.6734 -10.6759 -10.6784 -10.6809 -10.6834 -10.6849 -10.6861 -10.6873 -10.6885 -10.6893 -10.6898 -10.6895 -10.6892 -10.6888 -10.6879 -10.687 -10.6853 -10.6834 -10.6811 -10.6782 -10.6757 -10.6728 -10.6691 -10.6645 -10.6597 -10.6554 -10.6511 -10.6454 -10.6385 -10.6317 -10.6254 -10.6191 -10.6115 -10.6024 -10.5934 -10.5851 -10.5765 -10.5665 -10.5556 -10.5443 -10.5338 -10.5221 -10.5098 -10.4975 -10.4839 -10.4706 -10.4559 -10.4412 -10.4265 -10.4116 -10.4076 -10.4032 -10.3989 -10.3945 -10.3904 -10.3778 -10.3652 -10.3527 -10.3402 -10.3267 -10.3083 -10.2891 -10.2698 -10.2502 -10.229 -10.2084 -10.1875 -10.1657 -10.142 -10.1182 -10.095 -10.0718 -10.047 -10.0205 -9.99403 -9.96818 -9.94118 -9.91326 -9.88536 -9.85637 -9.83761 -9.81763 -9.79765 -9.77768 -9.75924 -9.74852 -9.73781 -9.7271 -9.7164 -9.70498 -9.67291 -9.64027 -9.60767 -9.57442 -9.53971 -9.50543 -9.47119 -9.43547 -9.39814 -9.3608 -9.32387 -9.28614 -9.24715 -9.20819 -9.16837 -9.15042 -9.13165 -9.11278 -9.0939 -9.0759 -9.05349 -9.03109 -9.0087 -8.98618 -8.96299 -8.92018 -8.87707 -8.83389 -8.78951 -8.74492 -8.6997 -8.65436 -8.60783 -8.56123 -8.51436 -8.49264 -8.47053 -8.44824 -8.42595 -8.40457 -8.37803 -8.35151 -8.32499 -8.29839 -8.27127 -8.22076 -8.17016 -8.11955 -8.06817 -8.01654 -7.96408 -7.91164 -7.85831 -7.80496 -7.75156 -7.71806 -7.6842 -7.65022 -7.61625 -7.58381 -7.56261 -7.54141 -7.52022 -7.49895 -7.47733 -7.42117 -7.36501 -7.30887 -7.2521 -7.195 -7.13752 -7.08006 -7.0219 -6.96377 -6.90562 -6.8712 -6.83655 -6.8018 -6.76706 -6.73361 -6.70904 -6.68447 -6.6599 -6.63528 -6.61045 -6.55047 -6.49075 -6.43106 -6.37106 -6.31092 -6.25044 -6.18995 -6.1293 -6.06876 -6.00842 -5.98103 -5.95366 -5.92628 -5.89891 -5.87216 -5.83863 -5.80509 -5.77156 -5.73802 -5.70445 -5.64324 -5.58232 -5.52164 -5.46114 -5.40059 -5.33975 -5.27903 -5.21859 -5.15817 -5.09817 -5.08164 -5.06522 -5.04885 -5.03248 -5.01628 -4.97269 -4.92911 -4.88552 -4.84204 -4.79883 -4.73907 -4.67938 -4.62052 -4.56224 -4.50393 -4.44536 -4.38729 -4.32965 -4.27203 -4.21464 -4.20783 -4.2011 -4.19442 -4.18774 -4.18107 -4.13114 -4.0812 -4.03127 -3.98157 -3.93252 -3.87667 -3.82082 -3.76608 -3.71229 -3.65848 -3.60448 -3.55133 -3.49865 -3.44596 -3.39339 -3.39069 -3.38805 -3.38543 -3.3828 -3.38018 -3.33154 -3.28289 -3.23425 -3.18587 -3.1385 -3.08843 -3.03837 -2.98955 -2.94187 -2.89419 -2.84639 -2.79947 -2.75316 -2.70686 -2.66094 -2.65349 -2.64623 -2.63903 -2.63183 -2.6246 -2.58729 -2.54998 -2.51268 -2.47554 -2.43945 -2.39628 -2.35336 -2.31126 -2.27051 -2.22979 -2.18904 -2.14861 -2.10935 -2.07029 -2.03201 -2.009 -1.98677 -1.96466 -1.94254 -1.91975 -1.90494 -1.89013 -1.87532 -1.86052 -1.84626 -1.81064 -1.77562 -1.7406 -1.70616 -1.67254 -1.63905 -1.60556 -1.57315 -1.54182 -1.51052 -1.47935 -1.44873 -1.41884 -1.38896 -1.35991 -1.34144 -1.32373 -1.30601 -1.2883 -1.26964 -1.25971 -1.24978 -1.23986 -1.22993 -1.22035 -1.19405 -1.16806 -1.14209 -1.11629 -1.0914 -1.06682 -1.04239 -1.01844 -0.99547 -0.972536 -0.949908 -0.927285 -0.905444 -0.884324 -0.863233 -0.84244 -0.822169 -0.802253 -0.782342 -0.762938 -0.746575 -0.730738 -0.714906 -0.699077 -0.681635 -0.679515 -0.677396 -0.675276 -0.673157 -0.671086 -0.654149 -0.63725 -0.620359 -0.603475 -0.587042 -0.571333 -0.555898 -0.54047 -0.525241 -0.510378 -0.49606 -0.481797 -0.467727 -0.454136 -0.440583 -0.427561 -0.414544 -0.401865 -0.389515 -0.377177 -0.36536 -0.353579 -0.342185 -0.330927 -0.31972 -0.309023 -0.298562 -0.288255 -0.277967 -0.267815 -0.258203 -0.248912 -0.239624 -0.23034 -0.221121 -0.21377 -0.206557 -0.199346 -0.192138 -0.18416 -0.18319 -0.18222 -0.18125 -0.180281 -0.179312 -0.171849 -0.164378 -0.15691 -0.149446 -0.142003 -0.135525 -0.128914 -0.122306 -0.1157 -0.109104 -0.103547 -0.0978498 -0.0921553 -0.0865066 -0.0810111 -0.0765306 -0.0716603 -0.0664907 -0.0611356 -0.0556525 -0.0511257 -0.0467331 -0.0431049 -0.0410816 -0.0391571 -0.0380856 -0.0370141 -0.0300323 -0.0175882 -0.00514429 0.00697435 0.0190931 0.0200394 0.0100199 0
-9.86477 -9.86509 -9.8654 -9.86571 -9.86603 -9.86634 -9.87031 -9.87426 -9.87822 -9.88218 -9.8861 -9.89002 -9.89393 -9.89785 -9.90177 -9.90564 -9.90953 -9.91342 -9.9173 -9.92119 -9.92503 -9.9289 -9.93277 -9.93664 -9.94051 -9.94433 -9.94819 -9.95206 -9.95592 -9.95979 -9.9636 -9.96747 -9.97134 -9.97521 -9.97908 -9.9829 -9.98677 -9.99066 -9.99454 -9.99843 -10.0023 -10.0061 -10.01 -10.014 -10.0179 -10.0217 -10.0256 -10.0295 -10.0334 -10.0374 -10.0412 -10.0451 -10.049 -10.053 -10.0569 -10.0607 -10.0646 -10.0685 -10.0724 -10.0764 -10.0801 -10.084 -10.0878 -10.0917 -10.0955 -10.0992 -10.1029 -10.1066 -10.1103 -10.114 -10.1175 -10.121 -10.1247 -10.1284 -10.1321 -10.1358 -10.1395 -10.1432 -10.147 -10.1508 -10.1544 -10.1579 -10.1612 -10.1644 -10.1677 -10.1707 -10.1735 -10.1762 -10.1788 -10.1815 -10.184 -10.1863 -10.1886 -10.1909 -10.1931 -10.1952 -10.1972 -10.199 -10.2008 -10.2026 -10.2043 -10.2057 -10.207 -10.2083 -10.2096 -10.2108 -10.2119 -10.2128 -10.2138 -10.2147 -10.2156 -10.2164 -10.2171 -10.2178 -10.2186 -10.2193 -10.2199 -10.2205 -10.2211 -10.2216 -10.2222 -10.2228 -10.2233 -10.2238 -10.2244 -10.2249 -10.2256 -10.2262 -10.2269 -10.2275 -10.2282 -10.229 -10.2299 -10.2307 -10.2316 -10.2325 -10.2337 -10.2349 -10.2361 -10.2373 -10.2386 -10.2402 -10.2419 -10.2435 -10.2452 -10.2469 -10.249 -10.2512 -10.2534 -10.2556 -10.2579 -10.2605 -10.2633 -10.2661 -10.2689 -10.2717 -10.2749 -10.2783 -10.2817 -10.285 -10.2884 -10.2922 -10.2961 -10.3001 -10.304 -10.3079 -10.3122 -10.3167 -10.3211 -10.3255 -10.3299 -10.3347 -10.3395 -10.3444 -10.3492 -10.354 -10.3591 -10.3642 -10.3694 -10.3745 -10.3796 -10.3831 -10.3865 -10.39 -10.3935 -10.3965 -10.3984 -10.4003 -10.4022 -10.4041 -10.406 -10.4113 -10.4166 -10.4219 -10.4272 -10.4325 -10.4377 -10.4429 -10.448 -10.4531 -10.4583 -10.4632 -10.4681 -10.4729 -10.4777 -10.4826 -10.4871 -10.4915 -10.4958 -10.5001 -10.5045 -10.5085 -10.5122 -10.5159 -10.5196 -10.5233 -10.5267 -10.5296 -10.5325 -10.5354 -10.5381 -10.5408 -10.5427 -10.5447 -10.5466 -10.5483 -10.55 -10.5509 -10.5518 -10.5525 -10.5531 -10.5535 -10.5534 -10.5531 -10.5525 -10.5517 -10.5508 -10.5496 -10.5478 -10.5457 -10.5434 -10.5411 -10.5387 -10.5354 -10.5315 -10.5276 -10.5237 -10.5198 -10.5149 -10.5093 -10.5036 -10.498 -10.4923 -10.4858 -10.4783 -10.4708 -10.4633 -10.4558 -10.4474 -10.438 -10.4285 -10.4191 -10.4093 -10.3988 -10.3878 -10.3762 -10.3647 -10.3523 -10.3397 -10.3271 -10.3134 -10.2995 -10.2845 -10.2696 -10.2548 -10.2395 -10.2294 -10.2188 -10.2083 -10.1978 -10.1881 -10.1814 -10.1747 -10.1679 -10.1612 -10.1541 -10.1351 -10.1158 -10.0966 -10.0773 -10.0568 -10.0363 -10.0147 -9.993 -9.97071 -9.94732 -9.92437 -9.90124 -9.87713 -9.85121 -9.82532 -9.79987 -9.77445 -9.74747 -9.71903 -9.69061 -9.66265 -9.63401 -9.60416 -9.57402 -9.54308 -9.51241 -9.48 -9.4476 -9.41523 -9.38266 -9.37729 -9.37167 -9.36605 -9.36043 -9.3549 -9.32602 -9.29716 -9.26832 -9.23949 -9.2092 -9.17336 -9.13658 -9.09978 -9.06181 -9.02291 -8.98462 -8.94634 -8.9066 -8.86534 -8.82407 -8.7834 -8.74194 -8.69924 -8.65652 -8.613 -8.58518 -8.55608 -8.52699 -8.49791 -8.47033 -8.45441 -8.43848 -8.42256 -8.40662 -8.38999 -8.34391 -8.29745 -8.251 -8.20376 -8.15544 -8.10754 -8.05965 -8.0106 -7.96044 -7.91026 -7.86047 -7.8096 -7.75818 -7.70677 -7.6552 -7.64713 -7.63887 -7.63057 -7.62226 -7.61404 -7.5697 -7.52537 -7.48105 -7.43649 -7.39101 -7.33719 -7.28338 -7.22909 -7.17394 -7.11877 -7.06365 -7.00797 -6.95185 -6.89573 -6.83958 -6.8338 -6.82797 -6.82212 -6.81626 -6.81043 -6.75947 -6.70852 -6.65757 -6.60639 -6.55477 -6.4971 -6.43945 -6.38151 -6.32349 -6.26545 -6.22621 -6.18685 -6.1474 -6.10796 -6.06973 -6.05042 -6.03111 -6.0118 -5.99247 -5.97311 -5.91404 -5.85525 -5.79655 -5.73791 -5.67925 -5.62162 -5.56411 -5.50671 -5.44933 -5.39406 -5.3922 -5.39033 -5.38847 -5.38661 -5.38475 -5.32599 -5.26728 -5.20858 -5.15003 -5.09173 -5.03304 -4.97435 -4.91609 -4.85857 -4.80106 -4.76427 -4.72776 -4.69142 -4.65509 -4.61921 -4.59815 -4.57709 -4.55604 -4.53507 -4.51429 -4.45706 -4.40059 -4.34413 -4.28842 -4.23288 -4.17696 -4.12119 -4.06634 -4.01159 -3.95754 -3.93694 -3.91664 -3.8965 -3.87636 -3.85627 -3.8228 -3.78933 -3.75586 -3.7226 -3.68989 -3.63689 -3.58422 -3.53224 -3.48148 -3.43073 -3.37961 -3.32902 -3.27932 -3.22962 -3.18056 -3.16817 -3.15604 -3.14402 -3.13201 -3.11997 -3.08385 -3.04774 -3.01162 -2.97575 -2.94075 -2.8936 -2.84665 -2.8007 -2.75606 -2.71144 -2.66651 -2.62215 -2.57879 -2.53544 -2.49285 -2.47884 -2.46523 -2.45175 -2.43827 -2.42467 -2.39665 -2.36863 -2.34061 -2.31275 -2.2858 -2.24538 -2.20551 -2.16606 -2.12806 -2.0902 -2.05209 -2.01408 -1.97754 -1.94145 -1.90587 -1.88037 -1.85581 -1.83141 -1.80701 -1.78187 -1.77199 -1.76212 -1.75225 -1.74239 -1.73295 -1.6999 -1.66731 -1.63472 -1.60264 -1.57156 -1.5403 -1.50904 -1.47892 -1.44995 -1.42099 -1.39188 -1.36331 -1.33558 -1.30784 -1.28092 -1.26501 -1.24987 -1.23473 -1.2196 -1.20389 -1.19325 -1.1826 -1.17196 -1.16132 -1.15116 -1.12652 -1.10232 -1.07812 -1.05427 -1.0313 -1.00826 -0.98522 -0.963055 -0.941829 -0.920622 -0.899355 -0.878163 -0.857975 -0.83818 -0.818627 -0.799029 -0.780366 -0.761778 -0.743194 -0.72482 -0.71991 -0.715216 -0.710522 -0.705828 -0.701027 -0.688489 -0.675954 -0.663422 -0.650893 -0.638865 -0.622595 -0.606699 -0.590807 -0.575173 -0.560132 -0.545132 -0.530204 -0.515658 -0.501869 -0.48809 -0.474362 -0.460638 -0.447515 -0.4349 -0.422294 -0.409749 -0.397498 -0.38563 -0.373842 -0.362326 -0.350947 -0.340132 -0.329319 -0.318508 -0.307803 -0.30397 -0.300279 -0.296589 -0.292898 -0.289084 -0.282905 -0.276727 -0.27055 -0.264374 -0.258398 -0.249286 -0.240276 -0.231269 -0.222265 -0.213742 -0.205415 -0.197234 -0.189093 -0.181198 -0.173554 -0.16608 -0.158618 -0.151273 -0.144335 -0.137401 -0.130637 -0.123874 -0.117497 -0.111461 -0.105427 -0.0995615 -0.0936907 -0.0877587 -0.0815729 -0.0753086 -0.0691773 -0.0641408 -0.0598433 -0.055681 -0.0524532 -0.0488096 -0.0401881 -0.0315696 -0.0229541 -0.0120916 -0.00627761 -0.00526115 -0.00424262 -0.00322202 -0.00217165 -0.00152693 -0.000882331 -0.000237869 0.000406462 0