# vtk DataFile Version 2.0
track0
ASCII
DATASET POLYDATA
POINTS 6430 float
-0.0205 0.001 1e-05
-0.0204727 0.00100011 1e-05
-0.0204454 0.00100021 1e-05
-0.0204181 0.00100032 1e-05
-0.0203908 0.00100042 1e-05
-0.0203635 0.00100053 1e-05
-0.0200299 0.00100181 1e-05
-0.0196963 0.00100312 1e-05
-0.0193627 0.00100443 1e-05
-0.0190291 0.00100573 1e-05
-0.0186954 0.00100701 1e-05
-0.018369 0.00100821 1e-05
-0.0180425 0.00100944 1e-05
-0.017716 0.00101066 1e-05
-0.0173896 0.00101188 1e-05
-0.0170631 0.00101307 1e-05
-0.0167436 0.00101419 1e-05
-0.0164242 0.00101534 1e-05
-0.0161047 0.00101648 1e-05
-0.0157852 0.00101761 1e-05
-0.0154657 0.00101873 1e-05
-0.0151531 0.00101977 1e-05
-0.0148405 0.00102085 1e-05
-0.0145279 0.00102191 1e-05
-0.0142152 0.00102297 1e-05
-0.0139026 0.00102401 1e-05
-0.0135967 0.00102499 1e-05
-0.0132908 0.00102599 1e-05
-0.0129848 0.00102698 1e-05
-0.0126789 0.00102797 1e-05
-0.012373 0.00102894 1e-05
-0.0120736 0.00102985 1e-05
-0.0117742 0.00103078 1e-05
-0.0114749 0.00103171 1e-05
-0.0111755 0.00103263 1e-05
-0.0108761 0.00103354 1e-05
-0.0105832 0.00103438 1e-05
-0.0102902 0.00103524 1e-05
-0.00999724 0.00103611 1e-05
-0.00970429 0.00103697 1e-05
-0.00941133 0.00103781 1e-05
-0.00912465 0.00103859 1e-05
-0.00883797 0.00103939 1e-05
-0.00855129 0.00104019 1e-05
-0.00826461 0.00104099 1e-05
-0.00797793 0.00104177 1e-05
-0.00769739 0.00104249 1e-05
-0.00741686 0.00104323 1e-05
-0.00713632 0.00104398 1e-05
-0.00685578 0.00104471 1e-05
-0.00657525 0.00104543 1e-05
-0.00630072 0.00104609 1e-05
-0.0060262 0.00104677 1e-05
-0.00575167 0.00104746 1e-05
-0.00547714 0.00104814 1e-05
-0.00520262 0.00104879 1e-05
-0.00493398 0.00104939 1e-05
-0.00466533 0.00105002 1e-05
-0.00439669 0.00105064 1e-05
-0.00412805 0.00105126 1e-05
-0.0038594 0.00105186 1e-05
-0.00359652 0.0010524 1e-05
-0.00333363 0.00105297 1e-05
-0.00307074 0.00105354 1e-05
-0.00280786 0.00105411 1e-05
-0.00254497 0.00105465 1e-05
-0.00228772 0.00105514 1e-05
-0.00203046 0.00105564 1e-05
-0.00177321 0.00105614 1e-05
-0.00151596 0.00105662 1e-05
-0.0012587 0.00105707 1e-05
-0.00100696 0.00105748 1e-05
-0.000755223 0.00105794 1e-05
-0.000503482 0.00105834 1e-05
-0.000251741 0.00105861 1e-05
0 0.00105871 1e-05
0.000329256 0.00105853 1e-05
0.000658511 0.00105851 1e-05
0.000987767 0.00105842 1e-05
0.00131702 0.00105811 1e-05
0.00164628 0.00105749 1e-05
0.00197921 0.00105642 1e-05
0.00231214 0.00105586 1e-05
0.00264507 0.00105544 1e-05
0.002978 0.00105494 1e-05
0.00331093 0.00105415 1e-05
0.00364757 0.0010527 1e-05
0.00398422 0.00105191 1e-05
0.00432087 0.00105131 1e-05
0.00465751 0.00105067 1e-05
0.00499415 0.00104974 1e-05
0.00533455 0.00104802 1e-05
0.00567496 0.00104694 1e-05
0.00601536 0.00104606 1e-05
0.00635577 0.00104512 1e-05
0.00669616 0.00104391 1e-05
0.00704036 0.00104188 1e-05
0.00738456 0.00104044 1e-05
0.00772877 0.00103914 1e-05
0.00807297 0.00103779 1e-05
0.00841716 0.00103619 1e-05
0.0087652 0.00103381 1e-05
0.00911324 0.00103194 1e-05
0.00946129 0.00103013 1e-05
0.00980933 0.00102825 1e-05
0.0101574 0.00102618 1e-05
0.0105093 0.0010234 1e-05
0.0108612 0.00102102 1e-05
0.0112131 0.00101863 1e-05
0.0115651 0.00101617 1e-05
0.011917 0.00101355 1e-05
0.0122728 0.00101033 1e-05
0.0126287 0.00100739 1e-05
0.0129845 0.00100439 1e-05
0.0133404 0.00100131 1e-05
0.0136962 0.000998122 1e-05
0.0140561 0.000994417 1e-05
0.0144159 0.000990899 1e-05
0.0147757 0.000987297 1e-05
0.0151355 0.000983604 1e-05
0.0154954 0.000979819 1e-05
0.0158592 0.000975625 1e-05
0.016223 0.000971521 1e-05
0.0165869 0.00096733 1e-05
0.0169507 0.000963052 1e-05
0.0173145 0.000958686 1e-05
0.0176824 0.000954013 1e-05
0.0180503 0.000949353 1e-05
0.0184182 0.000944614 1e-05
0.0187861 0.000939795 1e-05
0.019154 0.000934895 1e-05
0.019526 0.000929768 1e-05
0.019898 0.000924602 1e-05
0.02027 0.000919366 1e-05
0.020642 0.000914058 1e-05
0.0210141 0.000908679 1e-05
0.0213902 0.000903129 1e-05
0.0217664 0.000897511 1e-05
0.0221425 0.000891832 1e-05
0.0225187 0.00088609 1e-05
0.0228948 0.000880285 1e-05
0.0232752 0.000874346 1e-05
0.0236555 0.00086833 1e-05
0.0240359 0.00086226 1e-05
0.0244162 0.000856135 1e-05
0.0247966 0.000849956 1e-05
0.0251394 0.00084434 1e-05
0.0254822 0.000838671 1e-05
0.025825 0.000832962 1e-05
0.0261677 0.000827215 1e-05
0.0264838 0.00082188 1e-05
0.0265309 0.000821079 1e-05
0.0265781 0.000820277 1e-05
0.0266253 0.000819475 1e-05
0.0266724 0.000818671 1e-05
0.0267196 0.000817867 1e-05
0.0271085 0.000811237 1e-05
0.0274973 0.000804556 1e-05
0.0278862 0.000797828 1e-05
0.0282751 0.000791054 1e-05
0.028664 0.000784232 1e-05
0.0290572 0.000777349 1e-05
0.0294505 0.000770375 1e-05
0.0298437 0.000763355 1e-05
0.0302369 0.000756289 1e-05
0.0306301 0.000749176 1e-05
0.0310278 0.00074204 1e-05
0.0314254 0.000734781 1e-05
0.031823 0.000727474 1e-05
0.0322206 0.000720119 1e-05
0.0326182 0.000712714 1e-05
0.0330203 0.000705311 1e-05
0.0334223 0.000697759 1e-05
0.0338244 0.000690153 1e-05
0.0342264 0.000682494 1e-05
0.0346285 0.00067478 1e-05
0.035035 0.000667083 1e-05
0.0354416 0.00065921 1e-05
0.0358481 0.000651276 1e-05
0.0362546 0.000643281 1e-05
0.0366612 0.000635236 1e-05
0.0370722 0.000627202 1e-05
0.0374833 0.000618987 1e-05
0.0378944 0.00061068 1e-05
0.0383055 0.0006023 1e-05
0.0387166 0.000593894 1e-05
0.0391322 0.000585466 1e-05
0.0395479 0.000576856 1e-05
0.0399635 0.000568115 1e-05
0.0403792 0.000559289 1e-05
0.0407949 0.000550451 1e-05
0.0412152 0.000541561 1e-05
0.0416355 0.000532481 1e-05
0.0420558 0.000523234 1e-05
0.042476 0.000513887 1e-05
0.0428964 0.000504537 1e-05
0.0433214 0.000495104 1e-05
0.0437463 0.000485472 1e-05
0.0441713 0.000475639 1e-05
0.0445963 0.000465695 1e-05
0.0450213 0.000455745 1e-05
0.0454511 0.000445678 1e-05
0.0458808 0.000435399 1e-05
0.0463105 0.000424908 1e-05
0.0467402 0.000414292 1e-05
0.04717 0.000403643 1e-05
0.0476045 0.000392843 1e-05
0.048039 0.000381817 1e-05
0.0484736 0.000370564 1e-05
0.0489081 0.000359172 1e-05
0.0493426 0.000347719 1e-05
0.049782 0.000336078 1e-05
0.0502214 0.000324196 1e-05
0.0506607 0.000312075 1e-05
0.0511001 0.000299803 1e-05
0.0515395 0.000287434 1e-05
0.0519838 0.000274839 1e-05
0.0524281 0.000261986 1e-05
0.0528723 0.000248907 1e-05
0.0533166 0.000235654 1e-05
0.0537609 0.000222252 1e-05
0.0542102 0.000208582 1e-05
0.0546594 0.000194638 1e-05
0.0551086 0.000180477 1e-05
0.0555578 0.000166118 1e-05
0.0560071 0.000151559 1e-05
0.0564614 0.000136689 1e-05
0.0569156 0.000121538 1e-05
0.0573698 0.000106164 1e-05
0.0578241 9.05678e-05 1e-05
0.0582784 7.47454e-05 1e-05
0.0587022 5.97963e-05 1e-05
0.059126 4.46121e-05 1e-05
0.0595498 2.92173e-05 1e-05
0.0599736 1.36112e-05 1e-05
0.0603383 0 1e-05
0.0603856 -1.78742e-06 1e-05
0.060433 -3.57743e-06 1e-05
0.0604803 -5.37003e-06 1e-05
0.0605276 -7.16524e-06 1e-05
0.060575 -8.96308e-06 1e-05
0.0610394 -2.66237e-05 1e-05
0.0615038 -4.45538e-05 1e-05
0.0619683 -6.27508e-05 1e-05
0.0624327 -8.12156e-05 1e-05
0.0628972 -9.99532e-05 1e-05
0.0633668 -0.000119134 1e-05
0.0638364 -0.000138638 1e-05
0.064306 -0.000158434 1e-05
0.0647756 -0.000178524 1e-05
0.0652453 -0.000198913 1e-05
0.0657202 -0.00021976 1e-05
0.0661951 -0.000240977 1e-05
0.0666699 -0.000262516 1e-05
0.0671447 -0.000284374 1e-05
0.0676197 -0.000306537 1e-05
0.0680998 -0.000329201 1e-05
0.06858 -0.000352255 1e-05
0.0690601 -0.000375685 1e-05
0.0695402 -0.000399461 1e-05
0.0700205 -0.000423542 1e-05
0.070506 -0.000448178 1e-05
0.0709916 -0.000473226 1e-05
0.071477 -0.000498685 1e-05
0.0719625 -0.000524511 1e-05
0.0724481 -0.000550667 1e-05
0.0729391 -0.000577435 1e-05
0.07343 -0.000604638 1e-05
0.0739209 -0.000632275 1e-05
0.0744118 -0.000660299 1e-05
0.0749029 -0.000688693 1e-05
0.0753993 -0.000717759 1e-05
0.0758957 -0.000747281 1e-05
0.0763921 -0.000777236 1e-05
0.0768884 -0.000807606 1e-05
0.077385 -0.000838406 1e-05
0.0778869 -0.000869938 1e-05
0.0783889 -0.000901944 1e-05
0.0788908 -0.000934391 1e-05
0.0793927 -0.000967283 1e-05
0.0798948 -0.00100064 1e-05
0.0799622 -0.00100518 1e-05
0.0800296 -0.00100973 1e-05
0.080097 -0.00101429 1e-05
0.0801645 -0.00101885 1e-05
0.0802306 -0.00102334 1e-05
0.080671 -0.00105327 1e-05
0.0811114 -0.00108354 1e-05
0.0815517 -0.00111417 1e-05
0.0819921 -0.00114515 1e-05
0.0824326 -0.0011765 1e-05
0.0829458 -0.0012134 1e-05
0.083459 -0.00125083 1e-05
0.0839722 -0.00128876 1e-05
0.0844853 -0.00132718 1e-05
0.0849987 -0.00136612 1e-05
0.0855177 -0.00140592 1e-05
0.0860366 -0.00144628 1e-05
0.0865555 -0.00148721 1e-05
0.0870743 -0.00152866 1e-05
0.0875935 -0.00157062 1e-05
0.0881183 -0.0016135 1e-05
0.088643 -0.00165698 1e-05
0.0891676 -0.00170106 1e-05
0.0896922 -0.00174568 1e-05
0.0902172 -0.00179086 1e-05
0.0907478 -0.00183703 1e-05
0.0912784 -0.00188383 1e-05
0.0918089 -0.00193121 1e-05
0.0923393 -0.00197916 1e-05
0.0928702 -0.00202775 1e-05
0.0931097 -0.00204991 1e-05
0.0933491 -0.00207221 1e-05
0.0935886 -0.00209463 1e-05
0.093828 -0.00211716 1e-05
0.0940543 -0.00213858 1e-05
0.094354 -0.00216709 1e-05
0.0946537 -0.00219578 1e-05
0.0949534 -0.00222466 1e-05
0.095253 -0.00225372 1e-05
0.0955528 -0.002283 1e-05
0.0960954 -0.00233627 1e-05
0.0966378 -0.0023902 1e-05
0.0971802 -0.00244476 1e-05
0.0977225 -0.00249994 1e-05
0.0982654 -0.00255579 1e-05
0.098814 -0.00261281 1e-05
0.0993624 -0.00267053 1e-05
0.0999109 -0.00272895 1e-05
0.100459 -0.00278801 1e-05
0.101008 -0.00284776 1e-05
0.101563 -0.00290875 1e-05
0.102117 -0.00297047 1e-05
0.102672 -0.00303291 1e-05
0.103226 -0.00309601 1e-05
0.103782 -0.00315989 1e-05
0.104116 -0.00319871 1e-05
0.104449 -0.0032378 1e-05
0.104783 -0.00327713 1e-05
0.105117 -0.00331672 1e-05
0.105429 -0.00335397 1e-05
0.10566 -0.00338176 1e-05
0.105892 -0.00340966 1e-05
0.106123 -0.00343769 1e-05
0.106355 -0.00346584 1e-05
0.106586 -0.00349412 1e-05
0.107153 -0.00356369 1e-05
0.10772 -0.00363401 1e-05
0.108287 -0.00370505 1e-05
0.108854 -0.00377683 1e-05
0.109422 -0.00384943 1e-05
0.109995 -0.00392345 1e-05
0.110568 -0.00399828 1e-05
0.111142 -0.00407392 1e-05
0.111715 -0.00415032 1e-05
0.112289 -0.00422756 1e-05
[...]
POINT_DATA 6430
 FIELD attributes 1
U 3 6430 float
6.81883 	0.0266731 	0 6.80785 	0.0265194 	0 6.79687 	0.0263657 	0 6.78589 	0.026212 	0 6.77491 	0.0260582 	0 6.76392 	0.0259045 	0 6.89478 	0.0272265 	0 6.89908 	0.0270774 	0 6.89461 	0.0268262 	0 6.87858 	0.026443 	0 6.74114 	0.0246711 	0 6.87207 	0.025891 	0 6.88174 	0.0257985 	0 6.87749 	0.0255554 	0 6.85687 	0.0251381 	0 6.71952 	0.0234775 	0 6.85018 	0.0246216 	0 6.8648 	0.0245781 	0 6.86077 	0.0243437 	0 6.83591 	0.0238991 	0 6.69899 	0.0223235 	0 6.8291 	0.02341 	0 6.84826 	0.0234095 	0 6.84444 	0.0231836 	0 6.81569 	0.0227159 	0 6.67953 	0.0212056 	0 6.80883 	0.0222471 	0 6.83213 	0.022284 	0 6.8285 	0.0220658 	0 6.79623 	0.0215774 	0 6.66107 	0.0201182 	0 6.78935 	0.0211221 	0 6.8164 	0.0211915 	0 6.81297 	0.0209794 	0 6.77753 	0.0204714 	0 6.64358 	0.0190525 	0 6.77067 	0.0200229 	0 6.80108 	0.0201194 	0 6.79784 	0.0199116 	0 6.75958 	0.0193845 	0 6.62704 	0.017998 	0 6.75278 	0.0189364 	0 6.7862 	0.019054 	0 6.78314 	0.0188473 	0 6.7424 	0.0183003 	0 6.61142 	0.0169383 	0 6.73568 	0.0178417 	0 6.77175 	0.0179748 	0 6.76888 	0.017768 	0 6.72599 	0.017203 	0 6.59672 	0.0158646 	0 6.71941 	0.0167366 	0 6.75778 	0.0168773 	0 6.75508 	0.0166619 	0 6.71035 	0.0160689 	0 6.58289 	0.0147325 	0 6.70389 	0.0155443 	0 6.74427 	0.0156875 	0 6.74181 	0.0154753 	0 6.69563 	0.0148824 	0 6.57017 	0.0135991 	0 6.68946 	0.0144511 	0 6.73144 	0.0146423 	0 6.72904 	0.0144541 	0 6.68153 	0.0138261 	0 6.55793 	0.0124568 	0 6.67558 	0.0130103 	0 6.71932 	0.0129599 	0 6.71758 	0.0125379 	0 6.66964 	0.011797 	0 6.5486 	0.0105514 	0 6.665 	0.012238 	0 6.70893 	0.0107333 	0 6.70549 	0.00714576 	0 6.6546 	0.00255552 	0 6.53255 	-0.00353784 	0 6.64603 	-0.000392905 	0 6.68612 	-0.0018242 	0 6.67712 	-0.00631012 	0 6.62126 	-0.0124084 	0 6.49479 	-0.0209366 	0 6.60651 	-0.0110629 	0 6.64205 	-0.00830117 	0 6.62961 	-0.0100087 	0 6.57266 	-0.0156526 	0 6.44291 	-0.0277295 	0 6.55574 	-0.0154597 	0 6.58775 	-0.0115781 	0 6.57354 	-0.0124813 	0 6.51707 	-0.0181056 	0 6.38347 	-0.0323277 	0 6.49652 	-0.0204403 	0 6.5237 	-0.0170146 	0 6.50749 	-0.0178535 	0 6.45244 	-0.0230019 	0 6.31548 	-0.0372179 	0 6.42708 	-0.0268086 	0 6.44809 	-0.0243749 	0 6.43046 	-0.0253353 	0 6.37917 	-0.0296446 	0 6.24097 	-0.0425906 	0 6.34892 	-0.0342472 	0 6.36232 	-0.0330243 	0 6.34399 	-0.0341846 	0 6.29924 	-0.0375555 	0 6.16271 	-0.0486068 	0 6.26412 	-0.0424989 	0 6.26828 	-0.0424115 	0 6.24963 	-0.0437332 	0 6.21375 	-0.0462094 	0 6.08206 	-0.0551232 	0 6.17393 	-0.0510702 	0 6.16771 	-0.0518353 	0 6.1489 	-0.0532171 	0 6.12337 	-0.0549451 	0 5.99965 	-0.0617743 	0 6.07948 	-0.0594368 	0 6.0628 	-0.0606948 	0 6.04398 	-0.062032 	0 6.02497 	-0.0633749 	0 5.91601 	-0.0681883 	0 5.97468 	-0.0674015 	0 5.95616 	-0.0686055 	0 5.93747 	-0.0698142 	0 5.91862 	-0.0710277 	0 5.83175 	-0.0740645 	0 5.86875 	-0.0743356 	0 5.85051 	-0.0753636 	0 5.83213 	-0.0763953 	0 5.8136 	-0.0774307 	0 5.74766 	-0.0792133 	0 5.76611 	-0.0800764 	0 5.74834 	-0.080917 	0 5.73046 	-0.0817603 	0 5.71245 	-0.0826065 	0 5.66472 	-0.0835747 	0 5.66873 	-0.0846629 	0 5.65162 	-0.0853329 	0 5.63442 	-0.0860049 	0 5.61711 	-0.086679 	0 5.58401 	-0.0871966 	0 5.57798 	-0.0882263 	0 5.5617 	-0.0887595 	0 5.54534 	-0.0892943 	0 5.52889 	-0.0898306 	0 5.50661 	-0.0902009 	0 5.49629 	-0.0909106 	0 5.48264 	-0.0913016 	0 5.46892 	-0.0916934 	0 5.45515 	-0.0920861 	0 5.44241 	-0.0924489 	0 5.44046 	-0.0925039 	0 5.43851 	-0.0925589 	0 5.43656 	-0.0926139 	0 5.43461 	-0.0926689 	0 5.43279 	-0.0926202 	0 5.41845 	-0.0930934 	0 5.40384 	-0.0934853 	0 5.38916 	-0.093878 	0 5.37441 	-0.0942715 	0 5.36058 	-0.093837 	0 5.34897 	-0.0948672 	0 5.33539 	-0.095249 	0 5.32174 	-0.0956314 	0 5.30803 	-0.0960143 	0 5.29578 	-0.0950444 	0 5.28677 	-0.096512 	0 5.27417 	-0.0969227 	0 5.26151 	-0.0973338 	0 5.24879 	-0.0977454 	0 5.23784 	-0.096438 	0 5.23125 	-0.098266 	0 5.21956 	-0.0987405 	0 5.2078 	-0.0992153 	0 5.19598 	-0.0996904 	0 5.18606 	-0.0981906 	0 5.18171 	-0.100343 	0 5.17082 	-0.100912 	0 5.15986 	-0.101481 	0 5.14897 	-0.101886 	0 5.13967 	-0.100455 	0 5.13618 	-0.102636 	0 5.12725 	-0.103616 	0 5.11695 	-0.104307 	0 5.10699 	-0.104435 	0 5.09791 	-0.103363 	0 5.0948 	-0.105541 	0 5.08809 	-0.106997 	0 5.07833 	-0.107832 	0 5.06898 	-0.107772 	0 5.05999 	-0.107027 	0 5.05718 	-0.109252 	0 5.05261 	-0.111165 	0 5.04326 	-0.112165 	0 5.03417 	-0.111976 	0 5.02515 	-0.111537 	0 5.02257 	-0.113842 	0 5.01978 	-0.116145 	0 5.01104 	-0.117246 	0 5.00189 	-0.117102 	0 4.99273 	-0.116958 	0 4.99027 	-0.119364 	0 4.9876 	-0.121767 	0 4.98084 	-0.123046 	0 4.97148 	-0.12319 	0 4.96209 	-0.123333 	0 4.95965 	-0.125852 	0 4.95699 	-0.128368 	0 4.95197 	-0.129831 	0 4.94232 	-0.130259 	0 4.93261 	-0.130686 	0 4.93008 	-0.133324 	0 4.92731 	-0.135932 	0 4.92319 	-0.137515 	0 4.91381 	-0.138317 	0 4.90372 	-0.139022 	0 4.90099 	-0.141784 	0 4.89749 	-0.144177 	0 4.89287 	-0.145959 	0 4.88543 	-0.147361 	0 4.87487 	-0.148338 	0 4.87185 	-0.151225 	0 4.86727 	-0.153432 	0 4.86206 	-0.155411 	0 4.85662 	-0.157379 	0 4.84553 	-0.158617 	0 4.8418 	-0.161504 	0 4.83611 	-0.163678 	0 4.83024 	-0.165849 	0 4.82418 	-0.168017 	0 4.8152 	-0.169842 	0 4.81044 	-0.172346 	0 4.80453 	-0.174524 	0 4.79845 	-0.176699 	0 4.79221 	-0.178871 	0 4.78669 	-0.180737 	0 4.78623 	-0.180982 	0 4.78578 	-0.181228 	0 4.78533 	-0.181474 	0 4.78487 	-0.181719 	0 4.78428 	-0.181923 	0 4.78027 	-0.184548 	0 4.77581 	-0.187125 	0 4.77117 	-0.189699 	0 4.76636 	-0.192268 	0 4.75974 	-0.194402 	0 4.75811 	-0.197612 	0 4.75295 	-0.200362 	0 4.74762 	-0.203108 	0 4.7421 	-0.20585 	0 4.73286 	-0.207778 	0 4.73336 	-0.211486 	0 4.72796 	-0.214464 	0 4.72187 	-0.217372 	0 4.71407 	-0.219969 	0 4.70331 	-0.221998 	0 4.70301 	-0.225809 	0 4.70054 	-0.229381 	0 4.69363 	-0.23244 	0 4.68264 	-0.234784 	0 4.67079 	-0.237001 	0 4.66963 	-0.240908 	0 4.66821 	-0.244809 	0 4.66076 	-0.247943 	0 4.64799 	-0.250333 	0 4.63502 	-0.252719 	0 4.63292 	-0.256712 	0 4.63056 	-0.260698 	0 4.62313 	-0.263935 	0 4.60985 	-0.266542 	0 4.59572 	-0.269076 	0 4.59262 	-0.273143 	0 4.58628 	-0.276775 	0 4.57744 	-0.280075 	0 4.56797 	-0.283328 	0 4.55265 	-0.285988 	0 4.5473 	-0.289955 	0 4.53746 	-0.29334 	0 4.52735 	-0.296716 	0 4.51698 	-0.300083 	0 4.50556 	-0.303365 	0 4.50464 	-0.303892 	0 4.50319 	-0.30435 	0 4.50174 	-0.304808 	0 4.50028 	-0.305265 	0 4.49884 	-0.305714 	0 4.49066 	-0.308736 	0 4.4823 	-0.311751 	0 4.47375 	-0.31476 	0 4.46502 	-0.317763 	0 4.45595 	-0.320387 	0 4.44714 	-0.324368 	0 4.43639 	-0.327887 	0 4.42538 	-0.331398 	0 4.41396 	-0.334706 	0 4.40194 	-0.337572 	0 4.39233 	-0.341653 	0 4.38216 	-0.345655 	0 4.3698 	-0.349141 	0 4.35647 	-0.352032 	0 4.34289 	-0.354917 	0 4.33206 	-0.358979 	0 4.32094 	-0.363029 	0 4.30864 	-0.366523 	0 4.29383 	-0.369433 	0 4.27865 	-0.372312 	0 4.26654 	-0.376333 	0 4.25325 	-0.379896 	0 4.23931 	-0.383262 	0 4.22507 	-0.386617 	0 4.20908 	-0.389646 	0 4.20302 	-0.391387 	0 4.19631 	-0.392868 	0 4.18953 	-0.394346 	0 4.1827 	-0.395821 	0 4.17618 	-0.397214 	0 4.16866 	-0.399105 	0 4.16105 	-0.400993 	0 4.15335 	-0.402878 	0 4.14557 	-0.404759 	0 4.13754 	-0.406337 	0 4.12442 	-0.41005 	0 4.10982 	-0.413366 	0 4.09493 	-0.41667 	0 4.07953 	-0.419715 	0 4.06348 	-0.422373 	0 4.04938 	-0.426095 	0 4.03496 	-0.429803 	0 4.01868 	-0.432901 	0 4.00114 	-0.435443 	0 3.98331 	-0.437978 	0 3.96779 	-0.441562 	0 3.95158 	-0.444911 	0 3.93433 	-0.44781 	0 3.91663 	-0.450654 	0 3.89698 	-0.453036 	0 3.88685 	-0.455072 	0 3.87586 	-0.456725 	0 3.86473 	-0.45835 	0 3.85347 	-0.459969 	0 3.84285 	-0.461478 	0 3.83592 	-0.462654 	0 3.82895 	-0.463829 	0 3.82193 	-0.465001 	0 3.81485 	-0.466166 	0 3.80756 	-0.467068 	0 3.79095 	-0.470124 	0 3.77312 	-0.472806 	0 3.75499 	-0.475476 	0 3.73627 	-0.477818 	0 3.7169 	-0.479793 	0 3.69917 	-0.482773 	0 3.68113 	-0.485737 	0 3.66171 	-0.488099 	0 3.64076 	-0.489837 	0 3.61949 	-0.491564 	0 3.60021 	-0.4943 	0 3.57985 	-0.496521 	0 3.55884 	-0.4985 	0 3.5375 	-0.500462 	0 3.5154 	-0.502278 	0 3.51296 	-0.502566 	0 3.51039 	-0.502783 	0 3.50779 	-0.502983 	0 3.50519 	-0.503183 	0 3.50261 	-0.50338 	0 3.48528 	-0.505076 	0 3.46772 	-0.506761 	0 3.44994 	-0.508435 	0 3.43187 	-0.510007 	0 3.41313 	-0.511016 	0 3.39322 	-0.513156 	0 3.37287 	-0.515225 	0 3.35102 	-0.516681 	0 3.32828 	-0.5175 	0 3.30521 	-0.518307 	0 3.28372 	-0.520127 	0 3.26153 	-0.52161 	0 3.23847 	-0.522598 	0 3.21511 	-0.523569 	0 3.19049 	-0.52417 	0 3.1843 	-0.524565 	0 3.17787 	-0.5248 	0 3.17135 	-0.524972 	0 3.1648 	-0.525143 	0 3.15839 	-0.525308 	0 3.14248 	-0.525969 	0 3.12642 	-0.526621 	0 3.11021 	-0.527265 	0 3.09379 	-0.527769 	0 3.07697 	-0.527797 	0 3.05506 	-0.528879 	0 3.03263 	-0.529831 	0 3.00903 	-0.530222 	0 2.98469 	-0.529874 	0 2.96002 	-0.529508 	0 2.93657 	-0.530211 	0 2.91249 	-0.530502 	0 2.88772 	-0.530278 	0 2.86265 	-0.530035 	0 2.83668 	-0.529513 	0 2.83244 	-0.529565 	0 2.82809 	-0.529517 	0 2.82369 	-0.529413 	0 2.81929 	-0.529308 	0 2.81493 	-0.529204 	0 2.79581 	-0.528954 	0 2.77651 	-0.528693 	0 2.75702 	-0.52842 	0 2.73733 	-0.527916 	0 2.71736 	-0.526849 	0 2.69393 	-0.526706 	0 2.6702 	-0.526542 	0 2.64547 	-0.525582 	0 2.62015 	-0.523874 	0 2.59452 	-0.522146 	0 2.57162 	-0.521636 	0 2.54827 	-0.52053 	0 2.52458 	-0.519073 	0 2.50065 	-0.517598 	0 2.47814 	-0.516209 	0 2.47601 	-0.516092 	0 2.47387 	-0.515975 	0 2.47173 	-0.515858 	0 2.4696 	-0.515711 	0 2.4675 	-0.515501 	0 2.44415 	-0.514034 	0 2.42042 	-0.512402 	0 2.39645 	-0.510753 	0 2.37243 	-0.508611 	0 2.34835 	-0.50588 	0 2.32425 	-0.504438 	0 2.29988 	-0.502975 	0 2.27549 	-0.500608 	0 2.25045 	-0.497593 	0 2.225 	-0.494421 	0 2.21107 	-0.493404 	0 2.19713 	-0.492028 	0 2.18316 	-0.490398 	0 2.16913 	-0.488763 	0 2.15553 	-0.487179 	0 2.14534 	-0.486005 	0 2.13511 	-0.484828 	0 2.12485 	-0.483648 	0 2.11473 	-0.482287 	0 2.10491 	-0.480587 	0 2.08229 	-0.478272 	0 2.05925 	-0.475531 	0 2.03593 	-0.472563 	0 2.01347 	-0.468458 	0 1.9909 	-0.464309 	0 1.96754 	-0.461636 	0 1.94432 	-0.458516 	0 1.92156 	-0.454646 	0 1.89868 	-0.450764 	0 1.87542 	-0.446548 	0 1.87172 	-0.446085 	0 1.8681 	-0.44552 	0 1.86454 	-0.444878 	0 1.86097 	-0.444236 	0 1.85743 	-0.443598 	0 1.84033 	-0.440395 	0 1.82317 	-0.437187 	0 1.80595 	-0.433973 	0 1.78926 	-0.430393 	0 1.77362 	-0.426133 	0 1.75318 	-0.422753 	0 1.73263 	-0.419359 	0 1.71291 	-0.415008 	0 1.69411 	-0.409706 	0 1.67535 	-0.404402 	0 1.65866 	-0.401455 	0 1.64281 	-0.397887 	0 1.6275 	-0.393945 	0 1.61222 	-0.390004 	0 1.5971 	-0.386106 	0 1.5941 	-0.385271 	0 1.59109 	-0.384436 	0 1.58809 	-0.383602 	0 1.58525 	-0.382694 	0 1.58281 	-0.381613 	0 1.56667 	-0.377382 	0 1.55081 	-0.372764 	0 1.53502 	-0.368154 	0 1.52083 	-0.362841 	0 1.5081 	-0.356965 	0 1.49237 	-0.353018 	0 1.47666 	-0.349072 	0 1.46326 	-0.344053 	0 1.45075 	-0.33824 	0 1.43859 	-0.332299 	0 1.42849 	-0.329597 	0 1.41966 	-0.326293 	0 1.41142 	-0.322759 	0 1.40326 	-0.319239 	0 1.39497 	-0.315626 	0 1.39195 	-0.314094 	0 1.38896 	-0.312565 	0 1.38599 	-0.311039 	0 1.38324 	-0.30944 	0 1.38141 	-0.307504 	0 1.37174 	-0.303296 	0 1.36282 	-0.298477 	0 1.35414 	-0.29369 	0 1.34751 	-0.288229 	0 1.34272 	-0.282268 	0 1.33421 	-0.278447 	0 1.32587 	-0.274651 	0 1.31998 	-0.269884 	0 1.316 	-0.264001 	0 1.31246 	-0.258203 	0 1.30544 	-0.254535 	0 1.30097 	-0.249948 	0 1.29742 	-0.24517 	0 1.29422 	-0.240449 	0 1.29154 	-0.235577 	0 1.29079 	-0.235102 	0 1.29042 	-0.234479 	0 1.29006 	-0.233851 	0 1.28972 	-0.233225 	0 1.28937 	-0.232587 	0 1.28863 	-0.228867 	0 1.28813 	-0.225186 	0 1.28787 	-0.221543 	0 1.28785 	-0.217939 	0 1.28971 	-0.214329 	0 1.28979 	-0.210588 	0 1.29034 	-0.206643 	0 1.29128 	-0.202652 	0 1.2938 	-0.198628 	0 1.29717 	-0.194644 	0 1.29872 	-0.191218 	0 1.30055 	-0.187839 	0 1.30357 	-0.184252 	0 1.30767 	-0.180417 	0 1.31208 	-0.176652 	0 1.31499 	-0.173532 	0 1.31861 	-0.170396 	0 1.3234 	-0.167187 	0 1.32845 	-0.163887 	0 1.33378 	-0.160341 	0 1.33799 	-0.157496 	0 1.3435 	-0.154507 	0 1.34927 	-0.151563 	0 1.35529 	-0.148661 	0 1.3615 	-0.145642 	0 1.36372 	-0.144587 	0 1.36621 	-0.143484 	0 1.36873 	-0.142388 	0 1.37129 	-0.141297 	0 1.37414 	-0.140111 	0 1.37854 	-0.138586 	0 1.38302 	-0.137073 	0 1.38757 	-0.135572 	0 1.39219 	-0.134083 	0 1.39383 	-0.13285 	0 1.40484 	-0.130317 	0 1.41265 	-0.127916 	0 1.42066 	-0.125547 	0 1.42886 	-0.123208 	0 1.42918 	-0.121484 	0 1.44554 	-0.119051 	0 1.45451 	-0.116825 	0 1.46298 	-0.114643 	0 1.46827 	-0.112709 	0 1.46756 	-0.111202 	0 1.4846 	-0.108975 	0 1.49886 	-0.106834 	0 1.50768 	-0.104822 	0 1.50892 	-0.103299 	0 1.5083 	-0.101909 	0 1.52592 	-0.0998688 	0 1.54376 	-0.0978565 	0 1.55214 	-0.0960926 	0 1.55145 	-0.0947983 	0 1.55084 	-0.0935158 	0 1.56895 	-0.0916455 	0 1.58725 	-0.0897993 	0 1.59611 	-0.0883146 	0 1.59535 	-0.0871215 	0 1.59466 	-0.0859383 	0 1.61319 	-0.084222 	0 1.63188 	-0.0825266 	0 1.64109 	-0.0812918 	0 1.6402 	-0.0801923 	0 1.63938 	-0.0791013 	0 1.65825 	-0.077525 	0 1.67477 	-0.0760729 	0 1.68342 	-0.0749761 	0 1.68564 	-0.073938 	0 1.68463 	-0.0729328 	0 1.70378 	-0.0714845 	0 1.71743 	-0.0702717 	0 1.72613 	-0.0692686 	0 1.73138 	-0.0682958 	0 1.73013 	-0.0673712 	0 1.74952 	-0.0660405 	0 1.7604 	-0.0650331 	0 1.7691 	-0.0641162 	0 1.77718 	-0.0632106 	0 1.77567 	-0.0623623 	0 1.79487 	-0.0611535 	0 1.80347 	-0.06031 	0 1.81214 	-0.0594732 	0 1.82088 	-0.058643 	0 1.82108 	-0.0578585 	0 1.83791 	-0.0568283 	0 1.84646 	-0.0560611 	0 1.85508 	-0.0552997 	0 1.86377 	-0.0545439 	0 1.86623 	-0.0538207 	0 1.88077 	-0.0529493 	0 1.88928 	-0.0522551 	0 1.89784 	-0.051566 	0 1.90646 	-0.0508818 	0 1.91107 	-0.0502198 	0 1.92342 	-0.0494926 	0 1.93186 	-0.0488722 	0 1.94036 	-0.0482562 	0 1.9489 	-0.0476443 	0 1.95556 	-0.0470459 	0 1.96514 	-0.0464991 	0 1.97287 	-0.0459994 	0 1.98064 	-0.0455028 	0 1.98845 	-0.0450092 	0 1.99756 	-0.0444397 	0 1.99802 	-0.0444129 	0 1.99848 	-0.0443861 	0 1.99894 	-0.0443593 	0 1.99939 	-0.0443324 	0 1.99733 	-0.0442875 	0 2.00836 	-0.0438722 	0 2.01691 	-0.0434406 	0 2.02549 	-0.0430117 	0 2.0341 	-0.0425855 	0 1.99079 	-0.0418156 	0 2.05144 	-0.0418655 	0 2.06027 	-0.041561 	0 2.06912 	-0.0412585 	0 2.078 	-0.0409582 	0 1.98486 	-0.0400124 	0 2.09559 	-0.0405529 	0 2.10367 	-0.0404665 	0 2.11176 	-0.0403811 	0 2.11986 	-0.0402967 	0 1.97361 	-0.0392494 	0 2.13624 	-0.0406044 	0 2.14729 	-0.0414303 	0 2.15831 	-0.0422531 	0 2.1693 	-0.043073 	0 1.97226 	-0.0425878 	0 2.19722 	-0.0453982 	0 2.20414 	-0.0461303 	0 2.21103 	-0.0468601 	0 2.21789 	-0.0475876 	0 2.09809 	-0.0476574 	0