/*--------------------------------*- C++ -*----------------------------------*\
| =========                 |                                                 |
| \\      /  F ield         | OpenFOAM: The Open Source CFD Toolbox           |
|  \\    /   O peration     | Version:  4.1                                   |
|   \\  /    A nd           | Web:      www.OpenFOAM.org                      |
|    \\/     M anipulation  |                                                 |
\*---------------------------------------------------------------------------*/
FoamFile
{
    version     2.0;
    format      ascii;
    class       volScalarField;
    location    "8";
    object      p;
}
// * * * * * * * * * * * * * * * * * * * * * * * * * * * * * * * * * * * * * //

dimensions      [0 2 -2 0 0 0 0];

internalField   nonuniform List<scalar> 
1705
(
7.80035e-29
4.06223e-28
7.54027e-28
9.12366e-28
1.07082e-27
1.38269e-27
1.77319e-27
1.94192e-27
2.11041e-27
2.42022e-27
2.87445e-27
3.06201e-27
3.39209e-27
3.91646e-27
4.12883e-27
4.3412e-27
4.6923e-27
5.32864e-27
5.57781e-27
5.97494e-27
6.73539e-27
7.02961e-27
7.32423e-27
7.76857e-27
8.71333e-27
9.06892e-27
9.42422e-27
9.93179e-27
1.1121e-26
1.15575e-26
1.21609e-26
1.36314e-26
1.41667e-26
1.47023e-26
1.54022e-26
1.72857e-26
1.79548e-26
1.87945e-26
2.11628e-26
2.19918e-26
2.2569e-26
2.29086e-26
2.3471e-26
2.41401e-26
-8.16727e-27
2.58923e-26
2.56535e-26
2.55144e-26
2.55965e-26
2.56875e-26
2.5787e-26
2.61144e-26
2.65491e-26
-6.94558e-27
2.64326e-26
2.59759e-26
2.56263e-26
2.55086e-26
2.54036e-26
2.53114e-26
2.54489e-26
2.56955e-26
-8.33002e-27
2.41029e-26
2.3481e-26
2.29825e-26
2.27209e-26
2.24786e-26
2.22558e-26
2.22592e-26
2.2381e-26
-1.00115e-26
1.46546e-26
1.40732e-26
1.36172e-26
1.33877e-26
1.32097e-26
1.30804e-26
1.30976e-26
1.32277e-26
-3.90747e-27
-4.56068e-27
-5.01293e-27
-5.35573e-27
-5.74885e-27
-6.0348e-27
-6.45345e-27
-6.73336e-27
-6.92768e-27
-7.21491e-27
-7.40508e-27
-7.52243e-27
-7.67755e-27
-7.76102e-27
-7.89643e-27
-7.98884e-27
-8.01579e-27
-8.08445e-27
-8.08894e-27
-8.11897e-27
-8.1487e-27
-8.11706e-27
-8.10007e-27
-8.10542e-27
-8.0496e-27
-8.04766e-27
-7.98651e-27
-7.93566e-27
-7.92637e-27
-7.85817e-27
-7.84953e-27
-7.78393e-27
-7.73432e-27
-7.73168e-27
-7.67293e-27
-7.63651e-27
-7.64636e-27
-7.59992e-27
-7.61844e-27
-7.58146e-27
-4.59025e-30
-4.7871e-30
-5.21396e-30
-5.90818e-30
-6.92381e-30
-8.31688e-30
-1.01283e-29
-1.23654e-29
-1.49878e-29
-1.79028e-29
-2.09821e-29
-2.41078e-29
-2.72543e-29
-3.06057e-29
-3.46944e-29
-4.05299e-29
-4.96686e-29
-6.41625e-29
-8.63264e-29
-1.18282e-28
-1.61286e-28
-2.14908e-28
-2.76211e-28
-3.39142e-28
-3.94416e-28
-4.30266e-28
-4.34554e-28
-3.98897e-28
-3.25346e-28
-2.35137e-28
-1.77061e-28
-2.30511e-28
-4.96077e-28
-1.06816e-27
-1.99598e-27
-3.2482e-27
-4.66783e-27
-6.06006e-27
-7.09285e-27
-4.58238e-30
-4.77851e-30
-5.20411e-30
-5.89685e-30
-6.91112e-30
-8.30324e-30
-1.01143e-29
-1.23518e-29
-1.49749e-29
-1.789e-29
-2.09676e-29
-2.40875e-29
-2.72215e-29
-3.05513e-29
-3.46078e-29
-4.04012e-29
-4.94913e-29
-6.39377e-29
-8.60662e-29
-1.18012e-28
-1.61043e-28
-2.1474e-28
-2.76167e-28
-3.39258e-28
-3.94697e-28
-4.30655e-28
-4.34884e-28
-3.98842e-28
-3.24408e-28
-2.32755e-28
-1.72876e-28
-2.24809e-28
-4.90243e-28
-1.06465e-27
-1.99752e-27
-3.25792e-27
-4.68457e-27
-6.08485e-27
-7.11899e-27
-4.56753e-30
-4.76282e-30
-5.18672e-30
-5.87714e-30
-6.88859e-30
-8.27745e-30
-1.00848e-29
-1.23182e-29
-1.49364e-29
-1.78456e-29
-2.0915e-29
-2.40235e-29
-2.71411e-29
-3.04478e-29
-3.44728e-29
-4.02252e-29
-4.92649e-29
-6.36527e-29
-8.57172e-29
-1.17597e-28
-1.60564e-28
-2.14204e-28
-2.7558e-28
-3.38629e-28
-3.94029e-28
-4.29931e-28
-4.34045e-28
-3.9777e-28
-3.22947e-28
-2.30858e-28
-1.70886e-28
-2.23846e-28
-4.92531e-28
-1.07324e-27
-2.01516e-27
-3.28686e-27
-4.72217e-27
-6.12923e-27
-7.16318e-27
-4.5457e-30
-4.73997e-30
-5.16166e-30
-5.84883e-30
-6.85595e-30
-8.23931e-30
-1.00399e-29
-1.22651e-29
-1.48734e-29
-1.77709e-29
-2.08265e-29
-2.39183e-29
-2.70154e-29
-3.02963e-29
-3.42881e-29
-3.99971e-29
-4.89801e-29
-6.3294e-29
-8.52631e-29
-1.17022e-28
-1.59841e-28
-2.13304e-28
-2.74481e-28
-3.37319e-28
-3.92513e-28
-4.2823e-28
-4.32193e-28
-3.95812e-28
-3.21004e-28
-2.293e-28
-1.70647e-28
-2.26793e-28
-5.01692e-28
-1.09234e-27
-2.0471e-27
-3.33326e-27
-4.77906e-27
-6.19206e-27
-7.22413e-27
-4.5169e-30
-4.7099e-30
-5.12883e-30
-5.81178e-30
-6.81306e-30
-8.18873e-30
-9.97954e-30
-1.21926e-29
-1.47866e-29
-1.76672e-29
-2.07037e-29
-2.37737e-29
-2.6846e-29
-3.00975e-29
-3.40528e-29
-3.97137e-29
-4.86306e-29
-6.28522e-29
-8.46928e-29
-1.16277e-28
-1.58868e-28
-2.12048e-28
-2.72895e-28
-3.35377e-28
-3.90224e-28
-4.25653e-28
-4.29438e-28
-3.93064e-28
-3.18606e-28
-2.2797e-28
-1.7182e-28
-2.33001e-28
-5.16731e-28
-1.12061e-27
-2.09177e-27
-3.39546e-27
-4.85351e-27
-6.27174e-27
-7.30139e-27
-4.48116e-30
-4.67262e-30
-5.0882e-30
-5.76593e-30
-6.75985e-30
-8.12566e-30
-9.90377e-30
-1.21011e-29
-1.46763e-29
-1.75353e-29
-2.05476e-29
-2.35911e-29
-2.66342e-29
-2.98523e-29
-3.37665e-29
-3.93729e-29
-4.82125e-29
-6.23216e-29
-8.39997e-29
-1.15357e-28
-1.57644e-28
-2.1044e-28
-2.70837e-28
-3.32834e-28
-3.87215e-28
-4.22268e-28
-4.25857e-28
-3.8959e-28
-3.1577e-28
-2.26779e-28
-1.74147e-28
-2.41973e-28
-5.36857e-28
-1.15696e-27
-2.14775e-27
-3.47179e-27
-4.94362e-27
-6.36617e-27
-7.3911e-27
-4.43851e-30
-4.62815e-30
-5.03978e-30
-5.71128e-30
-6.69632e-30
-8.05013e-30
-9.81272e-30
-1.19908e-29
-1.4543e-29
-1.73758e-29
-2.03591e-29
-2.33714e-29
-2.63808e-29
-2.95611e-29
-3.34294e-29
-3.89739e-29
-4.77237e-29
-6.1699e-29
-8.31801e-29
-1.14257e-28
-1.56168e-28
-2.08487e-28
-2.68323e-28
-3.29717e-28
-3.83522e-28
-4.18122e-28
-4.21502e-28
-3.85433e-28
-3.12503e-28
-2.2566e-28
-1.77428e-28
-2.53315e-28
-5.61417e-28
-1.20043e-27
-2.21372e-27
-3.56055e-27
-5.04726e-27
-6.47283e-27
-7.4921e-27
-4.38903e-30
-4.57656e-30
-4.98362e-30
-5.64788e-30
-6.62252e-30
-7.96221e-30
-9.70652e-30
-1.18619e-29
-1.43871e-29
-1.71892e-29
-2.01388e-29
-2.31153e-29
-2.60867e-29
-2.92247e-29
-3.30416e-29
-3.85163e-29
-4.71634e-29
-6.09833e-29
-8.22329e-29
-1.12979e-28
-1.54442e-28
-2.06193e-28
-2.65363e-28
-3.26042e-28
-3.7917e-28
-4.1325e-28
-4.16411e-28
-3.80622e-28
-3.08807e-28
-2.24556e-28
-1.815e-28
-2.66688e-28
-5.89821e-28
-1.25008e-27
-2.28833e-27
-3.6599e-27
-5.16205e-27
-6.58868e-27
-7.59922e-27
-4.33279e-30
-4.51791e-30
-4.91979e-30
-5.57579e-30
-6.53852e-30
-7.86203e-30
-9.58532e-30
-1.17146e-29
-1.42089e-29
-1.69759e-29
-1.98874e-29
-2.28235e-29
-2.57523e-29
-2.88436e-29
-3.26037e-29
-3.80005e-29
-4.65317e-29
-6.01744e-29
-8.1158e-29
-1.11523e-28
-1.52468e-28
-2.03565e-28
-2.61966e-28
-3.21824e-28
-3.74181e-28
-4.07675e-28
-4.1061e-28
-3.7518e-28
-3.04683e-28
-2.23417e-28
-1.86214e-28
-2.81778e-28
-6.21499e-28
-1.30499e-27
-2.37017e-27
-3.76784e-27
-5.28531e-27
-6.71032e-27
-7.70826e-27
-4.26986e-30
-4.45229e-30
-4.84839e-30
-5.49512e-30
-6.44446e-30
-7.74971e-30
-9.4493e-30
-1.15492e-29
-1.40087e-29
-1.67363e-29
-1.96051e-29
-2.24965e-29
-2.53785e-29
-2.84185e-29
-3.21162e-29
-3.7427e-29
-4.58291e-29
-5.92729e-29
-7.99567e-29
-1.0989e-28
-1.5025e-28
-2.00607e-28
-2.58141e-28
-3.17077e-28
-3.68572e-28
-4.01422e-28
-4.04124e-28
-3.69125e-28
-3.0013e-28
-2.22194e-28
-1.9143e-28
-2.98277e-28
-6.55867e-28
-1.36417e-27
-2.4577e-27
-3.88214e-27
-5.4141e-27
-6.83398e-27
-7.81726e-27
-4.20035e-30
-4.37981e-30
-4.76952e-30
-5.40598e-30
-6.34045e-30
-7.62542e-30
-9.29866e-30
-1.13659e-29
-1.37867e-29
-1.64708e-29
-1.92926e-29
-2.21349e-29
-2.49658e-29
-2.795e-29
-3.15799e-29
-3.67967e-29
-4.50565e-29
-5.828e-29
-7.86306e-29
-1.08084e-28
-1.47793e-28
-1.97326e-28
-2.53898e-28
-3.11814e-28
-3.6236e-28
-3.94508e-28
-3.96973e-28
-3.62473e-28
-2.95146e-28
-2.20841e-28
-1.97006e-28
-3.15867e-28
-6.92315e-28
-1.42658e-27
-2.54928e-27
-4.00043e-27
-5.54523e-27
-6.95554e-27
-7.91916e-27
-4.12437e-30
-4.30057e-30
-4.6833e-30
-5.30852e-30
-6.22667e-30
-7.48935e-30
-9.13362e-30
-1.1165e-29
-1.35434e-29
-1.61798e-29
-1.89503e-29
-2.17392e-29
-2.45148e-29
-2.7439e-29
-3.09956e-29
-3.61105e-29
-4.42151e-29
-5.71973e-29
-7.71819e-29
-1.06107e-28
-1.45101e-28
-1.93729e-28
-2.49247e-28
-3.06047e-28
-3.55561e-28
-3.86955e-28
-3.89178e-28
-3.55242e-28
-2.89731e-28
-2.19313e-28
-2.02799e-28
-3.3422e-28
-7.30202e-28
-1.49112e-27
-2.64316e-27
-4.12012e-27
-5.67529e-27
-7.07062e-27
-8.00851e-27
-4.04204e-30
-4.21472e-30
-4.58987e-30
-5.20288e-30
-6.10327e-30
-7.3417e-30
-8.95444e-30
-1.09467e-29
-1.32791e-29
-1.58637e-29
-1.85787e-29
-2.13101e-29
-2.40264e-29
-2.68861e-29
-3.03643e-29
-3.53695e-29
-4.33064e-29
-5.60266e-29
-7.56132e-29
-1.03964e-28
-1.42178e-28
-1.89824e-28
-2.44197e-28
-2.9979e-28
-3.48193e-28
-3.78783e-28
-3.80761e-28
-3.47448e-28
-2.83885e-28
-2.17563e-28
-2.0866e-28
-3.52993e-28
-7.68848e-28
-1.55659e-27
-2.73748e-27
-4.23852e-27
-5.80069e-27
-7.17472e-27
-8.08294e-27
-3.95348e-30
-4.12238e-30
-4.48938e-30
-5.08922e-30
-5.97046e-30
-7.18269e-30
-8.76139e-30
-1.07115e-29
-1.29942e-29
-1.55231e-29
-1.81785e-29
-2.08482e-29
-2.35011e-29
-2.62923e-29
-2.9687e-29
-3.45749e-29
-4.23317e-29
-5.47698e-29
-7.39271e-29
-1.01657e-28
-1.39032e-28
-1.85618e-28
-2.3876e-28
-2.93058e-28
-3.40273e-28
-3.70011e-28
-3.71744e-28
-3.3911e-28
-2.77609e-28
-2.15544e-28
-2.1444e-28
-3.71831e-28
-8.07549e-28
-1.62176e-27
-2.8303e-27
-4.3528e-27
-5.91774e-27
-7.26323e-27
-8.13431e-27
-3.85885e-30
-4.02369e-30
-4.38198e-30
-4.96773e-30
-5.82844e-30
-7.01257e-30
-8.55475e-30
-1.04597e-29
-1.26892e-29
-1.51585e-29
-1.77501e-29
-2.03542e-29
-2.29399e-29
-2.56586e-29
-2.89647e-29
-3.3728e-29
-4.12927e-29
-5.34293e-29
-7.21269e-29
-9.91929e-29
-1.35668e-28
-1.8112e-28
-2.32948e-28
-2.85865e-28
-3.31819e-28
-3.60662e-28
-3.6215e-28
-3.30246e-28
-2.70903e-28
-2.13212e-28
-2.19986e-28
-3.90371e-28
-8.45571e-28
-1.68536e-27
-2.91961e-27
-4.46007e-27
-6.0227e-27
-7.33151e-27
-8.16026e-27
-3.75829e-30
-3.91883e-30
-4.26784e-30
-4.83859e-30
-5.67742e-30
-6.8316e-30
-8.33483e-30
-1.01916e-29
-1.23644e-29
-1.47703e-29
-1.72943e-29
-1.98289e-29
-2.23436e-29
-2.49858e-29
-2.81986e-29
-3.28302e-29
-4.01912e-29
-5.20073e-29
-7.02157e-29
-9.65746e-29
-1.32092e-28
-1.7634e-28
-2.26771e-28
-2.78227e-28
-3.22852e-28
-3.50759e-28
-3.52002e-28
-3.20878e-28
-2.63773e-28
-2.10521e-28
-2.25143e-28
-4.08241e-28
-8.82168e-28
-1.74608e-27
-3.00339e-27
-4.55744e-27
-6.11183e-27
-7.37499e-27
-8.15308e-27
-3.65195e-30
-3.80795e-30
-4.14716e-30
-4.702e-30
-5.51764e-30
-6.64005e-30
-8.10198e-30
-9.90765e-30
-1.20204e-29
-1.43591e-29
-1.68117e-29
-1.9273e-29
-2.1713e-29
-2.4275e-29
-2.73899e-29
-3.1883e-29
-3.90292e-29
-5.05063e-29
-6.8197e-29
-9.38073e-29
-1.28312e-28
-1.71285e-28
-2.20243e-28
-2.7016e-28
-3.13391e-28
-3.40324e-28
-3.41326e-28
-3.11026e-28
-2.56224e-28
-2.0743e-28
-2.29758e-28
-4.25069e-28
-9.16584e-28
-1.80259e-27
-3.07961e-27
-4.64203e-27
-6.18149e-27
-7.3893e-27
-8.1076e-27
-3.54002e-30
-3.69122e-30
-4.0201e-30
-4.55819e-30
-5.34935e-30
-6.43823e-30
-7.85654e-30
-9.60828e-30
-1.16576e-29
-1.39256e-29
-1.6303e-29
-1.86874e-29
-2.10492e-29
-2.35273e-29
-2.65399e-29
-3.08879e-29
-3.78084e-29
-4.89289e-29
-6.60743e-29
-9.08961e-29
-1.24334e-28
-1.65967e-28
-2.13378e-28
-2.61681e-28
-3.03456e-28
-3.29381e-28
-3.30147e-28
-3.00713e-28
-2.48261e-28
-2.039e-28
-2.33682e-28
-4.40485e-28
-9.48066e-28
-1.85358e-27
-3.14625e-27
-4.71105e-27
-6.22821e-27
-7.37042e-27
-8.02204e-27
-3.42266e-30
-3.56884e-30
-3.88688e-30
-4.40736e-30
-5.1728e-30
-6.22642e-30
-7.59889e-30
-9.29393e-30
-1.12767e-29
-1.34704e-29
-1.5769e-29
-1.80729e-29
-2.03532e-29
-2.27439e-29
-2.56499e-29
-2.98465e-29
-3.6531e-29
-4.72779e-29
-6.38515e-29
-8.78463e-29
-1.20166e-28
-1.60396e-28
-2.06187e-28
-2.52807e-28
-2.93069e-28
-3.17954e-28
-3.1849e-28
-2.89962e-28
-2.39894e-28
-1.99892e-28
-2.3677e-28
-4.54126e-28
-9.75875e-28
-1.89775e-27
-3.20137e-27
-4.76185e-27
-6.24871e-27
-7.31467e-27
-7.89067e-27
-3.30005e-30
-3.441e-30
-3.7477e-30
-4.24977e-30
-4.98828e-30
-6.00498e-30
-7.32941e-30
-8.96509e-30
-1.08781e-29
-1.29942e-29
-1.52105e-29
-1.74305e-29
-1.9626e-29
-2.1926e-29
-2.47214e-29
-2.87605e-29
-3.5199e-29
-4.5556e-29
-6.15323e-29
-8.46633e-29
-1.15815e-28
-1.54581e-28
-1.98686e-28
-2.43556e-28
-2.82251e-28
-3.06069e-28
-3.06383e-28
-2.78798e-28
-2.31133e-28
-1.95376e-28
-2.38886e-28
-4.65646e-28
-9.99296e-28
-1.93386e-27
-3.24313e-27
-4.79195e-27
-6.24006e-27
-7.21881e-27
-7.71068e-27
-3.1724e-30
-3.30789e-30
-3.60278e-30
-4.08564e-30
-4.79606e-30
-5.77422e-30
-7.04853e-30
-8.62224e-30
-1.04626e-29
-1.24977e-29
-1.46283e-29
-1.67611e-29
-1.88686e-29
-2.10749e-29
-2.37558e-29
-2.76317e-29
-3.38148e-29
-4.37662e-29
-5.91208e-29
-8.13527e-29
-1.1129e-28
-1.48533e-28
-1.90888e-28
-2.33945e-28
-2.71023e-28
-2.9375e-28
-2.93852e-28
-2.67246e-28
-2.21991e-28
-1.90323e-28
-2.39902e-28
-4.74715e-28
-1.01765e-27
-1.96073e-27
-3.26979e-27
-4.79915e-27
-6.19966e-27
-7.08016e-27
-7.48216e-27
-3.0399e-30
-3.16972e-30
-3.45235e-30
-3.91525e-30
-4.59645e-30
-5.53451e-30
-6.75666e-30
-8.26591e-30
-1.00306e-29
-1.19817e-29
-1.40233e-29
-1.60658e-29
-1.80824e-29
-2.01918e-29
-2.27546e-29
-2.64619e-29
-3.23805e-29
-4.19114e-29
-5.66212e-29
-7.79202e-29
-1.06598e-28
-1.42264e-28
-1.82807e-28
-2.23992e-28
-2.59407e-28
-2.81022e-28
-2.80924e-28
-2.55331e-28
-2.12483e-28
-1.84712e-28
-2.39704e-28
-4.81026e-28
-1.0303e-27
-1.97724e-27
-3.27978e-27
-4.78149e-27
-6.12538e-27
-6.89652e-27
-7.20465e-27
-2.90276e-30
-3.02671e-30
-3.29663e-30
-3.73885e-30
-4.38975e-30
-5.28622e-30
-6.45425e-30
-7.89663e-30
-9.58295e-30
-1.14468e-29
-1.33965e-29
-1.53456e-29
-1.72684e-29
-1.92781e-29
-2.17194e-29
-2.5253e-29
-3.08986e-29
-3.99948e-29
-5.40376e-29
-7.43718e-29
-1.01747e-28
-1.35785e-28
-1.74459e-28
-2.13717e-28
-2.47426e-28
-2.67909e-28
-2.67625e-28
-2.43079e-28
-2.02625e-28
-1.78527e-28
-2.3819e-28
-4.84305e-28
-1.03666e-27
-1.9824e-27
-3.2717e-27
-4.7374e-27
-6.01558e-27
-6.66618e-27
-6.88111e-27
-2.76119e-30
-2.87909e-30
-3.13589e-30
-3.55672e-30
-4.17629e-30
-5.02973e-30
-6.14176e-30
-7.51496e-30
-9.1202e-30
-1.0894e-29
-1.27486e-29
-1.46016e-29
-1.64279e-29
-1.83353e-29
-2.06519e-29
-2.40069e-29
-2.93713e-29
-3.80195e-29
-5.13743e-29
-7.07134e-29
-9.67455e-29
-1.29105e-28
-1.65857e-28
-2.03137e-28
-2.351e-28
-2.54438e-28
-2.53983e-28
-2.30516e-28
-1.92437e-28
-1.71759e-28
-2.35276e-28
-4.8431e-28
-1.03624e-27
-1.97533e-27
-3.24437e-27
-4.66563e-27
-5.86921e-27
-6.38771e-27
-6.51799e-27
-2.61541e-30
-2.72708e-30
-2.97036e-30
-3.36914e-30
-3.95639e-30
-4.76543e-30
-5.81967e-30
-7.12148e-30
-8.64308e-30
-1.0324e-29
-1.20808e-29
-1.38349e-29
-1.55622e-29
-1.73647e-29
-1.95536e-29
-2.27256e-29
-2.78013e-29
-3.59888e-29
-4.86358e-29
-6.6951e-29
-9.16023e-29
-1.22238e-28
-1.57016e-28
-1.9227e-28
-2.22452e-28
-2.40631e-28
-2.40023e-28
-2.17668e-28
-1.81938e-28
-1.64407e-28
-2.30896e-28
-4.80837e-28
-1.02859e-27
-1.95526e-27
-3.19681e-27
-4.56539e-27
-5.68589e-27
-6.05977e-27
-6.12708e-27
-2.46566e-30
-2.57093e-30
-2.8003e-30
-3.17641e-30
-3.73039e-30
-4.49372e-30
-5.48848e-30
-6.7168e-30
-8.15232e-30
-9.73775e-30
-1.1394e-29
-1.30466e-29
-1.46727e-29
-1.6368e-29
-1.84264e-29
-2.14111e-29
-2.61911e-29
-3.3906e-29
-4.58264e-29
-6.30908e-29
-8.63254e-29
-1.15193e-28
-1.47952e-28
-1.81134e-28
-2.09503e-28
-2.26514e-28
-2.25772e-28
-2.04562e-28
-1.71152e-28
-1.56475e-28
-2.25004e-28
-4.73728e-28
-1.01337e-27
-1.92161e-27
-3.12832e-27
-4.43632e-27
-5.46599e-27
-5.68037e-27
-5.75878e-27
-2.31216e-30
-2.41086e-30
-2.62598e-30
-2.97881e-30
-3.49865e-30
-4.21504e-30
-5.14868e-30
-6.30152e-30
-7.64866e-30
-9.1361e-30
-1.06893e-29
-1.22381e-29
-1.37606e-29
-1.53467e-29
-1.72721e-29
-2.00656e-29
-2.45432e-29
-3.17743e-29
-4.29508e-29
-5.9139e-29
-8.09233e-29
-1.07983e-28
-1.38677e-28
-1.69747e-28
-1.96274e-28
-2.12109e-28
-2.11254e-28
-1.91223e-28
-1.60104e-28
-1.47979e-28
-2.17573e-28
-4.62871e-28
-9.90318e-28
-1.87393e-27
-3.03841e-27
-4.27847e-27
-5.21084e-27
-5.24481e-27
-5.06915e-27
-2.15515e-30
-2.24714e-30
-2.44766e-30
-2.77667e-30
-3.26151e-30
-3.9298e-30
-4.80081e-30
-5.87629e-30
-7.13287e-30
-8.51997e-30
-9.9678e-30
-1.14105e-29
-1.28274e-29
-1.43023e-29
-1.60923e-29
-1.86912e-29
-2.28602e-29
-2.95973e-29
-4.00135e-29
-5.51018e-29
-7.54044e-29
-1.00618e-28
-1.29207e-28
-1.58128e-28
-1.82786e-28
-1.9744e-28
-1.96493e-28
-1.77677e-28
-1.4882e-28
-1.38939e-28
-2.08601e-28
-4.48202e-28
-9.59286e-28
-1.81194e-27
-2.92688e-27
-4.0924e-27
-4.92302e-27
-4.75905e-27
-4.09856e-27
-1.99487e-30
-2.08001e-30
-2.26563e-30
-2.57029e-30
-3.01936e-30
-3.63844e-30
-4.44539e-30
-5.44174e-30
-6.60573e-30
-7.89028e-30
-9.23049e-30
-1.0565e-29
-1.18745e-29
-1.32364e-29
-1.48891e-29
-1.72901e-29
-2.1145e-29
-2.73783e-29
-3.70191e-29
-5.09855e-29
-6.97773e-29
-9.31096e-29
-1.19556e-28
-1.46292e-28
-1.69058e-28
-1.82529e-28
-1.81514e-28
-1.63949e-28
-1.37328e-28
-1.29385e-28
-1.98108e-28
-4.29712e-28
-9.20221e-28
-1.73557e-27
-2.79378e-27
-3.87902e-27
-4.60628e-27
-4.23648e-27
-2.84833e-27
-1.83157e-30
-1.90974e-30
-2.08017e-30
-2.35999e-30
-2.77256e-30
-3.34142e-30
-4.08296e-30
-4.99855e-30
-6.06804e-30
-7.24801e-30
-8.47855e-30
-9.70304e-30
-1.09035e-29
-1.21509e-29
-1.36643e-29
-1.58644e-29
-1.94001e-29
-2.5121e-29
-3.39722e-29
-4.67964e-29
-6.40504e-29
-8.54693e-29
-1.09739e-28
-1.34259e-28
-1.55111e-28
-1.67397e-28
-1.66338e-28
-1.50063e-28
-1.25656e-28
-1.19355e-28
-1.86137e-28
-4.07444e-28
-8.73177e-28
-1.64489e-27
-2.6394e-27
-3.63962e-27
-4.26535e-27
-3.69997e-27
-1.17561e-27
-1.66551e-30
-1.73658e-30
-1.89156e-30
-2.1461e-30
-2.5215e-30
-3.03919e-30
-3.71409e-30
-4.54738e-30
-5.52063e-30
-6.59412e-30
-7.71313e-30
-8.82586e-30
-9.9157e-30
-1.10472e-29
-1.24197e-29
-1.44165e-29
-1.76283e-29
-2.28287e-29
-3.08775e-29
-4.25408e-29
-5.82322e-29
-7.77078e-29
-9.97681e-29
-1.22044e-28
-1.40965e-28
-1.52065e-28
-1.50988e-28
-1.36042e-28
-1.13836e-28
-1.08894e-28
-1.72753e-28
-3.81495e-28
-8.18319e-28
-1.54017e-27
-2.4643e-27
-3.37574e-27
-3.90535e-27
-3.1892e-27
-1.62947e-28
-1.49694e-30
-1.56081e-30
-1.7001e-30
-1.92895e-30
-2.26656e-30
-2.73223e-30
-3.33935e-30
-4.08894e-30
-4.96432e-30
-5.92962e-30
-6.9354e-30
-7.93482e-30
-8.91277e-30
-9.92717e-30
-1.11575e-29
-1.29487e-29
-1.58325e-29
-2.0505e-29
-2.77398e-29
-3.82249e-29
-5.23311e-29
-6.98363e-29
-8.96588e-29
-1.09664e-28
-1.26637e-28
-1.36554e-28
-1.35484e-28
-1.2191e-28
-1.01898e-28
-9.80542e-29
-1.58046e-28
-3.52017e-28
-7.5592e-28
-1.42187e-27
-2.26927e-27
-3.08906e-27
-3.53055e-27
-2.72084e-27
4.01524e-28
-1.32611e-30
-1.38268e-30
-1.50607e-30
-1.70887e-30
-2.00814e-30
-2.42099e-30
-2.9593e-30
-3.62392e-30
-4.39998e-30
-5.25553e-30
-6.14654e-30
-7.0313e-30
-7.89621e-30
-8.79256e-30
-9.87954e-30
-1.14632e-29
-1.40154e-29
-1.81536e-29
-2.45637e-29
-3.38552e-29
-4.63554e-29
-6.18656e-29
-7.94242e-29
-9.7136e-29
-1.12147e-28
-1.20882e-28
-1.19846e-28
-1.07687e-28
-8.98735e-29
-8.68929e-29
-1.42126e-28
-3.19214e-28
-6.8636e-28
-1.29062e-27
-2.05529e-27
-2.78136e-27
-3.14408e-27
-2.29805e-27
6.79227e-28
-1.1533e-30
-1.20249e-30
-1.30979e-30
-1.48621e-30
-1.74663e-30
-2.10596e-30
-2.57453e-30
-3.15304e-30
-3.82846e-30
-4.57287e-30
-5.34777e-30
-6.11669e-30
-6.86762e-30
-7.64514e-30
-8.58786e-30
-9.9624e-30
-1.21799e-29
-1.5778e-29
-2.1354e-29
-2.94379e-29
-4.03136e-29
-5.38066e-29
-6.90777e-29
-8.44751e-29
-9.75109e-29
-1.05068e-28
-1.04093e-28
-9.33948e-29
-7.77936e-29
-7.54743e-29
-1.25124e-28
-2.83341e-28
-6.10121e-28
-1.14722e-27
-1.82359e-27
-2.45448e-27
-2.74798e-27
-1.91725e-27
7.69064e-28
-9.7876e-31
-1.0205e-30
-1.11155e-30
-1.26131e-30
-1.48245e-30
-1.78764e-30
-2.18564e-30
-2.67702e-30
-3.25064e-30
-3.88268e-30
-4.54032e-30
-5.19239e-30
-5.82859e-30
-6.48669e-30
-7.28451e-30
-8.44871e-30
-1.03288e-29
-1.33819e-29
-1.81154e-29
-2.49793e-29
-3.4214e-29
-4.56699e-29
-5.86326e-29
-7.16972e-29
-8.27476e-29
-8.91313e-29
-8.82409e-29
-7.90519e-29
-6.56895e-29
-6.38668e-29
-1.07189e-28
-2.44699e-28
-5.27787e-28
-9.92643e-28
-1.57558e-27
-2.11029e-27
-2.34353e-27
-1.57168e-27
7.45988e-28
-8.02765e-31
-8.36995e-31
-9.11653e-31
-1.03452e-30
-1.216e-30
-1.4665e-30
-1.79322e-30
-2.19658e-30
-2.66741e-30
-3.18604e-30
-3.72542e-30
-4.25985e-30
-4.78073e-30
-5.31904e-30
-5.97154e-30
-6.92448e-30
-8.46507e-30
-1.09689e-29
-1.48526e-29
-2.04856e-29
-2.80647e-29
-3.74661e-29
-4.81021e-29
-5.88177e-29
-6.78736e-29
-7.30875e-29
-7.2308e-29
-6.46764e-29
-5.35918e-29
-5.21425e-29
-8.84881e-29
-2.03635e-28
-4.4003e-28
-8.2802e-28
-1.31288e-27
-1.75075e-27
-1.93153e-27
-1.25378e-27
6.59531e-28
-6.25581e-31
-6.52252e-31
-7.10416e-31
-8.06186e-31
-9.47688e-31
-1.14305e-30
-1.39787e-30
-1.71248e-30
-2.07966e-30
-2.48401e-30
-2.90434e-30
-3.32049e-30
-3.72568e-30
-4.14402e-30
-4.65102e-30
-5.39212e-30
-6.59157e-30
-8.54265e-30
-1.15705e-29
-1.59632e-29
-2.18741e-29
-2.92058e-29
-3.74991e-29
-4.58517e-29
-5.29054e-29
-5.69539e-29
-5.63096e-29
-5.02852e-29
-4.15301e-29
-4.03761e-29
-6.92012e-29
-1.60534e-28
-3.47608e-28
-6.54627e-28
-1.03726e-27
-1.37791e-27
-1.51259e-27
-9.56538e-28
5.35855e-28
-4.4748e-31
-4.66554e-31
-5.08145e-31
-5.76662e-31
-6.77934e-31
-8.17784e-31
-1.00022e-30
-1.22545e-30
-1.4883e-30
-1.77767e-30
-2.07833e-30
-2.37578e-30
-2.66508e-30
-2.96347e-30
-3.32504e-30
-3.85403e-30
-4.7112e-30
-6.10676e-30
-8.27368e-30
-1.14183e-29
-1.56503e-29
-2.08994e-29
-2.68363e-29
-3.28142e-29
-3.78591e-29
-4.07466e-29
-4.02606e-29
-3.58938e-29
-2.95327e-29
-2.86439e-29
-4.95207e-29
-1.15814e-28
-2.51354e-28
-4.73875e-28
-7.50675e-28
-9.93934e-28
-1.08729e-27
-6.73887e-28
3.93984e-28
-2.68733e-31
-2.80184e-31
-3.05151e-31
-3.46304e-31
-4.07154e-31
-4.91204e-31
-6.00863e-31
-7.36252e-31
-8.9423e-31
-1.06811e-30
-1.24868e-30
-1.42718e-30
-1.60059e-30
-1.77925e-30
-1.99569e-30
-2.31264e-30
-2.82686e-30
-3.6649e-30
-4.96696e-30
-6.85719e-30
-9.40141e-30
-1.25574e-29
-1.61266e-29
-1.97198e-29
-2.27508e-29
-2.44814e-29
-2.41755e-29
-2.15165e-29
-1.76262e-29
-1.70225e-29
-2.96477e-29
-6.99238e-29
-1.52163e-28
-2.87299e-28
-4.55238e-28
-6.01116e-28
-6.56331e-28
-4.00902e-28
2.40845e-28
-8.96118e-32
-9.34263e-32
-1.01745e-31
-1.15466e-31
-1.35766e-31
-1.63817e-31
-2.00425e-31
-2.45629e-31
-2.98375e-31
-3.56418e-31
-4.16664e-31
-4.76159e-31
-5.33869e-31
-5.93219e-31
-6.65061e-31
-7.70357e-31
-9.41467e-31
-1.22072e-30
-1.65505e-30
-2.28601e-30
-3.13566e-30
-4.18993e-30
-5.38251e-30
-6.58328e-30
-7.59615e-30
-8.17375e-30
-8.06776e-30
-7.16654e-30
-5.83582e-30
-5.5875e-30
-9.78945e-30
-2.33309e-29
-5.09812e-29
-9.65337e-29
-1.5318e-28
-2.01876e-28
-2.20567e-28
-1.33543e-28
8.10062e-29
-1.16787e-20
-6.05505e-21
-3.83496e-21
-1.4421e-21
-1.73337e-21
-6.22691e-22
-3.1841e-22
-1.69012e-22
-1.05025e-22
-8.44359e-23
-3.28418e-23
-1.65796e-23
-9.35817e-24
-6.18581e-24
-4.19946e-24
-1.51907e-24
-6.68701e-25
-2.86222e-25
-8.66137e-26
4.17784e-26
1.39883e-25
1.76288e-25
1.88446e-25
1.90948e-25
1.8894e-25
)
;

boundaryField
{
    fixedWallsLeftTop
    {
        type            zeroGradient;
    }
    backFaceLeftTop
    {
        type            zeroGradient;
    }
    frontFaceLeftTop
    {
        type            zeroGradient;
    }
    symmetryWallLeftTop
    {
        type            fixedValue;
        value           uniform 0;
    }
    topToBottom
    {
        type            zeroGradient;
    }
    plug
    {
        type            cyclicAMI;
        value           nonuniform List<scalar> 
40
(
7.80259e-26
7.82524e-26
7.86273e-26
7.90733e-26
8.79177e-26
8.02415e-26
8.00823e-26
7.99895e-26
8.07137e-26
8.07743e-26
8.08407e-26
8.10589e-26
8.13487e-26
8.95228e-26
8.12711e-26
8.09666e-26
7.98994e-26
7.98209e-26
7.97509e-26
7.96894e-26
7.97811e-26
7.99455e-26
8.75933e-26
7.88838e-26
7.44167e-26
7.40844e-26
7.391e-26
7.37484e-26
7.35999e-26
7.36022e-26
7.36834e-26
8.08051e-26
5.63975e-26
5.60099e-26
5.57059e-26
5.55529e-26
5.54342e-26
5.5348e-26
5.53595e-26
5.54462e-26
)
;
    }
    fixedWallsChannel
    {
        type            zeroGradient;
    }
    inlet
    {
        type            zeroGradient;
    }
    outlet
    {
        type            cyclicAMI;
        value           nonuniform List<scalar> 5(8.05531e-26 8.23324e-26 8.09214e-26 7.49513e-26 5.56568e-26);
    }
    backFaceInletChannel
    {
        type            zeroGradient;
    }
    frontFaceInletChannel
    {
        type            zeroGradient;
    }
}


// ************************************************************************* //
