/*--------------------------------*- C++ -*----------------------------------*\
| =========                 |                                                 |
| \\      /  F ield         | OpenFOAM: The Open Source CFD Toolbox           |
|  \\    /   O peration     | Version:  4.1                                   |
|   \\  /    A nd           | Web:      www.OpenFOAM.org                      |
|    \\/     M anipulation  |                                                 |
\*---------------------------------------------------------------------------*/
FoamFile
{
    version     2.0;
    format      ascii;
    class       surfaceScalarField;
    location    "8";
    object      phi;
}
// * * * * * * * * * * * * * * * * * * * * * * * * * * * * * * * * * * * * * //

dimensions      [0 3 -1 0 0 0 0];

internalField   nonuniform List<scalar> 
3240
(
-9.16215e-25
-9.29687e-25
1.34761e-26
-9.29681e-25
-9.29681e-25
-9.2969e-25
-9.5549e-25
2.58136e-26
-9.55469e-25
-9.55469e-25
-9.55484e-25
-9.95852e-25
4.03915e-26
-9.95814e-25
-9.95834e-25
-1.06872e-24
7.29182e-26
-1.06866e-24
-1.06866e-24
-1.06869e-24
-1.16597e-24
9.73294e-26
-1.1659e-24
-1.16593e-24
-1.30798e-24
1.42109e-25
-1.30788e-24
-1.30788e-24
-1.30792e-24
-1.49548e-24
1.87628e-25
-1.49536e-24
-1.49536e-24
-1.49541e-24
-1.74559e-24
2.50263e-25
-1.74543e-24
-1.74549e-24
-2.08544e-24
3.40046e-25
-2.08525e-24
-2.08525e-24
-2.08532e-24
-2.5407e-24
4.55494e-25
-2.54048e-24
-2.54056e-24
-3.1502e-24
6.09775e-25
-3.14994e-24
-3.14995e-24
-2.95108e-24
-2.75032e-24
-2.54946e-24
-2.27409e-24
-1.61174e-24
-5.58507e-25
-1.35125e-24
-1.14725e-24
-9.4458e-25
-7.90209e-25
-6.35678e-25
-4.82683e-25
-3.28594e-25
-1.03013e-25
3.96265e-25
-4.73217e-25
6.10979e-25
7.66979e-25
8.67152e-25
9.69038e-25
1.07142e-24
1.17329e-24
1.27706e-24
1.44832e-24
1.87964e-24
-4.88629e-25
2.04481e-24
2.03816e-24
2.03118e-24
2.02626e-24
2.02247e-24
2.01884e-24
2.0174e-24
2.07644e-24
2.38576e-24
-5.24678e-25
2.01526e-24
1.59388e-24
1.17254e-24
7.52989e-25
3.34001e-25
-8.54281e-26
-5.05066e-25
-9.01714e-25
-7.96204e-25
-1.06325e-25
-6.87918e-25
-1.08016e-25
-6.87794e-25
-5.93691e-25
-9.40386e-26
-5.9359e-25
-5.05436e-25
-8.81317e-26
-4.45086e-25
-6.02009e-26
-4.4502e-25
-3.8458e-25
-6.0425e-26
-3.46107e-25
-3.83694e-26
-3.4606e-25
-3.05457e-25
-4.05775e-26
-3.05415e-25
-2.63647e-25
-4.17593e-26
-2.36121e-25
-2.74595e-26
-2.36084e-25
-2.06908e-25
-2.91615e-26
-2.0687e-25
-1.78223e-25
-2.86418e-26
-1.56781e-25
-2.13903e-26
-1.56741e-25
-1.35653e-25
-2.1084e-26
-1.18845e-25
-1.67573e-26
-1.18799e-25
-1.0207e-25
-1.67254e-26
-1.02021e-25
-8.75773e-26
-1.44417e-26
-7.40065e-26
-1.35169e-26
-7.39523e-26
-6.12308e-26
-1.27194e-26
-6.11739e-26
-5.09548e-26
-1.02182e-26
-3.98486e-26
-1.10473e-26
-3.97877e-26
-3.00091e-26
-9.77807e-27
-1.99323e-26
-1.00156e-26
-1.9869e-26
-9.63078e-27
-1.02377e-26
-9.56697e-27
-9.56675e-27
8.97183e-30
-8.97183e-30
1.82864e-29
-9.32054e-30
2.83112e-29
-1.00296e-29
3.9435e-29
-1.11256e-29
5.20884e-29
-1.26504e-29
6.67591e-29
-1.46615e-29
8.40097e-29
-1.72349e-29
1.04498e-28
-2.04678e-29
1.29004e-28
-2.44833e-29
1.58456e-28
-2.94352e-29
1.93974e-28
-3.55154e-29
2.36911e-28
-4.29617e-29
2.88917e-28
-5.20681e-29
3.52009e-28
-6.31963e-29
4.28653e-28
-7.67883e-29
5.21873e-28
-9.33806e-29
6.35357e-28
-1.1362e-28
7.73591e-28
-1.38279e-28
9.42001e-28
-1.68279e-28
1.1471e-27
-2.04712e-28
1.39669e-27
-2.48871e-28
1.70001e-27
-3.02298e-28
2.06807e-27
-3.66837e-28
2.5139e-27
-4.44711e-28
3.05303e-27
-5.38587e-28
3.70397e-27
-6.51617e-28
4.48872e-27
-7.87372e-28
5.43315e-27
-9.49524e-28
6.56653e-27
-1.14108e-27
7.91957e-27
-1.36266e-27
9.5189e-27
-1.60913e-27
1.13749e-26
-1.863e-27
1.34571e-26
-2.08259e-27
1.56497e-26
-2.18225e-27
1.76778e-26
-2.00406e-27
1.90085e-26
-1.29219e-27
1.87796e-26
2.80024e-28
1.59181e-26
2.92075e-27
6.41363e-27
8.96223e-30
-1.7939e-29
1.82673e-29
-1.86331e-29
2.82816e-29
-2.00454e-29
3.93936e-29
-2.22302e-29
5.20334e-29
-2.52718e-29
6.66884e-29
-2.92871e-29
8.39207e-29
-3.44302e-29
1.04388e-28
-4.08985e-29
1.28868e-28
-4.89404e-29
1.58289e-28
-5.88651e-29
1.93769e-28
-7.10549e-29
2.3666e-28
-8.59804e-29
2.8861e-28
-1.04219e-28
3.51633e-28
-1.26478e-28
4.28195e-28
-1.53619e-28
5.21313e-28
-1.86693e-28
6.34674e-28
-2.26977e-28
7.7276e-28
-2.76016e-28
9.40991e-28
-3.35678e-28
1.14588e-27
-4.08212e-28
1.39521e-27
-4.96322e-28
1.69824e-27
-6.03248e-28
2.06594e-27
-7.32861e-28
2.51134e-27
-8.89755e-28
3.04996e-27
-1.07931e-27
3.7003e-27
-1.30768e-27
4.48437e-27
-1.58156e-27
5.42807e-27
-1.90757e-27
6.56078e-27
-2.29073e-27
7.91346e-27
-2.73131e-27
9.51324e-27
-3.21841e-27
1.13715e-26
-3.71743e-27
1.34594e-26
-4.14689e-27
1.56641e-26
-4.33877e-27
1.77145e-26
-3.98074e-27
1.90801e-26
-2.56246e-27
1.88938e-26
5.76659e-28
1.6065e-26
5.86916e-27
1.23451e-26
8.93448e-30
-2.68783e-29
1.82108e-29
-2.79167e-29
2.81942e-29
-3.00302e-29
3.92719e-29
-3.3301e-29
5.18728e-29
-3.78553e-29
6.64827e-29
-4.38692e-29
8.3662e-29
-5.15745e-29
1.04066e-28
-6.12681e-29
1.28471e-28
-7.33231e-29
1.57802e-28
-8.82034e-29
1.93172e-28
-1.06481e-28
2.35931e-28
-1.28859e-28
2.8772e-28
-1.56198e-28
3.50548e-28
-1.89549e-28
4.26872e-28
-2.30198e-28
5.19701e-28
-2.79709e-28
6.32712e-28
-3.39988e-28
7.70373e-28
-4.13352e-28
9.3809e-28
-5.02612e-28
1.14236e-27
-6.11168e-28
1.39094e-27
-7.43123e-28
1.69305e-27
-9.03399e-28
2.05966e-27
-1.09787e-27
2.50376e-27
-1.33349e-27
3.04083e-27
-1.61833e-27
3.68934e-27
-1.96157e-27
4.47133e-27
-2.37308e-27
5.41274e-27
-2.86252e-27
6.54316e-27
-3.43715e-27
7.89397e-27
-4.09722e-27
9.49328e-27
-4.82669e-27
1.13543e-26
-5.57483e-27
1.34518e-26
-6.22195e-27
1.56785e-26
-6.5199e-27
1.77712e-26
-6.00395e-27
1.92057e-26
-3.90713e-27
1.91054e-26
7.80232e-28
1.6324e-26
8.76305e-27
1.87518e-26
8.89296e-30
-3.57759e-29
1.81262e-29
-3.7157e-29
2.80633e-29
-3.99688e-29
3.90897e-29
-4.43207e-29
5.16323e-29
-5.03813e-29
6.61745e-29
-5.83849e-29
8.32742e-29
-6.86407e-29
1.03584e-28
-8.15446e-29
1.27876e-28
-9.75936e-29
1.57071e-28
-1.17405e-28
1.92277e-28
-1.41741e-28
2.34837e-28
-1.71534e-28
2.86386e-28
-2.07928e-28
3.48922e-28
-2.52319e-28
4.24891e-28
-3.06412e-28
5.1729e-28
-3.72287e-28
6.29778e-28
-4.52477e-28
7.66803e-28
-5.50068e-28
9.33748e-28
-6.68811e-28
1.13708e-27
-8.13248e-28
1.38452e-27
-9.88867e-28
1.68528e-27
-1.20226e-27
2.05024e-27
-1.4613e-27
2.49237e-27
-1.77526e-27
3.0271e-27
-2.15492e-27
3.67288e-27
-2.61247e-27
4.45175e-27
-3.16103e-27
5.38976e-27
-3.81343e-27
6.51675e-27
-4.5794e-27
7.8648e-27
-5.45964e-27
9.46336e-27
-6.43373e-27
1.13284e-26
-7.43628e-27
1.34398e-26
-8.31177e-27
1.56991e-26
-8.73544e-27
1.78551e-26
-8.09347e-27
1.93932e-26
-5.3598e-27
1.94248e-26
8.46292e-28
1.67235e-26
1.15707e-26
2.57893e-26
8.83774e-30
-4.46182e-29
1.80138e-29
-4.63398e-29
2.78893e-29
-4.98457e-29
3.88473e-29
-5.52724e-29
5.13121e-29
-6.28301e-29
6.57643e-29
-7.28113e-29
8.27581e-29
-8.56021e-29
1.02942e-28
-1.01696e-28
1.27083e-28
-1.21714e-28
1.56097e-28
-1.46426e-28
1.91085e-28
-1.7678e-28
2.33381e-28
-2.13941e-28
2.8461e-28
-2.59332e-28
3.46758e-28
-3.14694e-28
4.22256e-28
-3.82148e-28
5.14083e-28
-4.64288e-28
6.25874e-28
-5.64272e-28
7.62053e-28
-6.85951e-28
9.2797e-28
-8.34007e-28
1.13005e-27
-1.01412e-27
1.37599e-27
-1.23316e-27
1.67491e-27
-1.49936e-27
2.03768e-27
-1.82257e-27
2.47718e-27
-2.2144e-27
3.00879e-27
-2.68831e-27
3.65094e-27
-3.25954e-27
4.42566e-27
-3.94451e-27
5.35912e-27
-4.75934e-27
6.48154e-27
-5.71652e-27
7.82583e-27
-6.81771e-27
9.42326e-27
-8.03916e-27
1.12934e-26
-9.30264e-27
1.34229e-26
-1.042e-26
1.57248e-26
-1.09948e-26
1.79644e-26
-1.02689e-26
1.96414e-26
-6.95479e-27
1.98537e-26
7.26865e-28
1.72922e-26
1.42337e-26
3.21204e-26
8.76891e-30
-5.33916e-29
1.78735e-29
-5.54511e-29
2.76722e-29
-5.96458e-29
3.8545e-29
-6.61389e-29
5.09129e-29
-7.51823e-29
6.52526e-29
-8.71259e-29
8.21143e-29
-1.02432e-28
1.02141e-28
-1.21692e-28
1.26095e-28
-1.45647e-28
1.54883e-28
-1.7522e-28
1.89599e-28
-2.11546e-28
2.31566e-28
-2.56016e-28
2.82396e-28
-3.10334e-28
3.4406e-28
-3.76579e-28
4.18971e-28
-4.57292e-28
5.10083e-28
-5.55572e-28
6.21007e-28
-6.752e-28
7.56131e-28
-8.20786e-28
9.20765e-28
-9.9794e-28
1.12129e-27
-1.21347e-27
1.36534e-27
-1.4756e-27
1.66199e-27
-1.79422e-27
2.02201e-27
-2.18113e-27
2.45822e-27
-2.65025e-27
2.98595e-27
-3.21776e-27
3.62354e-27
-3.90193e-27
4.39306e-27
-4.72255e-27
5.32083e-27
-5.6992e-27
6.4375e-27
-6.8474e-27
7.77697e-27
-8.17044e-27
9.37272e-27
-9.64242e-27
1.12487e-26
-1.11745e-26
1.33999e-26
-1.255e-26
1.57538e-26
-1.33068e-26
1.8097e-26
-1.25494e-26
1.99487e-26
-8.7273e-27
2.0394e-26
3.70181e-28
1.80077e-26
1.67169e-26
3.99892e-26
8.68656e-30
-6.20825e-29
1.77057e-29
-6.44768e-29
2.74125e-29
-6.93539e-29
3.81833e-29
-7.69036e-29
5.04351e-29
-8.74187e-29
6.46404e-29
-1.01307e-28
8.13439e-29
-1.19104e-28
1.01183e-28
-1.415e-28
1.24912e-28
-1.69356e-28
1.5343e-28
-2.03744e-28
1.8782e-28
-2.45985e-28
2.29393e-28
-2.97695e-28
2.79746e-28
-3.60855e-28
3.40831e-28
-4.37882e-28
4.15039e-28
-5.31729e-28
5.05298e-28
-6.45999e-28
6.15183e-28
-7.8509e-28
7.49045e-28
-9.54365e-28
9.12144e-28
-1.16035e-27
1.11081e-27
-1.41097e-27
1.3526e-27
-1.71581e-27
1.64651e-27
-2.08638e-27
2.00324e-27
-2.53643e-27
2.43552e-27
-3.08218e-27
2.95858e-27
-3.7425e-27
3.59071e-27
-4.53876e-27
4.354e-27
-5.49415e-27
5.2749e-27
-6.63189e-27
6.38457e-27
-7.97089e-27
7.7181e-27
-9.51672e-27
9.31143e-27
-1.12427e-26
1.11937e-26
-1.30522e-26
1.33696e-26
-1.47046e-26
1.57841e-26
-1.56798e-26
1.82499e-26
-1.49538e-26
2.03126e-26
-1.07134e-26
2.10479e-26
-2.80607e-28
1.89386e-26
1.89189e-26
4.62789e-26
8.59083e-30
-7.06776e-29
1.75107e-29
-7.34031e-29
2.71105e-29
-7.8955e-29
3.77626e-29
-8.75498e-29
4.98796e-29
-9.95205e-29
6.39285e-29
-1.15331e-28
8.04481e-29
-1.35593e-28
1.00069e-28
-1.6109e-28
1.23536e-28
-1.92804e-28
1.5174e-28
-2.31955e-28
1.85751e-28
-2.80044e-28
2.26867e-28
-3.38915e-28
2.76665e-28
-4.10819e-28
3.37077e-28
-4.9851e-28
4.10469e-28
-6.05346e-28
4.99734e-28
-7.35431e-28
6.08412e-28
-8.93774e-28
7.40805e-28
-1.08648e-27
9.0212e-28
-1.32099e-27
1.09861e-27
-1.60632e-27
1.33777e-27
-1.95341e-27
1.62851e-27
-2.37539e-27
1.98141e-27
-2.88792e-27
2.40911e-27
-3.50954e-27
2.92673e-27
-4.26178e-27
3.5525e-27
-5.16913e-27
4.30849e-27
-6.25829e-27
5.22134e-27
-7.55625e-27
6.32274e-27
-9.08571e-27
7.64906e-27
-1.08553e-26
9.23906e-27
-1.28392e-26
1.11276e-26
-1.49357e-26
1.33306e-26
-1.6886e-26
1.58132e-26
-1.81211e-26
1.84195e-26
-1.75e-26
2.07299e-26
-1.29497e-26
2.18158e-26
-1.28636e-27
2.00329e-26
2.07902e-26
5.28545e-26
8.48186e-30
-7.91636e-29
1.72886e-29
-8.22161e-29
2.67667e-29
-8.84344e-29
3.72838e-29
-9.80609e-29
4.92472e-29
-1.11469e-28
6.3118e-29
-1.29178e-28
7.94282e-29
-1.51873e-28
9.88003e-29
-1.80432e-28
1.2197e-28
-2.15954e-28
1.49817e-28
-2.59807e-28
1.83397e-28
-3.13672e-28
2.2399e-28
-3.79612e-28
2.73157e-28
-4.6015e-28
3.32804e-28
-5.58368e-28
4.05265e-28
-6.7803e-28
4.93401e-28
-8.23731e-28
6.00704e-28
-1.00108e-27
7.31425e-28
-1.21693e-27
8.90706e-28
-1.4796e-27
1.08473e-27
-1.79923e-27
1.32089e-27
-2.18805e-27
1.608e-27
-2.6608e-27
1.95655e-27
-3.23507e-27
2.37902e-27
-3.93167e-27
2.89043e-27
-4.77483e-27
3.50893e-27
-5.79215e-27
4.25657e-27
-7.01391e-27
5.16016e-27
-8.47108e-27
6.25196e-27
-1.01905e-26
7.5697e-27
-1.21848e-26
9.1552e-27
-1.44305e-26
1.10496e-26
-1.68244e-26
1.32812e-26
-1.90955e-26
1.5838e-26
-2.06368e-26
1.86016e-26
-2.02046e-26
2.11965e-26
-1.54732e-26
2.26989e-26
-2.71325e-27
2.13155e-26
2.22576e-26
5.97789e-26
8.35981e-30
-8.75275e-29
1.70398e-29
-9.09024e-29
2.63816e-29
-9.77774e-29
3.67475e-29
-1.08421e-28
4.85388e-29
-1.23245e-28
6.22101e-29
-1.42825e-28
7.82859e-29
-1.67919e-28
9.73794e-29
-1.99496e-28
1.20216e-28
-2.38772e-28
1.47662e-28
-2.87259e-28
1.80759e-28
-3.46816e-28
2.20769e-28
-4.19724e-28
2.69229e-28
-5.08771e-28
3.28017e-28
-6.17366e-28
3.99437e-28
-7.49669e-28
4.86307e-28
-9.10762e-28
5.9207e-28
-1.10685e-27
7.20918e-28
-1.34551e-27
8.77921e-28
-1.63595e-27
1.06918e-27
-1.98938e-27
1.30198e-27
-2.41935e-27
1.58503e-27
-2.94218e-27
1.92868e-27
-3.57736e-27
2.34529e-27
-4.34796e-27
2.84974e-27
-5.28089e-27
3.46006e-27
-6.4069e-27
4.19828e-27
-7.75995e-27
5.09139e-27
-9.37513e-27
6.17219e-27
-1.12839e-26
7.47987e-27
-1.35036e-26
9.05944e-27
-1.60152e-26
1.09587e-26
-1.87173e-26
1.32196e-26
-2.13337e-26
1.58553e-26
-2.32315e-26
1.87908e-26
-2.30824e-26
2.17069e-26
-1.83207e-26
2.36977e-26
-4.63362e-27
2.28162e-26
2.32185e-26
6.59063e-26
8.22488e-30
-9.57565e-29
1.67648e-29
-9.94484e-29
2.59559e-29
-1.0697e-28
3.61545e-29
-1.18614e-28
4.77556e-29
-1.34832e-28
6.12064e-29
-1.56253e-28
7.70228e-29
-1.83706e-28
9.58083e-29
-2.18252e-28
1.18277e-28
-2.61222e-28
1.4528e-28
-3.14268e-28
1.77843e-28
-3.79426e-28
2.17207e-28
-4.59189e-28
2.64885e-28
-5.56608e-28
3.22725e-28
-6.75412e-28
3.92993e-28
-8.20153e-28
4.78463e-28
-9.96392e-28
5.82524e-28
-1.21092e-27
7.093e-28
-1.47202e-27
8.63784e-28
-1.78978e-27
1.05198e-27
-2.17648e-27
1.28107e-27
-2.64696e-27
1.55963e-27
-3.21909e-27
1.89786e-27
-3.91425e-27
2.30798e-27
-4.75775e-27
2.8047e-27
-5.77919e-27
3.40594e-27
-7.01249e-27
4.13368e-27
-8.49531e-27
5.01503e-27
-1.02671e-26
6.0834e-27
-1.23645e-26
7.37941e-27
-1.48103e-26
8.95136e-27
-1.75916e-26
1.08541e-26
-2.06129e-26
1.31437e-26
-2.36002e-26
1.58613e-26
-2.59083e-26
1.89813e-26
-2.61461e-26
2.22544e-26
-2.15284e-26
2.48118e-26
-7.12611e-27
2.45237e-26
2.35815e-26
7.36934e-26
8.07727e-30
-1.03838e-28
1.6464e-29
-1.07841e-28
2.54901e-29
-1.15997e-28
3.55058e-29
-1.28624e-28
4.68988e-29
-1.4621e-28
6.01083e-29
-1.69439e-28
7.5641e-29
-1.9921e-28
9.40895e-29
-2.36672e-28
1.16155e-28
-2.83269e-28
1.42674e-28
-3.40793e-28
1.74652e-28
-4.1145e-28
2.1331e-28
-4.97946e-28
2.60133e-28
-6.03588e-28
3.16936e-28
-7.32418e-28
3.85944e-28
-8.89375e-28
4.69882e-28
-1.08049e-27
5.7208e-28
-1.31312e-27
6.9659e-28
-1.59627e-27
8.48316e-28
-1.94087e-27
1.03316e-27
-2.36025e-27
1.25819e-27
-2.87053e-27
1.53182e-27
-3.49112e-27
1.86412e-27
-4.24524e-27
2.26712e-27
-5.16044e-27
2.75537e-27
-6.26899e-27
3.34663e-27
-7.608e-27
4.0628e-27
-9.21893e-27
4.93114e-27
-1.11458e-26
5.98557e-27
-1.34306e-26
7.26816e-27
-1.61028e-26
8.83051e-27
-1.91576e-26
1.07346e-26
-2.25091e-26
1.30514e-26
-2.58934e-26
1.58518e-26
-2.86682e-26
1.9166e-26
-2.94057e-26
2.28305e-26
-2.51309e-26
2.60401e-26
-1.02768e-26
2.65281e-26
2.31638e-26
7.91467e-26
7.9172e-30
-1.11759e-28
1.61378e-29
-1.16067e-28
2.4985e-29
-1.24845e-28
3.48023e-29
-1.38435e-28
4.59696e-29
-1.57364e-28
5.89175e-29
-1.82365e-28
7.41425e-29
-2.14406e-28
9.22256e-29
-2.54726e-28
1.13854e-28
-3.04879e-28
1.39847e-28
-3.66792e-28
1.71192e-28
-4.42841e-28
2.09084e-28
-5.35935e-28
2.54979e-28
-6.49637e-28
3.10657e-28
-7.88296e-28
3.78299e-28
-9.57226e-28
4.60576e-28
-1.16292e-27
5.60754e-28
-1.4133e-27
6.82805e-28
-1.71806e-27
8.3154e-28
-2.08898e-27
1.01275e-27
-2.54041e-27
1.23336e-27
-3.08972e-27
1.50165e-27
-3.75783e-27
1.82751e-27
-4.56981e-27
2.22278e-27
-5.55541e-27
2.70181e-27
-6.74954e-27
3.28219e-27
-8.19253e-27
3.98573e-27
-9.92971e-27
4.83975e-27
-1.20098e-26
5.87868e-27
-1.44807e-26
7.14597e-27
-1.73794e-26
8.69646e-27
-2.07111e-26
1.05992e-26
-2.44032e-26
1.29404e-26
-2.82104e-26
1.58223e-26
-3.15098e-26
1.93371e-26
-3.28675e-26
2.34247e-26
-2.91604e-26
2.73777e-26
-1.41774e-26
2.87673e-26
2.18402e-26
8.65132e-26
7.74493e-30
-1.19508e-28
1.57866e-29
-1.24115e-28
2.44415e-29
-1.33501e-28
3.40452e-29
-1.48033e-28
4.49695e-29
-1.68274e-28
5.76358e-29
-1.95009e-28
7.25297e-29
-2.29272e-28
9.02195e-29
-2.72388e-28
1.11377e-28
-3.26019e-28
1.36805e-28
-3.92226e-28
1.67469e-28
-4.73548e-28
2.04536e-28
-5.73099e-28
2.49433e-28
-6.94685e-28
3.039e-28
-8.42958e-28
3.70071e-28
-1.0236e-27
4.50561e-28
-1.24356e-27
5.48564e-28
-1.51131e-27
6.67968e-28
-1.83721e-27
8.13483e-28
-2.23389e-27
9.90776e-28
-2.71668e-27
1.20664e-27
-3.30418e-27
1.46918e-27
-4.01883e-27
1.78808e-27
-4.88747e-27
2.17501e-27
-5.94204e-27
2.64409e-27
-7.22011e-27
3.2127e-27
-8.76519e-27
3.90252e-27
-1.06266e-26
4.74091e-27
-1.28579e-26
5.76273e-27
-1.55132e-26
7.0127e-27
-1.86381e-26
8.54877e-27
-2.22493e-26
1.04469e-26
-2.62919e-26
1.28084e-26
-3.05472e-26
1.5768e-26
-3.44296e-26
1.94854e-26
-3.6534e-26
2.40241e-26
-3.36449e-26
2.88184e-26
-1.89262e-26
3.13541e-26
1.93666e-26
8.92015e-26
7.56072e-30
-1.27072e-28
1.54112e-29
-1.31971e-28
2.38602e-29
-1.41951e-28
3.32355e-29
-1.57403e-28
4.39001e-29
-1.78925e-28
5.62652e-29
-2.07352e-28
7.0805e-29
-2.43785e-28
8.80743e-29
-2.89631e-28
1.08729e-28
-3.46657e-28
1.33552e-28
-4.17055e-28
1.63487e-28
-5.03526e-28
1.99673e-28
-6.09379e-28
2.43502e-28
-7.38662e-28
2.96674e-28
-8.96322e-28
3.61273e-28
-1.0884e-27
4.39851e-28
-1.32229e-27
5.35528e-28
-1.607e-27
6.52101e-28
-1.95354e-27
7.94171e-28
-2.37536e-27
9.67276e-28
-2.88878e-27
1.17805e-27
-3.5136e-27
1.43443e-27
-4.2737e-27
1.7459e-27
-5.19772e-27
2.12389e-27
-6.31975e-27
2.58229e-27
-7.67996e-27
3.13825e-27
-9.32508e-27
3.81327e-27
-1.13084e-26
4.6347e-27
-1.36886e-26
5.63773e-27
-1.65264e-26
6.86826e-27
-1.98766e-26
8.38707e-27
-2.37694e-26
1.02767e-26
-2.81714e-26
1.26531e-26
-3.28985e-26
1.56839e-26
-3.7421e-26
1.9601e-26
-4.04025e-26
2.46129e-26
-3.86068e-26
3.03501e-26
-2.46251e-26
3.41472e-26
1.56282e-26
9.41392e-26
7.36486e-30
-1.34441e-28
1.5012e-29
-1.39623e-28
2.32421e-29
-1.50183e-28
3.23746e-29
-1.6653e-28
4.27631e-29
-1.893e-28
5.48079e-29
-2.19376e-28
6.89712e-29
-2.57921e-28
8.57932e-29
-3.06426e-28
1.05913e-28
-3.6676e-28
1.30093e-28
-4.41242e-28
1.59252e-28
-5.32728e-28
1.94502e-28
-6.4472e-28
2.37196e-28
-7.81501e-28
2.88991e-28
-9.48305e-28
3.51918e-28
-1.15153e-27
4.28462e-28
-1.39898e-27
5.21666e-28
-1.7002e-27
6.35229e-28
-2.06687e-27
7.73634e-28
-2.51318e-27
9.42283e-28
-3.05645e-27
1.14765e-27
-3.71763e-27
1.39747e-27
-4.52205e-27
1.70102e-27
-5.50009e-27
2.06948e-27
-6.68794e-27
2.51648e-27
-8.12837e-27
3.05891e-27
-9.87132e-27
3.71806e-27
-1.19741e-26
4.52119e-27
-1.45006e-26
5.50373e-27
-1.75185e-26
6.71254e-27
-2.10926e-26
8.21099e-27
-2.52684e-26
1.00876e-26
-3.00371e-26
1.24722e-26
-3.52577e-26
1.55646e-26
-4.04747e-26
1.96728e-26
-4.44645e-26
2.51722e-26
-4.40608e-26
3.19603e-26
-3.13824e-26
3.72876e-26
1.03573e-26
1.03894e-25
7.15764e-30
-1.41602e-28
1.45896e-29
-1.47061e-28
2.25882e-29
-1.58182e-28
3.14638e-29
-1.754e-28
4.156e-29
-1.99383e-28
5.32661e-29
-2.31061e-28
6.7031e-29
-2.7166e-28
8.33798e-29
-3.22749e-28
1.02934e-28
-3.86297e-28
1.26434e-28
-4.64748e-28
1.54773e-28
-5.61108e-28
1.8903e-28
-6.79067e-28
2.30523e-28
-8.23136e-28
2.80862e-28
-9.98827e-28
3.4202e-28
-1.21288e-27
4.16413e-28
-1.47351e-27
5.06999e-28
-1.7908e-27
6.17376e-28
-2.17701e-27
7.51904e-28
-2.64714e-27
9.15835e-28
-3.21943e-27
1.11547e-27
-3.91598e-27
1.35835e-27
-4.76351e-27
1.65351e-27
-5.7941e-27
2.01186e-27
-7.04603e-27
2.44676e-27
-8.56464e-27
2.9748e-27
-1.0403e-26
3.617e-27
-1.26226e-26
4.40047e-27
-1.52925e-26
5.36076e-27
-1.84879e-26
6.54552e-27
-2.2284e-26
8.02024e-27
-2.67429e-26
9.87881e-27
-3.1884e-26
1.22636e-26
-3.76166e-26
1.54051e-26
-4.35783e-26
1.9689e-26
-4.8705e-26
2.56794e-26
-5.00103e-26
3.36299e-26
-3.93098e-26
4.10286e-26
3.01397e-27
1.03073e-25
6.93938e-30
-1.48545e-28
1.41447e-29
-1.54271e-28
2.18995e-29
-1.65938e-28
3.05045e-29
-1.84e-28
4.02929e-29
-2.09159e-28
5.16421e-29
-2.4239e-28
6.49874e-29
-2.8498e-28
8.08379e-29
-3.38574e-28
9.97957e-29
-4.05239e-28
1.2258e-28
-4.87537e-28
1.50054e-28
-5.88624e-28
1.83268e-28
-7.12368e-28
2.23496e-28
-8.63502e-28
2.723e-28
-1.04781e-27
3.31594e-28
-1.27236e-27
4.03722e-28
-1.54578e-27
4.9155e-28
-1.87863e-27
5.98571e-28
-2.28381e-27
7.29012e-28
-2.77703e-27
8.87973e-28
-3.37746e-27
1.08157e-27
-4.10832e-27
1.31712e-27
-4.99768e-27
1.60343e-27
-6.07929e-27
1.95112e-27
-7.39348e-27
2.37323e-27
-8.98808e-27
2.88602e-27
-1.09194e-26
3.51021e-27
-1.32528e-26
4.27265e-27
-1.6063e-26
5.20892e-27
-1.94326e-26
6.36716e-27
-2.3448e-26
7.8146e-27
-2.81893e-26
9.64951e-27
-3.37065e-26
1.20251e-26
-3.99661e-26
1.52e-26
-4.67163e-26
1.96369e-26
-5.31013e-26
2.61075e-26
-5.64449e-26
3.53229e-26
-4.851e-26
4.50306e-26
-6.63788e-27
1.07404e-25
6.71042e-30
-1.55258e-28
1.36781e-29
-1.61244e-28
2.1177e-29
-1.73438e-28
2.94981e-29
-1.92316e-28
3.89637e-29
-2.18612e-28
4.99385e-29
-2.53345e-28
6.28436e-29
-2.97861e-28
7.81713e-29
-3.53878e-28
9.65038e-29
-4.23557e-28
1.18536e-28
-5.09575e-28
1.45105e-28
-6.15232e-28
1.77222e-28
-7.4457e-28
2.16123e-28
-9.02537e-28
2.63318e-28
-1.09518e-27
3.20657e-28
-1.32988e-27
3.90408e-28
-1.61566e-27
4.75343e-28
-1.96357e-27
5.78841e-28
-2.38709e-27
7.04995e-28
-2.90266e-27
8.58739e-28
-3.53031e-27
1.04599e-27
-4.29437e-27
1.27386e-27
-5.22422e-27
1.55086e-27
-6.35523e-27
1.88733e-27
-7.72971e-27
2.29597e-27
-9.39801e-27
2.79268e-27
-1.14195e-26
3.3978e-27
-1.38637e-26
4.13787e-27
-1.68107e-26
5.0483e-27
-2.03509e-26
6.17751e-27
-2.45824e-26
7.59391e-27
-2.96039e-26
9.39912e-27
-3.54987e-26
1.17551e-26
-4.22959e-26
1.49446e-26
-4.98699e-26
1.95032e-26
-5.76224e-26
2.6425e-26
-6.33356e-26
3.69979e-26
-5.90754e-26
4.95919e-26
-1.91733e-26
1.18471e-25
6.47112e-30
-1.61733e-28
1.31903e-29
-1.67967e-28
2.04218e-29
-1.8067e-28
2.84463e-29
-2.00336e-28
3.75743e-29
-2.27728e-28
4.81579e-29
-2.6391e-28
6.06029e-29
-3.10282e-28
7.53841e-29
-3.68636e-28
9.3063e-29
-4.41221e-28
1.1431e-28
-5.30827e-28
1.39931e-28
-6.40891e-28
1.70903e-28
-7.75625e-28
2.08418e-28
-9.40181e-28
2.5393e-28
-1.14086e-27
3.09226e-28
-1.38535e-27
3.76491e-28
-1.68306e-27
4.58403e-28
-2.04549e-27
5.58218e-28
-2.48669e-27
6.79889e-28
-3.02381e-27
8.28176e-28
-3.67773e-27
1.0088e-27
-4.47382e-27
1.22862e-27
-5.44275e-27
1.49588e-27
-6.62146e-27
1.8206e-27
-8.05421e-27
2.21511e-27
-9.79376e-27
2.69491e-27
-1.19026e-26
3.27992e-27
-1.44542e-26
3.99626e-27
-1.75343e-26
4.87904e-27
-2.12411e-26
5.97665e-27
-2.56845e-26
7.35812e-27
-3.0983e-26
9.12724e-27
-3.72543e-26
1.14521e-26
-4.45945e-26
1.46345e-26
-5.30175e-26
1.92747e-26
-6.22283e-26
2.65955e-26
-7.06301e-26
3.85942e-26
-7.10741e-26
5.50969e-26
-3.56123e-26
1.12966e-25
6.22184e-30
-1.67958e-28
1.26822e-29
-1.74432e-28
1.96352e-29
-1.87624e-28
2.73506e-29
-2.08046e-28
3.61271e-29
-2.36493e-28
4.6303e-29
-2.74068e-28
5.82688e-29
-3.22225e-28
7.24807e-29
-3.82825e-28
8.94787e-29
-4.58204e-28
1.09907e-28
-5.51261e-28
1.34542e-28
-6.65563e-28
1.64321e-28
-8.05484e-28
2.00391e-28
-9.76375e-28
2.44151e-28
-1.18478e-27
2.97317e-28
-1.43868e-27
3.61994e-28
-1.74786e-27
4.40754e-28
-2.12426e-27
5.36734e-28
-2.58247e-27
6.53732e-28
-3.14031e-27
7.96332e-28
-3.8195e-27
9.70043e-28
-4.64641e-27
1.18147e-27
-5.65295e-27
1.43857e-27
-6.87758e-27
1.75102e-27
-8.36645e-27
2.13076e-27
-1.01747e-26
2.59285e-27
-1.23678e-26
3.15671e-27
-1.50234e-26
3.84799e-27
-1.82324e-26
4.7013e-27
-2.21011e-26
5.76471e-27
-2.67517e-26
7.10727e-27
-3.23224e-26
8.83363e-27
-3.89666e-26
1.11152e-26
-4.68499e-26
1.42661e-26
-5.61349e-26
1.89386e-26
-6.68701e-26
2.65779e-26
-7.82477e-26
4.0013e-26
-8.45166e-26
6.10397e-26
-5.65672e-26
1.13584e-25
5.96297e-30
-1.73924e-28
1.21545e-29
-1.80628e-28
1.88183e-29
-1.94288e-28
2.62127e-29
-2.15436e-28
3.46241e-29
-2.44894e-28
4.43768e-29
-2.83803e-28
5.58447e-29
-3.3367e-28
6.94655e-29
-3.96424e-28
8.57565e-29
-4.74482e-28
1.05335e-28
-5.70845e-28
1.28945e-28
-6.89208e-28
1.57485e-28
-8.34101e-28
1.92055e-28
-1.01106e-27
2.33994e-28
-1.22687e-27
2.8495e-28
-1.4898e-27
3.46938e-28
-1.80997e-27
4.22426e-28
-2.19975e-27
5.1442e-28
-2.67427e-27
6.26564e-28
-3.25198e-27
7.63256e-28
-3.9554e-27
9.29781e-28
-4.81186e-27
1.13248e-27
-5.85447e-27
1.37902e-27
-7.12317e-27
1.67869e-27
-8.66593e-27
2.04303e-27
-1.05402e-26
2.48663e-27
-1.28144e-26
3.02835e-27
-1.55701e-26
3.69324e-27
-1.89037e-26
4.51528e-27
-2.29294e-26
5.54188e-27
-2.77815e-26
6.8415e-27
-3.36183e-26
8.5183e-27
-4.0629e-26
1.07438e-26
-4.90493e-26
1.38367e-26
-5.91958e-26
1.84836e-26
-7.14897e-26
2.63273e-26
-8.60745e-26
4.11314e-26
-9.93351e-26
6.78446e-26
-8.31964e-26
9.30501e-26
5.69491e-30
-1.79621e-28
1.16082e-29
-1.86546e-28
1.79723e-29
-2.00653e-28
2.50344e-29
-2.22494e-28
3.30677e-29
-2.52916e-28
4.2382e-29
-2.931e-28
5.33346e-29
-3.44602e-28
6.63432e-29
-4.09412e-28
8.19019e-29
-4.90028e-28
1.00601e-28
-5.89549e-28
1.23149e-28
-7.11791e-28
1.50407e-28
-8.61432e-28
1.83422e-28
-1.0442e-27
2.23477e-28
-1.26708e-27
2.72143e-28
-1.53862e-27
3.31347e-28
-1.86929e-27
4.03445e-28
-2.27185e-27
4.91311e-28
-2.76194e-27
5.98427e-28
-3.35864e-27
7.28997e-28
-4.08521e-27
8.88076e-28
-4.96991e-27
1.08174e-27
-6.047e-27
1.3173e-27
-7.35784e-27
1.60372e-27
-8.95216e-27
1.95206e-27
-1.08896e-26
2.3764e-27
-1.32416e-26
2.89501e-27
-1.60933e-26
3.53221e-27
-1.95469e-26
4.3212e-27
-2.3724e-26
5.3084e-27
-2.87713e-26
6.56107e-27
-3.48668e-26
8.18149e-27
-4.22347e-26
1.0338e-26
-5.11799e-26
1.3345e-26
-6.21722e-26
1.79002e-26
-7.60214e-26
2.5797e-26
-9.39588e-26
4.17775e-26
-1.15337e-25
7.48937e-26
-1.16212e-25
7.36e-26
5.41806e-30
-1.85042e-28
1.10439e-29
-1.92175e-28
1.70987e-29
-2.06708e-28
2.38175e-29
-2.29208e-28
3.14603e-29
-2.60549e-28
4.0322e-29
-3.01946e-28
5.07422e-29
-3.55002e-28
6.31185e-29
-4.21768e-28
7.79211e-29
-5.04818e-28
9.57109e-29
-6.07343e-28
1.17163e-28
-7.33276e-28
1.43096e-28
-8.87435e-28
1.74507e-28
-1.07572e-27
2.12615e-28
-1.30533e-27
2.58916e-28
-1.58507e-27
3.15244e-28
-1.92573e-27
3.83841e-28
-2.34046e-27
4.67443e-28
-2.84537e-27
5.69364e-28
-3.46013e-27
6.93609e-28
-4.20872e-27
8.44992e-28
-5.12031e-27
1.0293e-27
-6.23024e-27
1.25353e-27
-7.58122e-27
1.52622e-27
-9.22468e-27
1.85798e-27
-1.12224e-26
2.26233e-27
-1.36486e-26
2.75686e-27
-1.65923e-26
3.36512e-27
-2.01607e-26
4.11931e-27
-2.44834e-26
5.06458e-27
-2.97186e-26
6.26635e-27
-3.60638e-26
7.82368e-27
-4.37772e-26
9.89826e-27
-5.32291e-26
1.2791e-26
-6.50361e-26
1.71827e-26
-8.03933e-26
2.4942e-26
-1.0171e-25
4.17434e-26
-1.32165e-25
8.2485e-26
-1.5683e-25
4.76978e-26
5.13286e-30
-1.90178e-28
1.04625e-29
-1.97509e-28
1.61987e-29
-2.12445e-28
2.25638e-29
-2.35569e-28
2.98045e-29
-2.6778e-28
3.81997e-29
-3.10326e-28
4.80715e-29
-3.64855e-28
5.97965e-29
-4.33474e-28
7.382e-29
-5.1883e-28
9.06736e-29
-6.24202e-28
1.10997e-28
-7.53631e-28
1.35565e-28
-9.1207e-28
1.65323e-28
-1.10558e-27
2.01425e-28
-1.34156e-27
2.4529e-28
-1.62908e-27
2.98655e-28
-1.97919e-27
3.63645e-28
-2.40545e-27
4.42852e-28
-2.92441e-27
5.3942e-28
-3.55629e-27
6.57146e-28
-4.32576e-27
8.00595e-28
-5.26283e-27
9.75263e-28
-6.4039e-27
1.18779e-27
-7.79295e-27
1.44631e-27
-9.48304e-27
1.76094e-27
-1.1538e-26
2.14458e-27
-1.40348e-26
2.61413e-27
-1.7066e-26
3.19222e-27
-2.07439e-26
3.90989e-27
-2.52057e-26
4.81077e-27
-3.0621e-26
5.95782e-27
-3.72058e-26
7.4456e-27
-4.525e-26
9.42598e-27
-5.51846e-26
1.21767e-26
-6.77596e-26
1.63301e-26
-8.45305e-26
2.37239e-26
-1.09099e-25
4.07581e-26
-1.49232e-25
9.06912e-26
-2.06611e-25
3.16561e-26
4.83975e-30
-1.9502e-28
9.8651e-30
-2.02538e-28
1.52737e-29
-2.17854e-28
2.12754e-29
-2.41567e-28
2.81026e-29
-2.74598e-28
3.60185e-29
-3.18227e-28
4.53267e-29
-3.74145e-28
5.63823e-29
-4.44512e-28
6.96051e-29
-5.32041e-28
8.54964e-29
-6.40098e-28
1.04659e-28
-7.72824e-28
1.27825e-28
-9.35299e-28
1.55883e-28
-1.13374e-27
1.89925e-28
-1.37573e-27
2.31286e-28
-1.67057e-27
2.81604e-28
-2.02961e-27
3.42887e-28
-2.46674e-27
4.17577e-28
-2.99893e-27
5.08641e-28
-3.64696e-27
6.19662e-28
-4.43613e-27
7.54952e-28
-5.39725e-27
9.19701e-28
-6.56769e-27
1.12019e-27
-7.99269e-27
1.36411e-27
-9.72682e-27
1.66107e-27
-1.18359e-26
2.02333e-27
-1.43994e-26
2.46701e-27
-1.75135e-26
3.01374e-27
-2.12954e-26
3.69328e-27
-2.58894e-26
4.54738e-27
-3.14762e-26
5.63605e-27
-3.82891e-26
7.04821e-27
-4.66473e-26
8.92297e-27
-5.7035e-26
1.15058e-26
-7.0317e-26
1.53473e-26
-8.83594e-26
2.21187e-26
-1.1587e-25
3.84646e-26
-1.65616e-25
1.00217e-25
-2.68175e-25
-3.93856e-25
4.53918e-30
-1.99562e-28
9.25244e-30
-2.07254e-28
1.43252e-29
-2.22927e-28
1.99542e-29
-2.47193e-28
2.63574e-29
-2.80992e-28
3.37818e-29
-3.25638e-28
4.2512e-29
-3.82858e-28
5.28811e-29
-4.54864e-28
6.52828e-29
-5.44433e-28
8.01873e-29
-6.55007e-28
9.81602e-29
-7.90825e-28
1.19887e-28
-9.57085e-28
1.46203e-28
-1.16015e-27
1.78131e-28
-1.40778e-27
2.16924e-28
-1.70949e-27
2.64119e-28
-2.0769e-27
3.21599e-28
-2.52422e-27
3.91656e-28
-3.06884e-27
4.77074e-28
-3.73201e-27
5.81217e-28
-4.53966e-27
7.08134e-28
-5.52334e-27
8.62701e-28
-6.72136e-27
1.05082e-27
-8.18011e-27
1.27975e-27
-9.95561e-27
1.55852e-27
-1.21156e-26
1.89877e-27
-1.47419e-26
2.31573e-27
-1.7934e-26
2.82998e-27
-2.1814e-26
3.46981e-27
-2.65329e-26
4.27486e-27
-3.22819e-26
5.30172e-27
-3.93104e-26
6.63269e-27
-4.79635e-26
8.39169e-27
-5.87705e-26
1.07841e-26
-7.26857e-26
1.42468e-26
-9.1813e-26
2.01287e-26
-1.21754e-25
3.43627e-26
-1.79893e-25
9.52163e-26
-3.28791e-25
-7.88389e-25
4.23161e-30
-2.03795e-28
8.62552e-30
-2.11651e-28
1.33546e-29
-2.27657e-28
1.86022e-29
-2.52437e-28
2.45716e-29
-2.86953e-28
3.1493e-29
-3.32546e-28
3.96317e-29
-3.9098e-28
4.92983e-29
-4.64515e-28
6.08599e-29
-5.55985e-28
7.47546e-29
-6.68905e-28
9.15098e-29
-8.07607e-28
1.11765e-28
-9.77396e-28
1.36298e-28
-1.18477e-27
1.66062e-28
-1.43766e-27
2.02228e-28
-1.74578e-27
2.46226e-28
-2.12099e-27
2.99814e-28
-2.57781e-27
3.65129e-28
-3.13401e-27
4.44768e-28
-3.81131e-27
5.4187e-28
-4.63619e-27
6.60213e-28
-5.64092e-27
8.04351e-28
-6.86467e-27
9.79803e-28
-8.35491e-27
1.19335e-27
-1.0169e-26
1.45347e-27
-1.23765e-26
1.77108e-27
-1.50615e-26
2.16053e-27
-1.83268e-26
2.64123e-27
-2.22986e-26
3.23985e-27
-2.71348e-26
3.99372e-27
-3.3036e-26
4.95559e-27
-4.02665e-26
6.20041e-27
-4.91939e-26
7.83507e-27
-6.03826e-26
1.0019e-26
-7.48478e-26
1.30491e-26
-9.48374e-26
1.78029e-26
-1.26513e-25
2.84058e-26
-1.90545e-25
7.68397e-26
-3.76963e-25
-1.18588e-24
3.91751e-30
-2.07715e-28
7.98531e-30
-2.15722e-28
1.23634e-29
-2.32035e-28
1.72215e-29
-2.57292e-28
2.27479e-29
-2.92472e-28
2.91556e-29
-3.38942e-28
3.66903e-29
-3.985e-28
4.56395e-29
-4.7345e-28
5.6343e-29
-5.66679e-28
6.92065e-29
-6.81773e-28
8.47182e-29
-8.23143e-28
1.0347e-28
-9.962e-28
1.26182e-28
-1.20756e-27
1.53738e-28
-1.46532e-27
1.87219e-28
-1.77937e-27
2.27953e-28
-2.1618e-27
2.77565e-28
-2.62743e-27
3.38037e-28
-3.19435e-27