/*--------------------------------*- C++ -*----------------------------------*\
| =========                 |                                                 |
| \\      /  F ield         | OpenFOAM: The Open Source CFD Toolbox           |
|  \\    /   O peration     | Version:  4.1                                   |
|   \\  /    A nd           | Web:      www.OpenFOAM.org                      |
|    \\/     M anipulation  |                                                 |
\*---------------------------------------------------------------------------*/
FoamFile
{
    version     2.0;
    format      ascii;
    class       volVectorField;
    location    "8";
    object      U;
}
// * * * * * * * * * * * * * * * * * * * * * * * * * * * * * * * * * * * * * //

dimensions      [0 1 -1 0 0 0 0];

internalField   nonuniform List<vector> 
1705
(
(-1.12213e-60 -5.59264e-28 -8.34454e-30)
(-9.71183e-60 -2.56837e-28 1.88865e-29)
(4.72723e-60 -5.71062e-28 2.77786e-29)
(3.34625e-57 -8.22216e-28 5.22517e-30)
(1.07876e-54 -5.45755e-28 -1.83152e-29)
(2.26515e-52 -2.72547e-28 6.11132e-29)
(1.07982e-50 -6.23727e-28 1.86964e-29)
(2.66069e-48 -8.44864e-28 -1.25798e-29)
(3.96205e-46 -5.41258e-28 -2.86996e-29)
(1.18068e-43 -3.0385e-28 1.06981e-28)
(3.93427e-46 -6.92284e-28 8.1004e-30)
(2.11139e-48 -5.78502e-28 -1.16917e-29)
(4.3889e-50 -3.52215e-28 1.59894e-28)
(7.48818e-52 -7.64414e-28 3.54736e-29)
(1.5461e-49 -9.45203e-28 -2.06543e-30)
(2.93374e-47 -6.15684e-28 -2.49274e-29)
(1.79212e-46 -4.26503e-28 2.24797e-28)
(1.70741e-43 -8.90226e-28 2.47962e-29)
(1.6187e-45 -6.99637e-28 -5.73227e-30)
(2.83621e-47 -5.21911e-28 3.12196e-28)
(7.84212e-48 -1.02765e-27 6.43065e-29)
(1.92754e-45 -1.15676e-27 1.21444e-29)
(2.6344e-43 -7.92928e-28 -2.33155e-29)
(2.01577e-46 -6.52544e-28 4.19179e-28)
(1.18852e-47 -1.23751e-27 5.32156e-29)
(-4.73423e-45 -1.32278e-27 -1.42603e-29)
(-4.97136e-43 -9.18805e-28 -4.68189e-29)
(2.23775e-44 -8.2003e-28 5.55799e-28)
(-2.60067e-43 -1.50361e-27 3.49763e-29)
(-2.53042e-45 -1.11644e-27 -2.05083e-29)
(-4.74214e-46 -1.02685e-27 7.57913e-28)
(-5.21572e-43 -1.81825e-27 1.0456e-28)
(-8.41345e-45 -1.84496e-27 3.43937e-30)
(-5.48597e-43 -1.34512e-27 -5.34368e-29)
(1.92038e-44 -1.30663e-27 1.00246e-27)
(1.00958e-42 -2.27441e-27 8.46699e-29)
(7.27468e-40 -1.67851e-27 -1.08423e-29)
(3.02412e-37 -1.65528e-27 1.37093e-27)
(1.5703e-35 -2.82744e-27 2.0207e-28)
(8.69979e-33 -2.81918e-27 1.28026e-28)
(8.419e-32 -3.05747e-27 9.279e-27)
(7.70993e-32 -3.94628e-27 9.36821e-27)
(-2.63313e-32 -3.15307e-27 9.37665e-27)
(-8.26729e-30 3.16045e-26 1.2689e-26)
(1.61597e-30 -9.94787e-28 6.61327e-27)
(-8.24609e-30 -3.46782e-26 1.21125e-26)
(-3.67002e-32 -5.83363e-28 9.50564e-27)
(3.96042e-32 2.10039e-28 9.44816e-27)
(-3.84496e-31 -6.58675e-28 9.81651e-27)
(-3.69986e-31 -9.6885e-28 9.82404e-27)
(-3.785e-31 -1.87617e-27 9.7556e-27)
(-6.70834e-31 -1.12607e-27 9.80965e-27)
(-2.31059e-29 3.35229e-26 1.29813e-26)
(4.33867e-30 4.90603e-28 6.88311e-27)
(-2.30095e-29 -3.30558e-26 1.25888e-26)
(-8.24906e-32 1.19051e-27 9.87997e-27)
(8.04809e-31 1.91128e-27 9.91609e-27)
(2.70108e-31 9.71488e-28 9.99813e-27)
(2.63304e-31 6.18304e-28 1.00212e-26)
(2.75127e-31 -3.27585e-28 1e-26)
(1.29532e-30 3.77868e-28 1.00914e-26)
(8.05347e-29 3.45914e-26 1.30784e-26)
(-1.54595e-29 1.49786e-27 6.83795e-27)
(7.95855e-29 -3.15899e-26 1.29064e-26)
(3.75129e-31 2.41315e-27 9.52758e-27)
(2.62e-31 3.01912e-27 9.51634e-27)
(2.68217e-31 2.0047e-27 9.61475e-27)
(2.74669e-31 1.57884e-27 9.66726e-27)
(2.77659e-31 5.75007e-28 9.67663e-27)
(-8.14987e-33 1.16775e-27 9.78162e-27)
(-2.21356e-29 3.36804e-26 1.24501e-26)
(4.62763e-30 6.57206e-27 5.98527e-27)
(-2.545e-29 -2.50789e-26 1.01976e-26)
(-5.53195e-31 2.13532e-27 7.86383e-27)
(-2.37776e-31 2.34046e-27 7.87029e-27)
(-2.37007e-31 1.10592e-27 7.95644e-27)
(-2.39918e-31 3.95265e-28 7.98316e-27)
(-2.44915e-31 -5.83612e-28 7.96481e-27)
(-4.28878e-31 -8.36846e-28 7.95775e-27)
(-1.47221e-29 1.38237e-26 8.95547e-27)
(9.4647e-31 1.19467e-26 7.20016e-28)
(7.05122e-35 -3.99605e-28 -2.07289e-28)
(3.81002e-36 -4.28715e-28 -2.93131e-31)
(9.24285e-40 -3.02576e-28 -1.81894e-28)
(1.83045e-41 -3.35863e-28 -1.53143e-29)
(7.75288e-45 -3.23738e-28 -1.63174e-28)
(1.82697e-47 -2.32448e-28 -1.21265e-28)
(4.00307e-46 -2.29094e-28 -4.90311e-30)
(4.24764e-43 -2.44939e-28 -1.11153e-28)
(-3.99084e-43 -1.68962e-28 -8.47101e-29)
(-4.23757e-46 -1.7945e-28 3.46086e-32)
(-8.62854e-48 -1.31516e-28 -8.04509e-29)
(1.7935e-46 -1.57884e-28 -7.44357e-30)
(2.54862e-43 -1.78267e-28 -7.65965e-29)
(-3.82307e-43 -1.0515e-28 -5.94876e-29)
(-4.13104e-46 -1.28099e-28 -3.71064e-30)
(-7.36185e-47 -9.65807e-29 -5.73803e-29)
(-1.96275e-43 -1.19011e-28 -8.97711e-30)
(3.45937e-43 -1.35958e-28 -5.6064e-29)
(-3.576e-43 -6.37399e-29 -4.40832e-29)
(-3.86941e-46 -9.80208e-29 -5.51489e-30)
(-1.50897e-47 -1.17613e-28 -4.26162e-29)
(-1.43287e-47 -4.97919e-29 -3.47357e-29)
(-3.69471e-46 -8.09707e-29 -2.23632e-30)
(-3.35809e-43 -6.37211e-29 -3.36423e-29)
(-3.69771e-46 -7.83444e-29 -5.47132e-30)
(-1.44115e-47 -8.52974e-29 -3.24357e-29)
(-1.45054e-47 -3.03062e-29 -2.65488e-29)
(-3.74844e-46 -5.43848e-29 -2.50543e-30)
(-3.25798e-43 -4.39988e-29 -2.60797e-29)
(-7.31941e-46 -5.16601e-29 -4.37006e-30)
(-3.18914e-43 -5.30382e-29 -2.53993e-29)
(-1.26551e-46 -1.68273e-29 -2.13644e-29)
(-3.79269e-46 -3.14023e-29 -1.93146e-30)
(-3.29721e-43 -3.44466e-29 -2.10167e-29)
(-1.17701e-46 -1.15801e-29 -1.88953e-29)
(-6.67032e-48 -7.32917e-30 -1.30361e-31)
(-1.34952e-47 -8.6136e-30 -1.92685e-29)
(-3.42006e-46 -3.14763e-30 3.38108e-31)
(-2.99506e-43 1.4365e-30 -1.93419e-29)
(-2.79201e-277 2.9906e-33 -1.4953e-32)
(-6.26518e-271 3.10687e-33 -4.54303e-32)
(-1.377e-264 3.34323e-33 -7.76625e-32)
(-2.96234e-258 3.7086e-33 -1.1291e-31)
(-6.23344e-252 4.21685e-33 -1.52539e-31)
(-1.28201e-245 4.88721e-33 -1.98079e-31)
(-2.57506e-239 5.74498e-33 -2.51281e-31)
(-5.04719e-233 6.82261e-33 -3.14179e-31)
(-9.64486e-227 8.1611e-33 -3.8917e-31)
(-1.79522e-220 9.81176e-33 -4.791e-31)
(-3.25143e-214 1.18385e-32 -5.87382e-31)
(-5.72403e-208 1.43206e-32 -7.18139e-31)
(-9.7836e-202 1.73561e-32 -8.76378e-31)
(-1.62154e-195 2.10654e-32 -1.06821e-30)
(-2.60261e-189 2.55961e-32 -1.3011e-30)
(-4.03942e-183 3.11269e-32 -1.58421e-30)
(-6.05315e-177 3.78733e-32 -1.92871e-30)
(-8.74303e-171 4.60932e-32 -2.34824e-30)
(-1.21496e-164 5.60932e-32 -2.85931e-30)
(-1.62108e-158 6.82372e-32 -3.48183e-30)
(-2.0722e-152 8.29568e-32 -4.23964e-30)
(-2.53153e-146 1.00766e-31 -5.16116e-30)
(-2.94772e-140 1.22279e-31 -6.28013e-30)
(-3.26162e-134 1.48237e-31 -7.63661e-30)
(-3.41793e-128 1.79529e-31 -9.2782e-30)
(-3.37925e-122 2.17206e-31 -1.12616e-29)
(-3.13856e-116 2.62457e-31 -1.36545e-29)
(-2.72484e-110 3.16508e-31 -1.65364e-29)
(-2.19868e-104 3.80358e-31 -1.99994e-29)
(-1.63789e-98 4.5422e-31 -2.41434e-29)
(-1.11752e-92 5.36376e-31 -2.90641e-29)
(-6.91705e-87 6.21e-31 -3.48229e-29)
(-3.83883e-81 6.94198e-31 -4.13867e-29)
(-1.88245e-75 7.27417e-31 -4.85114e-29)
(-8.0043e-70 6.68021e-31 -5.55461e-29)
(-2.87835e-64 4.30728e-31 -6.11442e-29)
(-8.45584e-59 -9.33457e-32 -6.29807e-29)
(-1.92914e-53 -9.73593e-31 -5.78302e-29)
(-3.15396e-48 -2.1378e-30 -4.36055e-29)
(-1.13106e-280 8.97031e-33 -1.49369e-32)
(-2.52487e-274 9.3179e-33 -4.53822e-32)
(-5.52016e-268 1.0025e-32 -7.7581e-32)
(-1.18123e-261 1.11186e-32 -1.12791e-31)
(-2.47219e-255 1.26407e-32 -1.52378e-31)
(-5.05674e-249 1.46495e-32 -1.97869e-31)
(-1.01009e-242 1.72217e-32 -2.51014e-31)
(-1.9687e-236 2.04555e-32 -3.13846e-31)
(-3.74068e-230 2.44746e-32 -3.88758e-31)
(-6.9224e-224 2.94334e-32 -4.78593e-31)
(-1.24641e-217 3.55234e-32 -5.86761e-31)
(-2.18117e-211 4.29807e-32 -7.17379e-31)
(-3.70545e-205 5.20957e-32 -8.75447e-31)
(-6.10343e-199 6.32247e-32 -1.06707e-30)
(-9.7343e-193 7.68023e-32 -1.29971e-30)
(-1.50108e-186 9.33579e-32 -1.5825e-30)
(-2.23454e-180 1.13532e-31 -1.92663e-30)
(-3.20566e-174 1.38099e-31 -2.34571e-30)
(-4.42367e-168 1.67986e-31 -2.85624e-30)
(-5.86001e-162 2.04308e-31 -3.4781e-30)
(-7.43521e-156 2.48398e-31 -4.23514e-30)
(-9.01347e-150 3.01849e-31 -5.15573e-30)
(-1.04113e-143 3.66566e-31 -6.2736e-30)
(-1.14234e-137 4.44822e-31 -7.62876e-30)
(-1.18653e-131 5.39299e-31 -9.2688e-30)
(-1.16214e-125 6.53098e-31 -1.12504e-29)
(-1.06859e-119 7.89644e-31 -1.36411e-29)
(-9.17741e-114 9.52365e-31 -1.65207e-29)
(-7.31825e-108 1.14394e-30 -1.99813e-29)
(-5.38067e-102 1.36466e-30 -2.41236e-29)
(-3.61726e-96 1.60918e-30 -2.90444e-29)
(-2.20103e-90 1.86014e-30 -3.48077e-29)
(-1.19696e-84 2.07649e-30 -4.13847e-29)
(-5.7243e-79 2.17367e-30 -4.85393e-29)
(-2.35625e-73 1.99493e-30 -5.56312e-29)
(-8.10091e-68 1.28488e-30 -6.13248e-29)
(-2.22299e-62 -2.85565e-31 -6.32906e-29)
(-4.50242e-57 -2.92998e-30 -5.82657e-29)
(-5.64421e-52 -6.25293e-30 -4.37167e-29)
(1.49993e-278 1.49391e-32 -1.48907e-32)
(3.34432e-272 1.55166e-32 -4.52418e-32)
(7.3028e-266 1.66919e-32 -7.73412e-32)
(1.56074e-259 1.85104e-32 -1.12443e-31)
(3.2623e-253 2.10424e-32 -1.51907e-31)
(6.66422e-247 2.43854e-32 -1.97258e-31)
(1.32943e-240 2.86682e-32 -2.5024e-31)
(2.58769e-234 3.40555e-32 -3.12879e-31)
(4.91023e-228 4.07545e-32 -3.8756e-31)
(9.0746e-222 4.90228e-32 -4.77119e-31)
(1.63174e-215 5.91787e-32 -5.84953e-31)
(2.85172e-209 7.16132e-32 -7.15168e-31)
(4.83832e-203 8.68057e-32 -8.72747e-31)
(7.95933e-197 1.05342e-31 -1.06377e-30)
(1.26788e-190 1.27939e-31 -1.29569e-30)
(1.95286e-184 1.55467e-31 -1.57761e-30)
(2.90392e-178 1.88988e-31 -1.92068e-30)
(4.16184e-172 2.29789e-31 -2.33846e-30)
(5.7382e-166 2.7943e-31 -2.84743e-30)
(7.59599e-160 3.39794e-31 -3.4674e-30)
(9.63283e-154 4.13148e-31 -4.22214e-30)
(1.16743e-147 5.02216e-31 -5.13996e-30)
(1.34848e-141 6.10245e-31 -6.2545e-30)
(1.48011e-135 7.41082e-31 -7.60567e-30)
(1.5386e-129 8.99215e-31 -9.24093e-30)
(1.50902e-123 1.08975e-30 -1.12169e-29)
(1.39039e-117 1.31821e-30 -1.36011e-29)
(1.19759e-111 1.59003e-30 -1.64734e-29)
(9.58834e-106 1.90929e-30 -1.99264e-29)
(7.0884e-100 2.27618e-30 -2.40618e-29)
(4.80065e-94 2.6817e-30 -2.89787e-29)
(2.9504e-88 3.09742e-30 -3.47458e-29)
(1.62651e-82 3.45628e-30 -4.13433e-29)
(7.92722e-77 3.61955e-30 -4.85504e-29)
(3.35263e-71 3.32823e-30 -5.57496e-29)
(1.20033e-65 2.15652e-30 -6.16286e-29)
(3.51512e-60 -4.52305e-31 -6.38527e-29)
(8.00556e-55 -4.87741e-30 -5.90503e-29)
(1.30962e-49 -1.03656e-29 -4.39962e-29)
(-2.72562e-277 2.08847e-32 -1.48215e-32)
(-6.11828e-271 2.16912e-32 -4.50317e-32)
(-1.34518e-264 2.3333e-32 -7.69822e-32)
(-2.89492e-258 2.58739e-32 -1.11921e-31)
(-6.0938e-252 2.94122e-32 -1.51203e-31)
(-1.25377e-245 3.40847e-32 -1.96344e-31)
(-2.5193e-239 4.00718e-32 -2.4908e-31)
(-4.9399e-233 4.76042e-32 -3.11429e-31)
(-9.44381e-227 5.69723e-32 -3.85764e-31)
(-1.75856e-220 6.85362e-32 -4.74908e-31)
(-3.18649e-214 8.27406e-32 -5.82243e-31)
(-5.61238e-208 1.00131e-31 -7.11854e-31)
(-9.59756e-202 1.21375e-31 -8.68701e-31)
(-1.59154e-195 1.4729e-31 -1.05884e-30)
(-2.55589e-189 1.7887e-31 -1.28968e-30)
(-3.96927e-183 2.17332e-31 -1.5703e-30)
(-5.95179e-177 2.64155e-31 -1.91177e-30)
(-8.60247e-171 3.2114e-31 -2.32762e-30)
(-1.1963e-164 3.90474e-31 -2.83424e-30)
(-1.59744e-158 4.74805e-31 -3.45136e-30)
(-2.04373e-152 5.7733e-31 -4.20265e-30)
(-2.49908e-146 7.01887e-31 -5.11631e-30)
(-2.91292e-140 8.53057e-31 -6.22582e-30)
(-3.22676e-134 1.03625e-30 -7.57097e-30)
(-3.38562e-128 1.25775e-30 -9.19906e-30)
(-3.35196e-122 1.52468e-30 -1.11666e-29)
(-3.11806e-116 1.8447e-30 -1.3541e-29)
(-2.71177e-110 2.22532e-30 -1.64024e-29)
(-2.19247e-104 2.67218e-30 -1.98441e-29)
(-1.63694e-98 3.18562e-30 -2.39692e-29)
(-1.11975e-92 3.75347e-30 -2.88802e-29)
(-6.9515e-87 4.33704e-30 -3.46528e-29)
(-3.87131e-81 4.84457e-30 -4.12803e-29)
(-1.90609e-75 5.08511e-30 -4.85649e-29)
(-8.14375e-70 4.69913e-30 -5.59238e-29)
(-2.94515e-64 3.08897e-30 -6.20809e-29)
(-8.70964e-59 -5.42186e-31 -6.46974e-29)
(-2.00191e-53 -6.77794e-30 -6.02484e-29)
(-3.30081e-48 -1.48471e-29 -4.51683e-29)
(6.05809e-279 2.67981e-32 -1.47295e-32)
(1.35e-272 2.78323e-32 -4.47523e-32)
(2.94629e-266 2.99382e-32 -7.65047e-32)
(6.29313e-260 3.31977e-32 -1.11227e-31)
(1.31464e-253 3.77371e-32 -1.50265e-31)
(2.68393e-247 4.37321e-32 -1.95126e-31)
(5.3508e-241 5.14143e-32 -2.47536e-31)
(1.04085e-234 6.10803e-32 -3.09499e-31)
(1.97377e-228 7.31026e-32 -3.83374e-31)
(3.64528e-222 8.79437e-32 -4.71965e-31)
(6.55021e-216 1.06174e-31 -5.78634e-31)
(1.14394e-209 1.28492e-31 -7.07441e-31)
(1.93942e-203 1.55753e-31 -8.63316e-31)
(3.18807e-197 1.89004e-31 -1.05228e-30)
(5.07446e-191 2.2952e-31 -1.28168e-30)
(7.8097e-185 2.78858e-31 -1.56056e-30)
(1.16035e-178 3.38916e-31 -1.89992e-30)
(1.66156e-172 4.12007e-31 -2.3132e-30)
(2.28886e-166 5.00939e-31 -2.81669e-30)
(3.0271e-160 6.09123e-31 -3.43002e-30)
(3.83514e-154 7.40674e-31 -4.17672e-30)
(4.64329e-148 9.00541e-31 -5.08481e-30)
(5.35786e-142 1.09462e-30 -6.18762e-30)
(5.87459e-136 1.32988e-30 -7.52473e-30)
(6.09996e-130 1.61441e-30 -9.14325e-30)
(5.97579e-124 1.95734e-30 -1.10995e-29)
(5.49945e-118 2.36851e-30 -1.34609e-29)
(4.73108e-112 2.85759e-30 -1.63079e-29)
(3.78314e-106 3.43197e-30 -1.97344e-29)
(2.79324e-100 4.09245e-30 -2.38455e-29)
(1.88936e-94 4.8243e-30 -2.87484e-29)
(1.15975e-88 5.57964e-30 -3.45276e-29)
(6.38622e-83 6.24393e-30 -4.11937e-29)
(3.10938e-77 6.57673e-30 -4.85794e-29)
(1.314e-71 6.12077e-30 -5.61488e-29)
(4.70233e-66 4.10485e-30 -6.26769e-29)
(1.37721e-60 -5.24401e-31 -6.58261e-29)
(3.14004e-55 -8.60148e-30 -6.19112e-29)
(5.15e-50 -1.93031e-29 -4.7353e-29)
(-1.91892e-277 3.26699e-32 -1.46147e-32)
(-4.35146e-271 3.39303e-32 -4.44038e-32)
(-9.66379e-265 3.64972e-32 -7.59092e-32)
(-2.10043e-258 4.04704e-32 -1.10361e-31)
(-4.46494e-252 4.60041e-32 -1.49096e-31)
(-9.27566e-246 5.33124e-32 -1.93608e-31)
(-1.88173e-239 6.26781e-32 -2.4561e-31)
(-3.7247e-233 7.44627e-32 -3.07091e-31)
(-7.18727e-227 8.91205e-32 -3.80392e-31)
(-1.35072e-220 1.07215e-31 -4.68294e-31)
(-2.46978e-214 1.29442e-31 -5.74133e-31)
(-4.38914e-208 1.56652e-31 -7.01938e-31)
(-7.57229e-202 1.89889e-31 -8.56599e-31)
(-1.26668e-195 2.30424e-31 -1.04409e-30)
(-2.05172e-189 2.79814e-31 -1.27171e-30)
(-3.21336e-183 3.39953e-31 -1.54842e-30)
(-4.85867e-177 4.13157e-31 -1.88514e-30)
(-7.08042e-171 5.02246e-31 -2.29522e-30)
(-9.92629e-165 6.10649e-31 -2.79481e-30)
(-1.33607e-158 7.42529e-31 -3.40341e-30)
(-1.72277e-152 9.02917e-31 -4.14437e-30)
(-2.1229e-146 1.09786e-30 -5.04552e-30)
(-2.49324e-140 1.33457e-30 -6.13996e-30)
(-2.78246e-134 1.62155e-30 -7.46701e-30)
(-2.94083e-128 1.96869e-30 -9.07357e-30)
(-2.93251e-122 2.38716e-30 -1.10158e-29)
(-2.74709e-116 2.88902e-30 -1.33609e-29)
(-2.40564e-110 3.48618e-30 -1.61898e-29)
(-1.95813e-104 4.18797e-30 -1.95971e-29)
(-1.47168e-98 4.99605e-30 -2.36907e-29)
(-1.01326e-92 5.89386e-30 -2.85827e-29)
(-6.33059e-87 6.82572e-30 -3.43689e-29)
(-3.54768e-81 7.65668e-30 -4.10809e-29)
(-1.75755e-75 8.10052e-30 -4.85895e-29)
(-7.55471e-70 7.60608e-30 -5.64182e-29)
(-2.74836e-64 5.22735e-30 -6.34099e-29)
(-8.17466e-59 -3.65702e-31 -6.72387e-29)
(-1.88944e-53 -1.03169e-29 -6.40041e-29)
(-3.1298e-48 -2.40367e-29 -4.90871e-29)
(-2.04454e-277 3.84914e-32 -1.44775e-32)
(-4.63497e-271 3.9976e-32 -4.39869e-32)
(-1.02906e-264 4.29999e-32 -7.51966e-32)
(-2.23607e-258 4.76809e-32 -1.09326e-31)
(-4.75205e-252 5.42003e-32 -1.47697e-31)
(-9.86969e-246 6.28108e-32 -1.91792e-31)
(-2.00177e-239 7.38455e-32 -2.43306e-31)
(-3.96141e-233 8.77305e-32 -3.0421e-31)
(-7.64235e-227 1.05001e-31 -3.76823e-31)
(-1.43594e-220 1.26322e-31 -4.63901e-31)
(-2.62509e-214 1.5251e-31 -5.68747e-31)
(-4.66422e-208 1.8457e-31 -6.95352e-31)
(-8.04536e-202 2.2373e-31 -8.48561e-31)
(-1.34557e-195 2.71487e-31 -1.03429e-30)
(-2.17911e-189 3.29674e-31 -1.25978e-30)
(-3.4123e-183 4.00524e-31 -1.53389e-30)
(-5.15861e-177 4.86764e-31 -1.86746e-30)
(-7.51627e-171 5.91717e-31 -2.2737e-30)
(-1.05356e-164 7.1943e-31 -2.76864e-30)
(-1.41785e-158 8.74813e-31 -3.37157e-30)
(-1.82793e-152 1.0638e-30 -4.10565e-30)
(-2.25212e-146 1.29353e-30 -4.99848e-30)
(-2.64456e-140 1.57252e-30 -6.08289e-30)
(-2.95085e-134 1.91081e-30 -7.3979e-30)
(-3.11826e-128 2.32009e-30 -8.99013e-30)
(-3.1089e-122 2.81356e-30 -1.09154e-29)
(-2.9118e-116 3.40557e-30 -1.32411e-29)
(-2.54941e-110 4.11036e-30 -1.60481e-29)
(-2.07478e-104 4.93943e-30 -1.94324e-29)
(-1.55909e-98 5.89572e-30 -2.35044e-29)
(-1.07329e-92 6.96172e-30 -2.83824e-29)
(-6.70516e-87 8.07558e-30 -3.4175e-29)
(-3.75779e-81 9.08488e-30 -4.09387e-29)
(-1.86219e-75 9.6622e-30 -4.85896e-29)
(-8.01035e-70 9.16773e-30 -5.67235e-29)
(-2.9185e-64 6.48021e-30 -6.42712e-29)
(-8.70492e-59 -2.98819e-32 -6.8935e-29)
(-2.02126e-53 -1.18786e-29 -6.66454e-29)
(-3.36518e-48 -2.87561e-29 -5.2841e-29)
(-8.69047e-281 4.42534e-32 -1.43179e-32)
(-1.95955e-274 4.596e-32 -4.35022e-32)
(-4.32699e-268 4.94363e-32 -7.43682e-32)
(-9.35062e-262 5.48178e-32 -1.08121e-31)
(-1.97613e-255 6.23131e-32 -1.4607e-31)
(-4.08123e-249 7.22125e-32 -1.89679e-31)
(-8.23042e-243 8.48992e-32 -2.40626e-31)
(-1.61937e-236 1.00863e-31 -3.0086e-31)
(-3.10584e-230 1.2072e-31 -3.72674e-31)
(-5.80107e-224 1.45233e-31 -4.58792e-31)
(-1.05413e-217 1.75343e-31 -5.62484e-31)
(-1.86154e-211 2.12203e-31 -6.87694e-31)
(-3.19106e-205 2.57225e-31 -8.39215e-31)
(-5.30328e-199 3.12131e-31 -1.0229e-30)
(-8.53333e-193 3.79025e-31 -1.2459e-30)
(-1.32749e-186 4.60477e-31 -1.517e-30)
(-1.99342e-180 5.59621e-31 -1.8469e-30)
(-2.88459e-174 6.80282e-31 -2.24869e-30)
(-4.01497e-168 8.27113e-31 -2.73819e-30)
(-5.36428e-162 1.00577e-30 -3.33454e-30)
(-6.86441e-156 1.22307e-30 -4.06063e-30)
(-8.39244e-150 1.48725e-30 -4.94378e-30)
(-9.77643e-144 1.80812e-30 -6.0165e-30)
(-1.08183e-137 2.19724e-30 -7.3175e-30)
(-1.13327e-131 2.6681e-30 -8.89302e-30)
(-1.11952e-125 3.23596e-30 -1.07987e-29)
(-1.03835e-119 3.91748e-30 -1.31016e-29)
(-8.99638e-114 4.72938e-30 -1.5883e-29)
(-7.23861e-108 5.68553e-30 -1.92401e-29)
(-5.37162e-102 6.79067e-30 -2.32862e-29)
(-3.64621e-96 8.02731e-30 -2.81467e-29)
(-2.24141e-90 9.3293e-30 -3.39443e-29)
(-1.23243e-84 1.05302e-29 -4.07636e-29)
(-5.96627e-79 1.1267e-29 -4.85729e-29)
(-2.49046e-73 1.08179e-29 -5.70546e-29)
(-8.70781e-68 7.88767e-30 -6.52494e-29)
(-2.44211e-62 5.22292e-31 -7.09104e-29)
(-5.10539e-57 -1.32364e-29 -6.97494e-29)
(-6.7969e-52 -3.30443e-29 -5.66971e-29)
(-2.23907e-281 4.99471e-32 -1.41363e-32)
(-5.57892e-275 5.18731e-32 -4.29505e-32)
(-1.34654e-268 5.57965e-32 -7.34251e-32)
(-3.15243e-262 6.18702e-32 -1.0675e-31)
(-7.16424e-256 7.03298e-32 -1.44218e-31)
(-1.58113e-249 8.1503e-32 -1.87274e-31)
(-3.38915e-243 9.58222e-32 -2.37576e-31)
(-7.05482e-237 1.13841e-31 -2.97046e-31)
(-1.42569e-230 1.36253e-31 -3.67949e-31)
(-2.79578e-224 1.63921e-31 -4.52976e-31)
(-5.31693e-218 1.97906e-31 -5.55353e-31)
(-9.79886e-212 2.39509e-31 -6.78975e-31)
(-1.74852e-205 2.90323e-31 -8.28576e-31)
(-3.01796e-199 3.52293e-31 -1.00993e-30)
(-5.03287e-193 4.27792e-31 -1.23011e-30)
(-8.099e-187 5.19721e-31 -1.49777e-30)
(-1.25589e-180 6.31619e-31 -1.8235e-30)
(-1.87371e-174 7.67803e-31 -2.2202e-30)
(-2.68491e-168 9.3353e-31 -2.70354e-30)
(-3.68812e-162 1.13518e-30 -3.29238e-30)
(-4.84624e-156 1.38049e-30 -4.00936e-30)
(-6.07716e-150 1.67873e-30 -4.88147e-30)
(-7.25341e-144 2.041e-30 -5.94089e-30)
(-8.21563e-138 2.4804e-30 -7.22591e-30)
(-8.80122e-132 3.0122e-30 -8.78238e-30)
(-8.88381e-126 3.65376e-30 -1.06656e-29)
(-8.41249e-120 4.42407e-30 -1.29424e-29)
(-7.43611e-114 5.34244e-30 -1.56945e-29)
(-6.10006e-108 6.42541e-30 -1.90201e-29)
(-4.61221e-102 7.68002e-30 -2.3036e-29)
(-3.18793e-96 9.08988e-30 -2.78747e-29)
(-1.99437e-90 1.05867e-29 -3.36745e-29)
(-1.11536e-84 1.19938e-29 -4.05512e-29)
(-5.4888e-79 1.29193e-29 -4.8532e-29)
(-2.32756e-73 1.25682e-29 -5.73993e-29)
(-8.26138e-68 9.47427e-30 -6.63303e-29)
(-2.3498e-62 1.33317e-30 -7.31598e-29)
(-4.97668e-57 -1.43493e-29 -7.33588e-29)
(-6.70876e-52 -3.75447e-29 -6.01561e-29)
(-5.73488e-278 5.55637e-32 -1.39329e-32)
(-1.42316e-271 5.77062e-32 -4.23325e-32)
(-3.42728e-265 6.20706e-32 -7.23688e-32)
(-8.01669e-259 6.88273e-32 -1.05215e-31)
(-1.82223e-252 7.82381e-32 -1.42143e-31)
(-4.02581e-246 9.06678e-32 -1.84581e-31)
(-8.64431e-240 1.06597e-31 -2.34159e-31)
(-1.80357e-233 1.26643e-31 -2.92774e-31)
(-3.65505e-227 1.51576e-31 -3.62658e-31)
(-7.19089e-221 1.82355e-31 -4.46462e-31)
(-1.37251e-214 2.20163e-31 -5.47366e-31)
(-2.53952e-208 2.66445e-31 -6.6921e-31)
(-4.55096e-202 3.22974e-31 -8.16659e-31)
(-7.89095e-196 3.91911e-31 -9.95405e-31)
(-1.32232e-189 4.759e-31 -1.21242e-30)
(-2.1388e-183 5.78165e-31 -1.47623e-30)
(-3.33443e-177 7.02645e-31 -1.79729e-30)
(-5.00284e-171 8.54145e-31 -2.1883e-30)
(-7.21118e-165 1.03852e-30 -2.66472e-30)
(-9.96701e-159 1.26287e-30 -3.24515e-30)
(-1.31818e-152 1.5358e-30 -3.95192e-30)
(-1.66425e-146 1.86766e-30 -4.81167e-30)
(-2.0006e-140 2.27081e-30 -5.85616e-30)
(-2.28313e-134 2.75988e-30 -7.12326e-30)
(-2.46546e-128 3.35191e-30 -8.65835e-30)
(-2.50984e-122 4.06635e-30 -1.05163e-29)
(-2.39845e-116 4.92462e-30 -1.27639e-29)
(-2.14109e-110 5.94874e-30 -1.54827e-29)
(-1.77545e-104 7.15815e-30 -1.87725e-29)
(-1.35856e-98 8.56281e-30 -2.27533e-29)
(-9.51781e-93 1.01486e-29 -2.75654e-29)
(-6.04759e-87 1.18472e-29 -3.33635e-29)
(-3.44498e-81 1.34764e-29 -4.02971e-29)
(-1.73402e-75 1.46227e-29 -4.84581e-29)
(-7.56972e-70 1.4429e-29 -5.77436e-29)
(-2.79567e-64 1.12646e-29 -6.74964e-29)
(-8.43888e-59 2.44892e-30 -7.56752e-29)
(-1.97867e-53 -1.51587e-29 -7.75249e-29)
(-3.32295e-48 -4.18951e-29 -6.60576e-29)
(-2.22838e-281 6.10947e-32 -1.3708e-32)
(-5.5563e-275 6.34503e-32 -4.16493e-32)
(-1.34189e-268 6.8249e-32 -7.12009e-32)
(-3.14318e-262 7.56782e-32 -1.03517e-31)
(-7.14647e-256 8.60258e-32 -1.3985e-31)
(-1.57785e-249 9.96928e-32 -1.81602e-31)
(-3.38332e-243 1.17208e-31 -2.30381e-31)
(-7.045e-237 1.39249e-31 -2.88051e-31)
(-1.42413e-230 1.66665e-31 -3.56807e-31)
(-2.7935e-224 2.00509e-31 -4.39259e-31)
(-5.31397e-218 2.42081e-31 -5.38535e-31)
(-9.79579e-212 2.92971e-31 -6.58413e-31)
(-1.74837e-205 3.55127e-31 -8.03483e-31)
(-3.01838e-199 4.30926e-31 -9.79346e-31)
(-5.03464e-193 5.23274e-31 -1.19286e-30)
(-8.10355e-187 6.35718e-31 -1.45242e-30)
(-1.25685e-180 7.7259e-31 -1.7683e-30)
(-1.87552e-174 9.39174e-31 -2.15303e-30)
(-2.68807e-168 1.14191e-30 -2.62179e-30)
(-3.69323e-162 1.38862e-30 -3.19292e-30)
(-4.854e-156 1.68877e-30 -3.8884e-30)
(-6.08824e-150 2.05376e-30 -4.73447e-30)
(-7.26835e-144 2.4972e-30 -5.76245e-30)
(-8.23462e-138 3.03524e-30 -7.00969e-30)
(-8.82398e-132 3.68669e-30 -8.52109e-30)
(-8.90944e-126 4.47313e-30 -1.0351e-29)
(-8.43957e-120 5.41842e-30 -1.2566e-29)
(-7.46287e-114 6.54742e-30 -1.52478e-29)
(-6.12466e-108 7.8828e-30 -1.84973e-29)
(-4.63316e-102 9.43797e-30 -2.24379e-29)
(-3.20436e-96 1.12023e-29 -2.72178e-29)
(-2.00613e-90 1.311e-29 -3.30089e-29)
(-1.12299e-84 1.4978e-29 -3.99961e-29)
(-5.53308e-79 1.63799e-29 -4.83415e-29)
(-2.35023e-73 1.64095e-29 -5.80709e-29)
(-8.36191e-68 1.3283e-29 -6.87264e-29)
(-2.38746e-62 3.91987e-30 -7.84444e-29)
(-5.09181e-57 -1.56e-29 -8.22276e-29)
(-6.98166e-52 -4.6533e-29 -7.21367e-29)
(-1.48643e-280 6.65314e-32 -1.3462e-32)
(-3.29776e-274 6.90965e-32 -4.09019e-32)
(-7.16549e-268 7.43222e-32 -6.99232e-32)
(-1.52384e-261 8.24124e-32 -1.01659e-31)
(-3.16951e-255 9.36808e-32 -1.3734e-31)
(-6.44293e-249 1.08564e-31 -1.78344e-31)
(-1.279e-242 1.27639e-31 -2.26248e-31)
(-2.47738e-236 1.51641e-31 -2.82883e-31)
(-4.67804e-230 1.81497e-31 -3.50406e-31)
(-8.60345e-224 2.18354e-31 -4.31378e-31)
(-1.53951e-217 2.63625e-31 -5.28874e-31)
(-2.67745e-211 3.19045e-31 -6.46601e-31)
(-4.52055e-205 3.86732e-31 -7.89068e-31)
(-7.40033e-199 4.69277e-31 -9.61776e-31)
(-1.17306e-192 5.69843e-31 -1.17146e-30)
(-1.79793e-186 6.92293e-31 -1.42637e-30)
(-2.66028e-180 8.41347e-31 -1.73659e-30)
(-3.79358e-174 1.02276e-30 -2.11444e-30)
(-5.20393e-168 1.24355e-30 -2.57483e-30)
(-6.85324e-162 1.51225e-30 -3.13578e-30)
(-8.64519e-156 1.83916e-30 -3.81889e-30)
(-1.04208e-149 2.23674e-30 -4.64999e-30)
(-1.19699e-143 2.71983e-30 -5.65987e-30)
(-1.30625e-137 3.30607e-30 -6.88536e-30)
(-1.34965e-131 4.01606e-30 -8.37077e-30)
(-1.31525e-125 4.8735e-30 -1.01699e-29)
(-1.20358e-119 5.90475e-30 -1.2349e-29)
(-1.02905e-113 7.13765e-30 -1.49898e-29)
(-8.17233e-108 8.59835e-30 -1.81944e-29)
(-5.98708e-102 1.03044e-29 -2.20894e-29)
(-4.01309e-96 1.22497e-29 -2.6831e-29)
(-2.43676e-90 1.4374e-29 -3.26083e-29)
(-1.32387e-84 1.64979e-29 -3.96431e-29)
(-6.33487e-79 1.81922e-29 -4.81718e-29)
(-2.61473e-73 1.85172e-29 -5.83629e-29)
(-9.04258e-68 1.55531e-29 -6.99944e-29)
(-2.50821e-62 5.80091e-30 -8.14518e-29)
(-5.17913e-57 -1.55818e-29 -8.76155e-29)
(-6.75677e-52 -5.09472e-29 -7.82958e-29)
(-3.4472e-277 7.18655e-32 -1.31952e-32)
(-7.69097e-271 7.46362e-32 -4.00914e-32)
(-1.68063e-264 8.02808e-32 -6.85377e-32)
(-3.59464e-258 8.90195e-32 -9.96451e-32)
(-7.52012e-252 1.01191e-31 -1.34619e-31)
(-1.53766e-245 1.17268e-31 -1.74811e-31)
(-3.0706e-239 1.37872e-31 -2.21766e-31)
(-5.98343e-233 1.63799e-31 -2.77279e-31)
(-1.13674e-226 1.96049e-31 -3.43464e-31)
(-2.1035e-220 2.35862e-31 -4.22833e-31)
(-3.7876e-214 2.84764e-31 -5.18397e-31)
(-6.62916e-208 3.44627e-31 -6.33792e-31)
(-1.12649e-201 4.17742e-31 -7.73436e-31)
(-1.85624e-195 5.06905e-31 -9.42723e-31)
(-2.96213e-189 6.15534e-31 -1.14826e-30)
(-4.57103e-183 7.47802e-31 -1.39812e-30)
(-6.8107e-177 9.08809e-31 -1.70221e-30)
(-9.78152e-171 1.10478e-30 -2.07259e-30)
(-1.35165e-164 1.34329e-30 -2.5239e-30)
(-1.79346e-158 1.63356e-30 -3.0738e-30)
(-2.28e-152 1.98675e-30 -3.7435e-30)
(-2.77042e-146 2.41632e-30 -4.55834e-30)
(-3.20891e-140 2.93835e-30 -5.54858e-30)
(-3.53242e-134 3.57195e-30 -6.75044e-30)
(-3.68332e-128 4.33951e-30 -8.2076e-30)
(-3.6243e-122 5.26684e-30 -9.97328e-30)
(-3.35097e-116 6.38288e-30 -1.21131e-29)
(-2.89704e-110 7.71855e-30 -1.47091e-29)
(-2.32876e-104 9.30376e-30 -1.7864e-29)
(-1.72908e-98 1.11608e-29 -2.17076e-29)
(-1.17665e-92 1.32896e-29 -2.64039e-29)
(-7.27041e-87 1.56374e-29 -3.21593e-29)
(-4.03269e-81 1.80346e-29 -3.92325e-29)
(-1.97959e-75 2.00593e-29 -4.79376e-29)
(-8.44467e-70 2.07577e-29 -5.85988e-29)
(-3.05594e-64 1.80971e-29 -7.12696e-29)
(-9.07443e-59 8.15133e-30 -8.46714e-29)
(-2.10658e-53 -1.50014e-29 -9.35771e-29)
(-3.54118e-48 -5.52197e-29 -8.59807e-29)
(-2.2178e-277 7.70888e-32 -1.29081e-32)
(-4.66506e-271 8.00608e-32 -3.92191e-32)
(-9.56918e-265 8.61156e-32 -6.70465e-32)
(-1.91167e-258 9.54894e-32 -9.74772e-32)
(-3.7139e-252 1.08546e-31 -1.31691e-31)
(-7.00452e-246 1.25791e-31 -1.71008e-31)
(-1.27989e-239 1.47893e-31 -2.16941e-31)
(-2.26019e-233 1.75705e-31 -2.71247e-31)
(-3.84544e-227 2.10299e-31 -3.35993e-31)
(-6.2783e-221 2.53006e-31 -4.13636e-31)
(-9.78293e-215 3.05463e-31 -5.07121e-31)
(-1.44351e-208 3.69678e-31 -6.20005e-31)
(-1.99234e-202 4.48107e-31 -7.56612e-31)
(-2.51762e-196 5.43751e-31 -9.22218e-31)
(-2.78617e-190 6.60276e-31 -1.12328e-30)
(-2.38426e-184 8.0216e-31 -1.36771e-30)
(-6.76985e-179 9.74873e-31 -1.6652e-30)
(3.18796e-172 1.18509e-30 -2.02754e-30)
(1.01947e-165 1.44096e-30 -2.46907e-30)
(2.12607e-159 1.75236e-30 -3.00708e-30)
(3.69234e-153 2.1313e-30 -3.66234e-30)
(5.69615e-147 2.59222e-30 -4.45967e-30)
(8.00668e-141 3.15243e-30 -5.42874e-30)
(1.0373e-134 3.83248e-30 -6.60513e-30)
(1.24497e-128 4.65655e-30 -8.03179e-30)
(1.38643e-122 5.65257e-30 -9.76127e-30)
(1.43165e-116 6.85209e-30 -1.18587e-29)
(1.36759e-110 8.28923e-30 -1.44057e-29)
(1.20392e-104 9.99798e-30 -1.7506e-29)
(9.71642e-99 1.20058e-29 -2.12923e-29)
(7.1408e-93 1.43201e-29 -2.59357e-29)
(4.73815e-87 1.68984e-29 -3.16593e-29)
(2.80801e-81 1.95859e-29 -3.87587e-29)
(1.466e-75 2.19798e-29 -4.76271e-29)
(6.62293e-70 2.31338e-29 -5.87554e-29)
(2.52811e-64 2.09351e-29 -7.25156e-29)
(7.88909e-59 1.10344e-29 -8.80715e-29)
(1.91714e-53 -1.37357e-29 -1.0029e-28)
(3.35189e-48 -5.85718e-29 -9.4239e-29)
(-1.52988e-280 8.21932e-32 -1.26011e-32)
(-3.22321e-274 8.53619e-32 -3.82863e-32)
(-6.62449e-268 9.18176e-32 -6.54519e-32)
(-1.32648e-261 1.01812e-31 -9.5159e-32)
(-2.58406e-255 1.15733e-31 -1.28559e-31)
(-4.88907e-249 1.3412e-31 -1.66941e-31)
(-8.96613e-243 1.57686e-31 -2.11783e-31)
(-1.58994e-236 1.8734e-31 -2.64798e-31)
(-2.71789e-230 2.24225e-31 -3.28004e-31)
(-4.46105e-224 2.69761e-31 -4.038e-31)
(-6.99286e-218 3.25692e-31 -4.95062e-31)
(-1.03871e-211 3.94159e-31 -6.05263e-31)
(-1.44424e-205 4.77782e-31 -7.38622e-31)
(-1.83978e-199 5.7976e-31 -9.0029e-31)
(-2.0535e-193 7.04002e-31 -1.09657e-30)
(-1.77118e-187 8.55283e-31 -1.3352e-30)
(-4.95007e-182 1.03944e-30 -1.62562e-30)
(2.46973e-175 1.26359e-30 -1.97937e-30)
(7.96985e-169 1.53642e-30 -2.41044e-30)
(1.68713e-162 1.86849e-30 -2.93573e-30)
(2.98237e-156 2.27259e-30 -3.57553e-30)
(4.69457e-150 2.76417e-30 -4.35411e-30)
(6.75046e-144 3.36173e-30 -5.30053e-30)
(8.97166e-138 4.08726e-30 -6.44962e-30)
(1.10809e-131 4.96669e-30 -7.84358e-30)
(1.27442e-125 6.03009e-30 -9.53417e-30)
(1.36459e-119 7.31164e-30 -1.15858e-29)
(1.35796e-113 8.84881e-30 -1.40799e-29)
(1.25204e-107 1.06799e-29 -1.71206e-29)
(1.06489e-101 1.28382e-29 -2.08432e-29)
(8.30735e-96 1.53396e-29 -2.54254e-29)
(5.90132e-90 1.81544e-29 -3.11061e-29)
(3.78273e-84 2.11486e-29 -3.82162e-29)
(2.16292e-78 2.39502e-29 -4.7228e-29)
(1.08722e-72 2.56455e-29 -5.88077e-29)
(4.71483e-67 2.40839e-29 -7.36895e-29)
(1.72063e-61 1.4517e-29 -9.16056e-29)
(5.10448e-56 -1.1665e-29 -1.07498e-28)
(1.16514e-50 -6.11136e-29 -1.04171e-28)
(-3.3758e-277 8.71709e-32 -1.22747e-32)
(-7.53229e-271 9.05314e-32 -3.72945e-32)
(-1.64611e-264 9.7378e-32 -6.37565e-32)
(-3.52118e-258 1.07978e-31 -9.26941e-32)
(-7.36732e-252 1.22742e-31 -1.25229e-31)
(-1.50662e-245 1.42243e-31 -1.62618e-31)
(-3.00907e-239 1.67235e-31 -2.06298e-31)
(-5.86454e-233 1.98686e-31 -2.57939e-31)
(-1.11436e-226 2.37806e-31 -3.19509e-31)
(-2.06255e-220 2.86099e-31 -3.93342e-31)
(-3.71477e-214 3.45418e-31 -4.82241e-31)
(-6.50347e-208 4.18033e-31 -5.89587e-31)
(-1.10547e-201 5.06721e-31 -7.19492e-31)
(-1.82224e-195 6.14876e-31 -8.76974e-31)
(-2.90901e-189 7.46643e-31 -1.06818e-30)
(-4.49104e-183 9.07088e-31 -1.30063e-30)
(-6.69486e-177 1.1024e-30 -1.58354e-30)
(-9.62059e-171 1.34014e-30 -1.92815e-30)
(-1.33026e-164 1.62951e-30 -2.34809e-30)
(-1.76636e-158 1.98174e-30 -2.85985e-30)
(-2.24742e-152 2.41041e-30 -3.4832e-30)