/*--------------------------------*- C++ -*----------------------------------*\
| =========                 |                                                 |
| \\      /  F ield         | OpenFOAM: The Open Source CFD Toolbox           |
|  \\    /   O peration     | Version:  4.1                                   |
|   \\  /    A nd           | Web:      www.OpenFOAM.org                      |
|    \\/     M anipulation  |                                                 |
\*---------------------------------------------------------------------------*/
FoamFile
{
    version     2.0;
    format      ascii;
    class       volScalarField;
    location    "8";
    object      p;
}
// * * * * * * * * * * * * * * * * * * * * * * * * * * * * * * * * * * * * * //

dimensions      [0 2 -2 0 0 0 0];

internalField   nonuniform List<scalar> 
26785
(
0.344416
0.330186
0.316667
0.303842
0.291732
0.280223
0.26931
0.258888
0.248957
0.23944
0.230337
0.221593
0.213203
0.205135
0.197381
0.189915
0.182732
0.175822
0.169174
0.162778
0.156621
0.150698
0.145
0.139525
0.13426
0.129202
0.124335
0.119655
0.11515
0.110815
0.10664
0.102624
0.0987578
0.0950389
0.0914585
0.0880117
0.0846908
0.0814925
0.0784123
0.0754487
0.0725994
0.0698625
0.0672335
0.0647077
0.062279
0.059942
0.0576916
0.0555231
0.0534315
0.0514116
0.0494589
0.0475691
0.0457391
0.0439669
0.0422516
0.0405921
0.0389874
0.0374368
0.0359399
0.0344959
0.0331036
0.031762
0.0304693
0.0292243
0.0280255
0.0268711
0.0257588
0.0246858
0.0236494
0.0226469
0.0216761
0.0207352
0.0198232
0.0189382
0.0180769
0.0172358
0.0164128
0.0156064
0.0148156
0.0140391
0.0132762
0.0125264
0.0117893
0.0110645
0.0103513
0.00964871
0.00895544
0.0082701
0.00759141
0.00691828
0.00624978
0.00558512
0.00492355
0.00426446
0.00360747
0.00295218
0.00229711
0.00164169
0.000985612
0.000328678
0.344412
0.33018
0.316661
0.303835
0.291726
0.280217
0.269304
0.258883
0.248952
0.239434
0.230331
0.221588
0.213198
0.205131
0.197376
0.18991
0.182727
0.175817
0.169169
0.162773
0.156616
0.150693
0.144995
0.13952
0.134255
0.129197
0.12433
0.11965
0.115145
0.11081
0.106635
0.102619
0.0987534
0.0950347
0.0914543
0.0880076
0.0846868
0.0814884
0.0784081
0.0754444
0.0725951
0.0698582
0.0672294
0.0647037
0.0622753
0.0599385
0.0576883
0.0555199
0.0534282
0.0514084
0.0494558
0.0475662
0.0457363
0.0439642
0.0422489
0.0405894
0.0389846
0.037434
0.035937
0.0344929
0.0331008
0.0317592
0.0304666
0.0292216
0.0280227
0.0268684
0.0257561
0.0246833
0.023647
0.0226445
0.0216737
0.0207328
0.0198207
0.0189356
0.0180743
0.0172332
0.0164102
0.015604
0.0148132
0.0140368
0.013274
0.0125243
0.0117873
0.0110626
0.0103496
0.00964715
0.00895403
0.00826879
0.00759016
0.00691708
0.00624864
0.00558404
0.00492256
0.00426362
0.00360678
0.00295161
0.00229664
0.00164131
0.00098533
0.000328556
0.344404
0.330167
0.316647
0.303821
0.291713
0.280205
0.269292
0.258871
0.248941
0.239424
0.230321
0.221578
0.213189
0.205121
0.197366
0.1899
0.182717
0.175807
0.16916
0.162763
0.156606
0.150683
0.144985
0.13951
0.134246
0.129187
0.12432
0.119641
0.115135
0.110801
0.106626
0.10261
0.0987446
0.0950261
0.091446
0.0879995
0.0846787
0.0814803
0.0783999
0.0754361
0.0725866
0.0698497
0.0672211
0.0646959
0.062268
0.0599317
0.0576816
0.0555132
0.0534215
0.0514018
0.0494495
0.0475602
0.0457307
0.0439587
0.0422435
0.040584
0.0389791
0.0374283
0.0359313
0.0344873
0.0330953
0.0317537
0.0304612
0.0292161
0.0280172
0.0268629
0.0257508
0.0246781
0.0236421
0.0226398
0.021669
0.0207281
0.0198157
0.0189305
0.0180691
0.017228
0.0164052
0.015599
0.0148084
0.0140322
0.0132696
0.0125201
0.0117833
0.0110589
0.0103462
0.00964395
0.00895096
0.00826579
0.0075872
0.00691415
0.00624577
0.00558131
0.00492007
0.00426144
0.00360499
0.00295019
0.00229552
0.00164048
0.000984801
0.000328344
0.34439
0.330149
0.316627
0.303801
0.291693
0.280186
0.269274
0.258854
0.248925
0.239408
0.230306
0.221563
0.213174
0.205106
0.197352
0.189886
0.182703
0.175793
0.169145
0.162749
0.156592
0.150669
0.144971
0.139496
0.134231
0.129173
0.124306
0.119626
0.115121
0.110787
0.106612
0.102597
0.0987315
0.0950134
0.0914335
0.0879872
0.0846667
0.0814682
0.0783875
0.0754235
0.0725739
0.069837
0.0672088
0.0646843
0.0622572
0.0599214
0.0576715
0.0555029
0.0534112
0.0513917
0.0494399
0.0475513
0.0457222
0.0439506
0.0422356
0.0405761
0.038971
0.0374199
0.0359227
0.0344789
0.0330871
0.0317457
0.0304531
0.029208
0.028009
0.0268547
0.0257428
0.0246705
0.0236347
0.0226327
0.021662
0.020721
0.0198083
0.0189229
0.0180614
0.0172204
0.0163976
0.0155916
0.0148012
0.0140252
0.0132629
0.0125138
0.0117774
0.0110534
0.010341
0.00963907
0.00894627
0.00826119
0.00758265
0.00690961
0.00624128
0.00557703
0.0049162
0.00425811
0.00360224
0.00294798
0.00229386
0.00163932
0.000984083
0.000328071
0.344371
0.330125
0.3166
0.303774
0.291667
0.280161
0.26925
0.258831
0.248903
0.239387
0.230285
0.221543
0.213154
0.205087
0.197332
0.189866
0.182684
0.175774
0.169126
0.16273
0.156573
0.15065
0.144951
0.139476
0.134212
0.129153
0.124286
0.119607
0.115102
0.110768
0.106594
0.102579
0.098714
0.0949963
0.0914169
0.0879709
0.0846506
0.081452
0.0783711
0.0754069
0.072557
0.06982
0.0671924
0.0646688
0.0622427
0.0599076
0.0576579
0.0554892
0.0533975
0.0513782
0.0494271
0.0475394
0.045711
0.0439397
0.0422249
0.0405654
0.03896
0.0374086
0.0359114
0.0344676
0.0330761
0.031735
0.0304424
0.0291971
0.027998
0.0268437
0.0257321
0.0246602
0.0236249
0.0226232
0.0216527
0.0207116
0.0197986
0.0189128
0.0180511
0.0172101
0.0163874
0.0155816
0.0147915
0.014016
0.0132541
0.0125054
0.0117695
0.011046
0.0103341
0.00963252
0.00893995
0.008255
0.00757646
0.00690344
0.00623525
0.00557134
0.00491105
0.00425368
0.00359863
0.00294513
0.00229168
0.00163781
0.00098319
0.00032775
0.344349
0.330094
0.316566
0.303739
0.291634
0.280129
0.26922
0.258802
0.248875
0.23936
0.230259
0.221517
0.213129
0.205062
0.197308
0.189842
0.18266
0.17575
0.169102
0.162706
0.156549
0.150626
0.144927
0.139452
0.134187
0.129129
0.124262
0.119583
0.115078
0.110745
0.106571
0.102557
0.0986921
0.094975
0.0913961
0.0879505
0.0846305
0.0814319
0.0783507
0.0753861
0.0725359
0.0697989
0.0671719
0.0646495
0.0622246
0.0598903
0.0576408
0.0554721
0.0533802
0.0513614
0.0494112
0.0475246
0.0456971
0.0439262
0.0422116
0.0405521
0.0389464
0.0373946
0.0358972
0.0344536
0.0330625
0.0317216
0.0304291
0.0291835
0.0279842
0.02683
0.0257188
0.0246475
0.0236127
0.0226114
0.0216411
0.0206999
0.0197866
0.0189003
0.0180384
0.0171973
0.0163747
0.0155691
0.0147793
0.0140043
0.013243
0.0124948
0.0117595
0.0110367
0.0103254
0.00962423
0.00893193
0.0082471
0.00756863
0.00689568
0.00622771
0.00556429
0.00490477
0.00424832
0.00359424
0.00294166
0.00228908
0.00163599
0.000982107
0.000327375
0.344323
0.330057
0.316525
0.303699
0.291595
0.280092
0.269185
0.258768
0.248843
0.239329
0.230228
0.221487
0.213099
0.205033
0.197279
0.189813
0.182631
0.175721
0.169074
0.162677
0.15652
0.150597
0.144899
0.139423
0.134158
0.1291
0.124233
0.119554
0.11505
0.110716
0.106544
0.10253
0.0986658
0.0949495
0.0913712
0.0879261
0.0846064
0.0814078
0.0783263
0.0753613
0.0725106
0.0697735
0.0671472
0.0646262
0.0622028
0.0598695
0.0576203
0.0554514
0.0533595
0.0513412
0.0493921
0.047507
0.0456805
0.04391
0.0421956
0.0405362
0.0389301
0.0373777
0.0358801
0.0344368
0.0330461
0.0317056
0.0304131
0.0291673
0.0279677
0.0268136
0.0257028
0.0246322
0.0235981
0.0225974
0.0216273
0.0206861
0.0197724
0.0188855
0.0180232
0.017182
0.0163593
0.0155539
0.0147646
0.0139902
0.0132296
0.0124821
0.0117476
0.0110255
0.0103147
0.00961409
0.00892211
0.00823746
0.00755911
0.00688635
0.00621879
0.00555606
0.00489748
0.00424212
0.00358921
0.00293771
0.0022861
0.00163389
0.000980848
0.000326948
0.344292
0.330014
0.316478
0.303651
0.291549
0.280048
0.269143
0.258728
0.248804
0.239292
0.230192
0.221452
0.213065
0.204998
0.197245
0.189779
0.182597
0.175687
0.16904
0.162644
0.156487
0.150563
0.144865
0.139389
0.134124
0.129065
0.124199
0.11952
0.115017
0.110684
0.106512
0.102498
0.0986352
0.0949196
0.0913421
0.0878976
0.0845784
0.0813798
0.078298
0.0753324
0.0724813
0.069744
0.0671185
0.064599
0.0621773
0.059845
0.0575962
0.0554272
0.0533353
0.0513176
0.04937
0.0474865
0.0456612
0.043891
0.042177
0.0405177
0.038911
0.0373579
0.0358601
0.0344172
0.033027
0.0316869
0.0303944
0.0291483
0.0279485
0.0267945
0.0256843
0.0246144
0.0235812
0.022581
0.0216113
0.02067
0.019756
0.0188684
0.0180056
0.0171641
0.0163413
0.0155362
0.0147473
0.0139736
0.0132139
0.0124673
0.0117336
0.0110122
0.0103021
0.00960203
0.00891044
0.00822607
0.00754796
0.00687558
0.00620863
0.00554678
0.00488933
0.00423523
0.00358357
0.00293326
0.00228273
0.00163149
0.000979413
0.000326461
0.344257
0.329964
0.316423
0.303596
0.291497
0.279998
0.269095
0.258682
0.24876
0.239249
0.230151
0.221411
0.213025
0.204959
0.197206
0.189741
0.182558
0.175649
0.169002
0.162606
0.156449
0.150525
0.144827
0.139351
0.134085
0.129027
0.12416
0.119482
0.114979
0.110646
0.106475
0.102463
0.0986002
0.0948855
0.0913089
0.0878651
0.0845464
0.0813479
0.0782657
0.0752995
0.0724478
0.0697104
0.0670856
0.0645679
0.062148
0.059817
0.0575686
0.0553995
0.0533077
0.0512908
0.0493447
0.0474632
0.0456391
0.0438692
0.0421558
0.0404966
0.0388891
0.0373352
0.0358372
0.0343946
0.0330051
0.0316655
0.030373
0.0291266
0.0279266
0.0267728
0.0256632
0.0245943
0.0235619
0.0225625
0.0215931
0.0206518
0.0197374
0.0188491
0.0179856
0.0171436
0.0163207
0.0155157
0.0147275
0.0139546
0.0131959
0.0124502
0.0117174
0.0109969
0.0102875
0.00958802
0.00889693
0.00821298
0.00753531
0.00686352
0.00619739
0.00553662
0.00488027
0.00422745
0.00357729
0.00292839
0.00227904
0.00162883
0.000977796
0.000325898
0.344216
0.329908
0.316362
0.303535
0.291438
0.279942
0.269041
0.258631
0.248711
0.239202
0.230104
0.221366
0.212981
0.204915
0.197162
0.189697
0.182515
0.175606
0.168959
0.162563
0.156406
0.150482
0.144784
0.139307
0.134042
0.128983
0.124116
0.119439
0.114936
0.110604
0.106434
0.102422
0.0985609
0.0948471
0.0912715
0.0878286
0.0845104
0.081312
0.0782294
0.0752626
0.0724103
0.0696726
0.0670486
0.0645327
0.0621148
0.0597853
0.0575375
0.0553685
0.0532767
0.0512606
0.0493165
0.0474371
0.0456143
0.0438446
0.0421319
0.0404728
0.0388643
0.0373096
0.0358113
0.0343691
0.0329804
0.0316413
0.0303488
0.0291022
0.0279021
0.0267486
0.0256398
0.0245719
0.0235405
0.0225418
0.0215728
0.0206314
0.0197166
0.0188276
0.0179632
0.0171205
0.0162973
0.0154925
0.014705
0.0139332
0.0131756
0.012431
0.0116991
0.0109794
0.0102709
0.00957214
0.00888168
0.00819832
0.00752131
0.00685035
0.00618507
0.00552517
0.00487019
0.00421908
0.00357062
0.00292316
0.002275
0.00162584
0.000975927
0.000325225
0.344173
0.329846
0.316293
0.303467
0.291372
0.279879
0.268982
0.258574
0.248657
0.239149
0.230053
0.221315
0.212931
0.204866
0.197113
0.189649
0.182467
0.175558
0.168911
0.162515
0.156358
0.150434
0.144736
0.139259
0.133993
0.128934
0.124068
0.119391
0.114888
0.110558
0.106388
0.102378
0.0985172
0.0948044
0.09123
0.0877881
0.0844705
0.0812722
0.0781893
0.0752217
0.0723688
0.0696308
0.0670076
0.0644936
0.0620779
0.05975
0.057503
0.055334
0.0532423
0.0512273
0.0492852
0.0474082
0.0455866
0.0438171
0.0421052
0.0404461
0.0388367
0.037281
0.0357824
0.0343407
0.0329528
0.0316142
0.0303219
0.0290752
0.0278752
0.0267221
0.0256142
0.0245473
0.0235169
0.022519
0.0215504
0.020609
0.0196936
0.0188038
0.0179382
0.0170947
0.0162711
0.0154666
0.0146798
0.0139092
0.013153
0.0124095
0.0116786
0.0109599
0.0102524
0.0095545
0.00886484
0.00818223
0.00750596
0.00683572
0.00617142
0.00551294
0.00485967
0.00421035
0.00356353
0.00291743
0.0022704
0.00162235
0.00097369
0.000324399
0.344126
0.329777
0.316218
0.303392
0.2913
0.279811
0.268916
0.258511
0.248597
0.239091
0.229996
0.22126
0.212877
0.204812
0.19706
0.189596
0.182414
0.175505
0.168859
0.162462
0.156306
0.150382
0.144684
0.139206
0.13394
0.128881
0.124014
0.119338
0.114836
0.110507
0.106338
0.102329
0.0984693
0.0947575
0.0911843
0.0877434
0.0844265
0.0812284
0.0781451
0.0751769
0.0723232
0.069585
0.0669625
0.0644505
0.0620371
0.0597112
0.0574651
0.0552962
0.0532047
0.0511908
0.0492508
0.0473762
0.045556
0.0437866
0.0420757
0.0404164
0.0388059
0.0372493
0.0357505
0.0343093
0.0329221
0.0315843
0.0302923
0.0290458
0.0278459
0.0266934
0.0255863
0.0245206
0.0234913
0.0224942
0.021526
0.0205845
0.0196685
0.0187777
0.0179107
0.0170661
0.0162421
0.0154378
0.0146519
0.0138828
0.0131281
0.0123859
0.011656
0.0109384
0.010232
0.00953514
0.00884639
0.00816463
0.00748928
0.00682014
0.00615721
0.00550036
0.00484883
0.00420118
0.00355579
0.00291089
0.00226497
0.00161817
0.000970988
0.000323395
0.344075
0.329701
0.316135
0.30331
0.291221
0.279736
0.268845
0.258443
0.248531
0.239028
0.229935
0.2212
0.212818
0.204754
0.197002
0.189538
0.182357
0.175448
0.168802
0.162405
0.156249
0.150325
0.144626
0.139149
0.133882
0.128823
0.123956
0.11928
0.11478
0.110451
0.106284
0.102275
0.098417
0.0947063
0.0911343
0.0876947
0.0843785
0.0811805
0.078097
0.0751281
0.0722736
0.0695352
0.0669135
0.0644035
0.0619927
0.0596688
0.0574239
0.0552552
0.053164
0.0511512
0.0492134
0.0473412
0.0455222
0.0437529
0.042043
0.0403836
0.038772
0.0372145
0.0357155
0.0342748
0.0328885
0.0315515
0.0302601
0.0290139
0.0278145
0.0266626
0.0255564
0.0244917
0.0234635
0.0224672
0.0214995
0.0205579
0.0196412
0.0187492
0.0178806
0.0170348
0.0162103
0.0154062
0.0146214
0.0138539
0.013101
0.01236
0.0116312
0.0109148
0.0102097
0.00951413
0.00882652
0.00814588
0.00747174
0.00680399
0.00614266
0.00548749
0.00483759
0.00419136
0.0035471
0.00290322
0.00225846
0.00161316
0.0009678
0.000322221
0.34402
0.329618
0.316046
0.303221
0.291136
0.279655
0.268767
0.258369
0.24846
0.238959
0.229868
0.221134
0.212753
0.20469
0.196939
0.189475
0.182294
0.175385
0.16874
0.162343
0.156187
0.150263
0.144565
0.139087
0.133819
0.12876
0.123894
0.119218
0.114718
0.110391
0.106225
0.102218
0.0983606
0.0946509
0.0910802
0.0876418
0.0843263
0.0811286
0.0780449
0.0750753
0.0722201
0.0694814
0.0668606
0.0643526
0.0619446
0.0596231
0.0573794
0.0552111
0.0531202
0.0511086
0.0491729
0.0473028
0.0454851
0.043716
0.042007
0.0403474
0.0387349
0.0371766
0.0356775
0.0342374
0.032852
0.0315159
0.0302254
0.0289798
0.027781
0.0266298
0.0255246
0.0244609
0.0234336
0.0224382
0.0214708
0.020529
0.0196115
0.0187182
0.0178478
0.0170007
0.0161757
0.0153721
0.0145884
0.0138227
0.0130718
0.012332
0.0116044
0.0108895
0.0101859
0.00949171
0.00880546
0.00812619
0.00745353
0.0067874
0.00612776
0.00547421
0.00482569
0.00418054
0.00353712
0.00289415
0.00225075
0.00160736
0.000964216
0.000320922
0.343961
0.329529
0.315949
0.303126
0.291045
0.279567
0.268684
0.25829
0.248384
0.238886
0.229796
0.221064
0.212684
0.204622
0.196871
0.189408
0.182227
0.175319
0.168673
0.162277
0.156121
0.150197
0.144498
0.13902
0.133752
0.128692
0.123826
0.119151
0.114652
0.110326
0.106162
0.102156
0.0982999
0.0945914
0.0910218
0.0875847
0.08427
0.0810726
0.0779888
0.0750186
0.0721627
0.0694238
0.0668038
0.0642981
0.0618929
0.0595739
0.0573317
0.055164
0.0530735
0.0510629
0.0491291
0.047261
0.0454443
0.0436755
0.0419675
0.0403076
0.0386944
0.0371356
0.0356365
0.0341969
0.0328125
0.0314776
0.0301881
0.0289435
0.0277455
0.0265952
0.0254908
0.024428
0.0234016
0.0224068
0.0214397
0.0204976
0.0195792
0.0186844
0.0178123
0.0169639
0.0161386
0.0153355
0.0145531
0.0137894
0.0130406
0.0123021
0.0115759
0.0108626
0.0101606
0.00946808
0.00878337
0.00810566
0.00743465
0.00677026
0.0061123
0.00546022
0.00481281
0.0041684
0.0035256
0.00288363
0.00224197
0.00160098
0.000960406
0.000319561
0.3439
0.329432
0.315845
0.303023
0.290946
0.279474
0.268595
0.258204
0.248302
0.238807
0.229719
0.220989
0.21261
0.204549
0.196799
0.189335
0.182156
0.175247
0.168602
0.162206
0.15605
0.150126
0.144427
0.138948
0.13368
0.128619
0.123754
0.119079
0.114582
0.110258
0.106094
0.10209
0.0982351
0.0945276
0.0909591
0.0875233
0.0842095
0.0810124
0.0779287
0.0749581
0.0721014
0.0693624
0.0667435
0.0642399
0.0618378
0.0595215
0.057281
0.055114
0.0530239
0.0510142
0.0490819
0.0472155
0.0453998
0.0436315
0.0419243
0.0402643
0.0386506
0.0370915
0.0355925
0.0341536
0.0327701
0.0314365
0.0301484
0.0289051
0.0277081
0.0265586
0.025455
0.024393
0.0233673
0.0223731
0.0214061
0.0204634
0.019544
0.0186476
0.0177738
0.0169245
0.0160991
0.0152968
0.0145159
0.0137543
0.0130076
0.0122706
0.011546
0.0108345
0.0101343
0.00944336
0.00876026
0.00808422
0.00741496
0.00675234
0.00609601
0.00544521
0.00479863
0.0041547
0.00351254
0.00287188
0.00223249
0.00159435
0.000956536
0.00031819
0.343836
0.329329
0.315734
0.302914
0.290841
0.279374
0.2685
0.258114
0.248216
0.238723
0.229637
0.220908
0.212532
0.204471
0.196721
0.189259
0.182079
0.175171
0.168527
0.16213
0.155975
0.15005
0.144351
0.138871
0.133603
0.128541
0.123677
0.119003
0.114507
0.110184
0.106023
0.102019
0.0981661
0.0944596
0.0908922
0.0874577
0.0841447
0.0809482
0.0778647
0.0748938
0.0720364
0.0692974
0.0666796
0.0641782
0.0617792
0.0594658
0.0572272
0.0550611
0.0529714
0.0509622
0.0490312
0.0471661
0.0453514
0.0435839
0.0418774
0.0402172
0.0386035
0.0370444
0.0355457
0.0341073
0.0327249
0.0313927
0.0301063
0.0288646
0.0276688
0.0265202
0.0254172
0.0243558
0.0233306
0.0223367
0.0213696
0.0204263
0.0195056
0.0186076
0.0177325
0.0168825
0.0160575
0.0152563
0.0144771
0.0137176
0.012973
0.0122376
0.0115149
0.0108052
0.0101068
0.00941749
0.00873603
0.00806169
0.00739421
0.00673334
0.00607856
0.00542887
0.00478296
0.00413946
0.00349822
0.00285956
0.00222289
0.00158762
0.000952667
0.000316827
0.343767
0.329218
0.315615
0.302797
0.29073
0.279268
0.268399
0.258017
0.248123
0.238634
0.229551
0.220823
0.212448
0.204388
0.196639
0.189177
0.181998
0.17509
0.168446
0.16205
0.155895
0.14997
0.14427
0.13879
0.133521
0.128459
0.123595
0.118922
0.114427
0.110107
0.105947
0.101945
0.0980929
0.0943875
0.0908211
0.0873877
0.0840757
0.08088
0.077797
0.0748257
0.0719677
0.0692289
0.0666124
0.0641132
0.0617173
0.0594069
0.0571702
0.0550051
0.0529158
0.050907
0.0489768
0.0471127
0.045299
0.0435326
0.0418267
0.0401667
0.0385532
0.0369944
0.0354961
0.0340583
0.0326769
0.0313462
0.0300617
0.0288218
0.0276274
0.0264797
0.0253773
0.0243162
0.0232913
0.0222975
0.0213301
0.0203859
0.0194638
0.0185644
0.0176885
0.0168382
0.016014
0.0152143
0.014437
0.0136795
0.0129368
0.0122033
0.0114826
0.0107748
0.010078
0.00939032
0.00871046
0.00803781
0.0073721
0.00671299
0.00605972
0.00541106
0.00476581
0.00412317
0.00348374
0.00284711
0.00221305
0.00158093
0.000949011
0.000315512
0.343697
0.329099
0.31549
0.302674
0.290612
0.279156
0.268292
0.257916
0.248026
0.238539
0.229459
0.220733
0.212359
0.2043
0.196552
0.18909
0.181912
0.175005
0.168361
0.161966
0.15581
0.149885
0.144185
0.138704
0.133434
0.128372
0.123508
0.118836
0.114343
0.110025
0.105867
0.101866
0.0980154
0.0943111
0.0907456
0.0873134
0.0840026
0.0808078
0.0777254
0.0747541
0.0718957
0.0691572
0.0665421
0.064045
0.061652
0.0593446
0.05711
0.054946
0.0528571
0.0508484
0.0489185
0.0470553
0.0452427
0.0434776
0.0417722
0.0401126
0.0384998
0.0369417
0.0354439
0.0340065
0.032626
0.031297
0.0300146
0.0287768
0.027584
0.0264371
0.0253351
0.0242741
0.0232492
0.0222552
0.0212872
0.020342
0.0194187
0.018518
0.0176418
0.0167918
0.015969
0.015171
0.0143958
0.0136402
0.0128992
0.0121677
0.011449
0.010743
0.0100478
0.00936155
0.00868326
0.00801234
0.00734846
0.00669114
0.00603939
0.00539199
0.00474826
0.00410693
0.00346878
0.00283428
0.00220326
0.00157458
0.000945768
0.000314321
0.343623
0.328973
0.315356
0.302544
0.290488
0.279037
0.26818
0.257808
0.247923
0.23844
0.229362
0.220638
0.212266
0.204208
0.19646
0.188999
0.181822
0.174914
0.168272
0.161877
0.155721
0.149796
0.144095
0.138613
0.133343
0.12828
0.123417
0.118746
0.114255
0.109939
0.105782
0.101783
0.0979337
0.0942305
0.090666
0.0872349
0.0839254
0.0807319
0.0776503
0.0746791
0.0718204
0.0690826
0.0664689
0.0639736
0.0615832
0.0592787
0.0570462
0.0548834
0.0527949
0.0507861
0.0488563
0.0469938
0.0451825
0.043419
0.0417142
0.0400554
0.0384436
0.0368865
0.0353891
0.033952
0.0325723
0.031245
0.0299649
0.0287293
0.0275382
0.0263922
0.0252904
0.0242293
0.0232042
0.0222096
0.0212408
0.0202946
0.0193702
0.0184687
0.0175928
0.0167436
0.0159226
0.0151268
0.0143536
0.0135996
0.0128601
0.0121306
0.0114138
0.0107094
0.0100157
0.00933092
0.00865422
0.00798511
0.00732321
0.006668
0.00601841
0.00537291
0.00473027
0.00408993
0.00345353
0.00282166
0.00219396
0.00156879
0.000943021
0.000313389
0.343549
0.328838
0.315215
0.302407
0.290357
0.278913
0.268062
0.257696
0.247815
0.238336
0.229261
0.220539
0.212168
0.204111
0.196364
0.188903
0.181727
0.17482
0.168178
0.161783
0.155628
0.149702
0.144001
0.138518
0.133247
0.128183
0.12332
0.118651
0.114162
0.109848
0.105694
0.101696
0.0978477
0.0941456
0.0905822
0.0871522
0.0838443
0.0806522
0.0775717
0.0746009
0.0717424
0.0690052
0.0663929
0.0638992
0.0615109
0.0592091
0.0569788
0.0548172
0.0527292
0.0507201
0.0487901
0.0469282
0.0451185
0.0433571
0.0416529
0.0399952
0.0383849
0.0368288
0.0353317
0.0338947
0.0325159
0.0311903
0.0299125
0.0286793
0.02749
0.0263448
0.025243
0.0241816
0.0231559
0.0221606
0.0211908
0.0202437
0.0193185
0.0184166
0.0175419
0.016694
0.0158752
0.0150816
0.0143103
0.0135577
0.0128192
0.0120916
0.0113767
0.0106738
0.00998147
0.00929822
0.00862346
0.00795655
0.00729707
0.00664422
0.00599669
0.00535282
0.00471152
0.00407275
0.00343863
0.00280975
0.00218531
0.00156333
0.00094115
0.000312872
0.343472
0.328696
0.315066
0.302263
0.29022
0.278782
0.267938
0.257577
0.247702
0.238226
0.229154
0.220434
0.212065
0.204009
0.196263
0.188803
0.181627
0.174721
0.168079
0.161685
0.15553
0.149604
0.143901
0.138418
0.133146
0.128082
0.12322
0.118551
0.114064
0.109752
0.1056
0.101604
0.0977573
0.0940565
0.0904943
0.0870656
0.0837593
0.0805691
0.0774898
0.0745197
0.0716617
0.0689255
0.0663143
0.0638217
0.0614349
0.0591354
0.0569073
0.0547471
0.0526595
0.0506502
0.0487199
0.0468586
0.045051
0.0432921
0.0415886
0.0399325
0.0383238
0.0367687
0.0352716
0.0338344
0.0324566
0.031133
0.0298575
0.0286266
0.027439
0.0262947
0.0251929
0.0241309
0.0231044
0.0221081
0.0211373
0.0201894
0.0192638
0.0183623
0.0174894
0.0166432
0.0158268
0.0150355
0.0142658
0.0135141
0.0127765
0.0120506
0.0113372
0.0106359
0.00994535
0.00926404
0.00859121
0.00792651
0.00726954
0.00661922
0.00597399
0.00533211
0.00469264
0.00405589
0.00342467
0.0027987
0.00217675
0.00155882
0.000940384
0.000312806
0.343393
0.328546
0.31491
0.302112
0.290076
0.278646
0.267808
0.257454
0.247583
0.238112
0.229043
0.220325
0.211958
0.203902
0.196157
0.188697
0.181522
0.174617
0.167976
0.161582
0.155428
0.149501
0.143798
0.138313
0.13304
0.127976
0.123114
0.118447
0.113962
0.109652
0.105502
0.101507
0.0976624
0.0939631
0.0904023
0.086975
0.0836707
0.0804825
0.0774049
0.0744359
0.0715789
0.0688436
0.0662333
0.0637411
0.0613551
0.0590575
0.0568314
0.0546727
0.0525858
0.0505763
0.0486456
0.0467851
0.04498
0.0432241
0.0415217
0.0398673
0.0382604
0.036706
0.0352082
0.0337709
0.0323944
0.0310733
0.0298003
0.0285713
0.0273853
0.0262418
0.0251398
0.024077
0.0230495
0.022052
0.0210802
0.0201318
0.0192064
0.018306
0.0174357
0.0165916
0.0157777
0.0149882
0.0142197
0.0134686
0.0127316
0.0120072
0.0112955
0.010596
0.00990715
0.0092277
0.00855703
0.00789492
0.00724083
0.00659334
0.00595071
0.00531123
0.00467422
0.00404034
0.00341178
0.0027876
0.00216934
0.00155559
0.000940528
0.000313032
0.343312
0.328388
0.314746
0.301954
0.289925
0.278503
0.267673
0.257324
0.247459
0.237992
0.228926
0.220211
0.211845
0.203791
0.196046
0.188587
0.181413
0.174508
0.167869
0.161475
0.155321
0.149394
0.14369
0.138204
0.13293
0.127866
0.123004
0.118338
0.113855
0.109548
0.105399
0.101407
0.0975632
0.0938654
0.0903062
0.0868806
0.0835785
0.0803926
0.0773171
0.0743497
0.0714941
0.0687597
0.0661497
0.0636574
0.0612714
0.0589749
0.0567509
0.0545938
0.0525078
0.0504984
0.0485675
0.0467079
0.0449056
0.0431533
0.0414526
0.0398
0.0381947
0.0366403
0.0351419
0.0337046
0.0323292
0.0310105
0.0297405
0.0285138
0.027329
0.026186
0.0250837
0.0240199
0.0229911
0.0219925
0.0210199
0.0200713
0.0191468
0.0182482
0.0173808
0.0165391
0.0157275
0.0149396
0.0141717
0.0134209
0.0126846
0.0119615
0.0112514
0.0105535
0.00986651
0.00918923
0.00852117
0.00786208
0.00721128
0.00656699
0.00592737
0.00529085
0.00465687
0.00402532
0.00339879
0.00277793
0.00216357
0.00155349
0.000941064
0.000313248
0.34323
0.32822
0.314574
0.301789
0.289769
0.278355
0.267532
0.25719
0.247331
0.237868
0.228805
0.220092
0.211728
0.203675
0.195931
0.188472
0.181299
0.174395
0.167757
0.161364
0.15521
0.149282
0.143577
0.13809
0.132816
0.127751
0.122889
0.118225
0.113743
0.109438
0.105292
0.101301
0.0974596
0.0937636
0.0902061
0.0867824
0.0834828
0.0802996
0.0772266
0.0742613
0.0714075
0.068674
0.0660637
0.0635704
0.0611835
0.0588876
0.0566654
0.0545104
0.0524256
0.0504165
0.0484855
0.0466271
0.044828
0.0430795
0.0413813
0.0397307
0.0381266
0.0365722
0.0350733
0.0336356
0.0322609
0.0309444
0.0296775
0.0284536
0.0272704
0.0261275
0.0250246
0.0239597
0.0229294
0.0219296
0.0209564
0.0200081
0.019085
0.0181889
0.0173241
0.0164856
0.015676
0.0148891
0.0141215
0.0133709
0.0126352
0.0119132
0.0112046
0.0105085
0.00982352
0.00914888
0.00848403
0.00782859
0.00718152
0.00654059
0.00590421
0.00527071
0.0046394
0.00401089
0.00338763
0.00277021
0.0021593
0.00155207
0.000941347
0.000313126
0.343149
0.328042
0.314394
0.301617
0.289606
0.2782
0.267385
0.25705
0.247197
0.237738
0.228679
0.219969
0.211607
0.203554
0.195811
0.188353
0.181181
0.174278
0.167641
0.161248
0.155094
0.149166
0.14346
0.137972
0.132697
0.127632
0.12277
0.118107
0.113627
0.109324
0.10518
0.101191
0.0973516
0.0936576
0.090102
0.0866805
0.0833836
0.0802036
0.0771335
0.0741709
0.0713192
0.0685864
0.0659753
0.0634801
0.0610914
0.0587953
0.056575
0.0544223
0.0523391
0.0503306
0.0484
0.0465428
0.0447471
0.0430028
0.0413077
0.0396594
0.0380567
0.0365022
0.0350024
0.033564
0.0321895
0.0308748
0.0296111
0.0283902
0.0272089
0.0260667
0.0249629
0.0238964
0.0228646
0.0218636
0.0208901
0.0199425
0.0190213
0.0181283
0.0172661
0.0164309
0.0156227
0.0148362
0.0140688
0.0133183
0.0125831
0.0118623
0.0111552
0.010461
0.00977862
0.00910734
0.00844608
0.00779405
0.00715063
0.00651376
0.00588123
0.0052513
0.00462341
0.00399842
0.00337843
0.00276417
0.00215601
0.00155073
0.000940779
0.000312419
0.343067
0.327855
0.314206
0.301439
0.289436
0.278039
0.267232
0.256905
0.247058
0.237604
0.228549
0.219841
0.21148
0.203429
0.195686
0.188229
0.181058
0.174156
0.16752
0.161128
0.154974
0.149045
0.143339
0.13785
0.132573
0.127508
0.122647
0.117984
0.113506
0.109204
0.105062
0.101076
0.0972393
0.0935474
0.089994
0.0865748
0.0832811
0.0801046
0.0770382
0.0740786
0.0712292
0.0684969
0.0658842
0.0633864
0.0609951
0.0586981
0.0564795
0.0543295
0.0522484
0.050241
0.048311
0.0464554
0.0446632
0.0429234
0.0412318
0.0395861
0.037985
0.0364304
0.0349294
0.0334898
0.0321151
0.0308018
0.029541
0.0283234
0.0271443
0.0260029
0.0248987
0.0238308
0.022797
0.0217949
0.0208212
0.0198747
0.0189558
0.0180661
0.0172066
0.0163742
0.015567
0.0147807
0.0140132
0.0132629
0.0125285
0.0118088
0.0111035
0.0104116
0.00973208
0.00906397
0.00840652
0.00775904
0.00712024
0.00648773
0.00585922
0.00523306
0.00460877
0.00398733
0.00337056
0.00275907
0.00215296
0.00154882
0.00093891
0.000311017
0.342983
0.327659
0.31401
0.301253
0.28926
0.277873
0.267075
0.256755
0.246913
0.237465
0.228413
0.219708
0.211349
0.203299
0.195557
0.1881
0.18093
0.17403
0.167394
0.161003
0.154849
0.14892
0.143212
0.137722
0.132445
0.127379
0.122518
0.117856
0.113379
0.10908
0.104941
0.100957
0.0971227
0.0934332
0.089882
0.0864655
0.0831752
0.0800029
0.0769405
0.0739844
0.0711372
0.0684053
0.0657904
0.0632892
0.0608945
0.0585959
0.056379
0.0542323
0.0521539
0.050148
0.048219
0.0463651
0.0445765
0.0428412
0.0411535
0.0395109
0.0379115
0.0363568
0.0348542
0.0334129
0.0320375
0.0307253
0.0294672
0.028253
0.0270764
0.0259361
0.0248316
0.0237625
0.0227273
0.021724
0.0207502
0.0198048
0.0188883
0.0180017
0.0171451
0.016315
0.0155087
0.0147224
0.0139549
0.0132049
0.0124712
0.0117529
0.0110494
0.01036
0.00968383
0.00902001
0.00836748
0.00772501
0.00709086
0.00646258
0.00583798
0.00521556
0.00459489
0.00397698
0.00336333
0.00275444
0.00214965
0.00154578
0.000935498
0.000308954
0.3429
0.327453
0.313806
0.301061
0.289078
0.2777
0.266911
0.256599
0.246764
0.237321
0.228273
0.21957
0.211214
0.203164
0.195423
0.187967
0.180798
0.173898
0.167264
0.160874
0.15472
0.14879
0.143082
0.13759
0.132313
0.127247
0.122386
0.117724
0.113249
0.108951
0.104814
0.100834
0.097002
0.093315
0.0897662
0.0863527
0.0830662
0.0798984
0.0768406
0.0738881
0.0710432
0.0683112
0.0656938
0.0631885
0.0607897
0.0584891
0.0562738
0.054131
0.0520559
0.050052
0.0481244
0.0462724
0.0444872
0.0427565
0.041073
0.0394336
0.037836
0.0362811
0.0347768
0.0333334
0.0319569
0.0306454
0.02939
0.0281791
0.0270052
0.025866
0.0247616
0.0236914
0.0226548
0.0216507
0.020677
0.0197328
0.0188186
0.0179352
0.0170813
0.0162531
0.0154473
0.014661
0.0138935
0.013144
0.0124113
0.0116945
0.0109933
0.0103073
0.00963552
0.00897676
0.00832951
0.00769206
0.00706237
0.00643804
0.00581708
0.0051982
0.00458106
0.00396656
0.00335591
0.00274931
0.00214501
0.0015411
0.000930508
0.000306372
0.342817
0.327235
0.313594
0.300862
0.28889
0.277522
0.266742
0.256438
0.24661
0.237172
0.228128
0.219428
0.211074
0.203025
0.195285
0.187829
0.180661
0.173763
0.16713
0.16074
0.154587
0.148656
0.142946
0.137454
0.132176
0.127109
0.122249
0.117587
0.113113
0.108817
0.104683
0.100706
0.0968772
0.0931927
0.0896466
0.0862363
0.0829541
0.0797912
0.0767382
0.0737894
0.0709465
0.0682144
0.0655941
0.0630844
0.0606809
0.0583779
0.0561643
0.054026
0.0519548
0.0499534
0.0480275
0.0461774
0.0443955
0.0426693
0.04099
0.0393539
0.0377582
0.0362031
0.0346969
0.0332511
0.0318734
0.0305625
0.0293094
0.0281018
0.0269307
0.025793
0.0246886
0.0236175
0.0225798
0.021575
0.0206016
0.0196587
0.0187468
0.0178662
0.0170145
0.0161877
0.0153822
0.0145961
0.013829
0.0130803
0.012349
0.0116344
0.0109364
0.0102547
0.00958796
0.00893456
0.00829257
0.00765992
0.00703437
0.00641365
0.005796
0.0051804
0.00456667
0.00395548
0.00334771