/*--------------------------------*- C++ -*----------------------------------*\
| =========                 |                                                 |
| \\      /  F ield         | OpenFOAM: The Open Source CFD Toolbox           |
|  \\    /   O peration     | Version:  4.1                                   |
|   \\  /    A nd           | Web:      www.OpenFOAM.org                      |
|    \\/     M anipulation  |                                                 |
\*---------------------------------------------------------------------------*/
FoamFile
{
    version     2.0;
    format      ascii;
    class       surfaceScalarField;
    location    "8";
    object      phi;
}
// * * * * * * * * * * * * * * * * * * * * * * * * * * * * * * * * * * * * * //

dimensions      [0 3 -1 0 0 0 0];

internalField   nonuniform List<scalar> 
52920
(
16.8878
-0.00357647
16.8688
0.0189652
16.8282
0.0405934
16.7679
0.0603341
16.6894
0.0785136
16.5944
0.0949179
16.4845
0.109889
16.3612
0.123374
16.2254
0.135722
16.0785
0.146905
15.9214
0.157156
15.755
0.166388
15.5803
0.174709
15.398
0.182262
15.2093
0.188763
15.0146
0.194675
14.8149
0.199657
14.6109
0.204041
14.4031
0.207765
14.1921
0.210997
13.9786
0.213556
13.7627
0.215835
13.5451
0.217609
13.3262
0.218914
13.1062
0.220058
12.8855
0.22063
12.6646
0.220932
12.4435
0.221069
12.2227
0.220806
12.0024
0.220336
11.7827
0.219714
11.564
0.218646
11.3466
0.217394
11.1305
0.216085
10.9161
0.214427
10.7035
0.212653
10.4927
0.210733
10.2844
0.208321
10.0787
0.205663
9.87587
0.202884
9.67594
0.199924
9.4788
0.197144
9.28418
0.194616
9.09206
0.192123
8.90245
0.189607
8.7156
0.186849
8.53193
0.183668
8.35173
0.180201
8.17501
0.176726
8.00154
0.17347
7.83108
0.170456
7.66352
0.167566
7.49892
0.164599
7.33757
0.161344
7.17986
0.157711
7.0261
0.153764
6.87644
0.149665
6.7308
0.145636
6.58897
0.141833
6.45071
0.138254
6.31594
0.134774
6.18472
0.131215
6.05726
0.127466
5.93368
0.123572
5.81404
0.11964
5.69829
0.115755
5.58633
0.111964
5.47809
0.108239
5.37358
0.104512
5.27283
0.100745
5.17592
0.0969155
5.08289
0.093026
4.99377
0.089117
4.90834
0.085432
4.82653
0.0818074
4.74864
0.0778928
4.67472
0.0739172
4.60481
0.0699139
4.53891
0.0658972
4.47704
0.0618755
4.41919
0.057849
4.36537
0.053813
4.31562
0.0497498
4.26999
0.0456344
4.22854
0.0414535
4.19134
0.0372007
4.15847
0.0328687
4.13001
0.0284537
4.10606
0.0239549
4.08668
0.0193755
4.07195
0.0147293
4.06192
0.0100335
4.05663
0.00529575
4.05612
0.000507605
4.06046
-0.00434058
4.06967
-0.00921309
4.08397
-0.0142959
4.10352
-0.0195536
4.12848
-0.0249546
-0.0304358
16.8876
-0.00731852
16.8686
0.0379355
16.828
0.0812092
16.7676
0.120682
16.6891
0.157054
16.5942
0.189844
16.4843
0.219788
16.3609
0.246757
16.2251
0.271447
16.0782
0.293819
15.9211
0.314311
15.7547
0.332806
15.5799
0.349432
15.3976
0.36457
15.2088
0.377552
15.0141
0.389387
14.8145
0.399331
14.6104
0.408081
14.4027
0.415506
14.1917
0.421977
13.9781
0.427115
13.7623
0.431685
13.5446
0.435282
13.3257
0.437875
13.1055
0.440164
12.8849
0.441302
12.6639
0.44186
12.4429
0.442152
12.222
0.441637
12.0017
0.440657
11.782
0.439422
11.5634
0.437301
11.346
0.434751
11.1299
0.432164
10.9155
0.428884
10.7028
0.425303
10.492
0.421501
10.2837
0.416707
10.078
0.411336
9.87508
0.405784
9.67512
0.399878
9.478
0.394268
9.28338
0.389234
9.09122
0.384283
8.9016
0.379225
8.71477
0.37368
8.53117
0.367273
8.35107
0.360301
8.17442
0.353375
8.00096
0.346929
7.83046
0.34095
7.66285
0.335181
7.4982
0.329248
7.33681
0.322729
7.1791
0.315428
7.02537
0.307494
6.87577
0.299266
6.73019
0.291211
6.58837
0.283654
6.45008
0.276543
6.31527
0.269588
6.18404
0.262441
6.0566
0.254908
5.93307
0.2471
5.81346
0.239251
5.6977
0.231514
5.58571
0.223951
5.47744
0.216514
5.37289
0.209064
5.27212
0.201519
5.17517
0.193859
5.08212
0.186083
4.99297
0.178265
4.90753
0.170868
4.8257
0.163642
4.74779
0.155803
4.67386
0.14784
4.60396
0.139821
4.53808
0.131774
4.47623
0.123721
4.41842
0.115664
4.36464
0.107589
4.31493
0.0994629
4.26933
0.091233
4.22791
0.0828696
4.19075
0.0743648
4.15791
0.0657065
4.12949
0.0568789
4.10556
0.0478807
4.08621
0.0387255
4.0715
0.0294424
4.06147
0.0200666
4.05615
0.010618
4.05559
0.00106747
4.05987
-0.00861564
4.06902
-0.018366
4.08326
-0.0285316
4.10274
-0.0390379
4.12761
-0.0498221
-0.0607715
16.8871
-0.0111356
16.8681
0.0569285
16.8275
0.121859
16.7671
0.181066
16.6885
0.23563
16.5936
0.284798
16.4837
0.329705
16.3603
0.370162
16.2245
0.407178
16.0776
0.440751
15.9204
0.471472
15.754
0.499269
15.5792
0.524209
15.3968
0.546953
15.2079
0.566423
15.0132
0.584149
14.8135
0.599016
14.6095
0.612094
14.4018
0.623191
14.1908
0.632927
13.9772
0.640722
13.7613
0.647607
13.5435
0.653077
13.3244
0.656954
13.1043
0.660329
12.8835
0.66204
12.6626
0.662821
12.4415
0.663241
12.2206
0.662498
12.0003
0.660966
11.7807
0.659078
11.562
0.655953
11.3447
0.652098
11.1286
0.648212
10.9141
0.643377
10.7014
0.637983
10.4906
0.632291
10.2822
0.62519
10.0764
0.617084
9.87347
0.608731
9.67343
0.599921
9.47625
0.591445
9.28162
0.583861
9.08946
0.576442
8.89992
0.568769
8.71323
0.560366
8.52977
0.550734
8.34976
0.540312
8.17313
0.530007
7.99964
0.520415
7.82911
0.511485
7.66147
0.502821
7.49682
0.493898
7.33544
0.484107
7.17776
0.473107
7.0241
0.461155
6.87455
0.448824
6.72897
0.436781
6.58713
0.425495
6.44883
0.41485
6.31404
0.404376
6.18288
0.393598
6.05551
0.382282
5.93202
0.370587
5.81241
0.358863
5.69661
0.347315
5.58456
0.335994
5.47624
0.324837
5.37164
0.313665
5.27081
0.302348
5.17381
0.290863
5.08068
0.279215
4.99145
0.267494
4.90597
0.256339
4.82408
0.24554
4.74612
0.233754
4.67219
0.221775
4.6023
0.209715
4.53646
0.19761
4.47468
0.185503
4.41694
0.173403
4.36325
0.16128
4.31363
0.149076
4.26814
0.136726
4.22682
0.124187
4.18975
0.111437
4.157
0.0984579
4.12865
0.0852289
4.10478
0.0717477
4.08547
0.0580413
4.07075
0.0441613
4.06066
0.0301554
4.05525
0.0160308
4.05458
0.00173671
4.05873
-0.0127669
4.06774
-0.0273718
4.08183
-0.0426185
4.10114
-0.0583525
4.12581
-0.0744933
-0.0909329
16.8865
-0.0149427
16.8675
0.0759583
16.8268
0.162561
16.7663
0.241503
16.6877
0.314256
16.5927
0.379795
16.4828
0.43965
16.3593
0.493599
16.2236
0.54292
16.0766
0.58771
15.9194
0.628652
15.7529
0.66579
15.5781
0.699076
15.3956
0.729437
15.2066
0.755416
15.0118
0.778974
14.8121
0.798702
14.6081
0.816069
14.4005
0.830814
14.1895
0.843852
13.9759
0.854416
13.7598
0.863649
13.5419
0.871035
13.3226
0.876199
13.1024
0.880569
12.8816
0.882859
12.6605
0.88385
12.4394
0.884338
12.2185
0.883381
11.9982
0.881277
11.7786
0.878676
11.56
0.874594
11.3426
0.869454
11.1266
0.864225
10.9121
0.857904
10.6994
0.850721
10.4885
0.843105
10.28
0.833779
10.0741
0.822953
9.87107
0.811745
9.67093
0.800066
9.47366
0.788713
9.27902
0.778504
9.08689
0.768563
8.89748
0.758188
8.71098
0.746861
8.52769
0.734028
8.34775
0.720245
8.17111
0.706648
7.99759
0.69394
7.82701
0.682058
7.65936
0.670479
7.49473
0.658526
7.3334
0.645441
7.17579
0.630716
7.02222
0.614725
6.87271
0.598331
6.72713
0.58236
6.58528
0.567351
6.44698
0.553148
6.31225
0.539107
6.18119
0.524655
6.0539
0.50957
5.93045
0.494044
5.81081
0.478496
5.69495
0.463179
5.58283
0.448115
5.47443
0.433232
5.36976
0.418343
5.26884
0.403266
5.17174
0.387965
5.0785
0.372456
4.98916
0.356837
4.90363
0.341862
4.82166
0.327516
4.74365
0.311759
4.6697
0.295722
4.59984
0.279582
4.53405
0.263396
4.47235
0.247206
4.41472
0.231036
4.36115
0.214849
4.31166
0.198559
4.26631
0.18208
4.22513
0.165369
4.18817
0.148397
4.15551
0.131119
4.12723
0.11351
4.10339
0.0955802
4.08407
0.0773668
4.0693
0.0589301
4.05913
0.0403323
4.05358
0.0215788
4.05275
0.0025657
4.05673
-0.0167504
4.06558
-0.036214
4.07946
-0.0564997
4.09854
-0.0774354
4.12298
-0.0989329
-0.120904
16.8857
-0.0186561
16.8666
0.0950335
16.8258
0.203331
16.7653
0.302012
16.6866
0.392943
16.5916
0.474849
16.4816
0.549638
16.3581
0.617082
16.2223
0.678684
16.0753
0.734712
15.9181
0.785867
15.7515
0.832386
15.5765
0.874058
15.3939
0.912038
15.2048
0.94455
15.0099
0.973871
14.8102
0.998388
14.6063
1.02001
14.3987
1.03839
14.1878
1.05477
13.974
1.06823
13.7578
1.07985
13.5396
1.08917
13.3202
1.09563
13.0999
1.1009
12.879
1.10377
12.6578
1.10497
12.4367
1.10545
12.2158
1.10428
11.9955
1.10161
11.7759
1.09824
11.5573
1.09323
11.3399
1.08684
11.1239
1.08021
10.9094
1.07245
10.6966
1.06353
10.4857
1.05395
10.277
1.04246
10.071
1.02896
9.86794
1.01484
9.66769
1.00031
9.47031
0.986089
9.27564
0.973169
9.08359
0.960622
8.89432
0.947458
8.70802
0.93316
8.52487
0.917171
8.34499
0.900123
8.16832
0.883325
7.99474
0.867521
7.82413
0.852661
7.65648
0.838135
7.4919
0.823103
7.33066
0.806683
7.17317
0.788211
7.01972
0.768173
6.87028
0.747769
6.7247
0.727942
6.58283
0.709215
6.44457
0.691408
6.30993
0.673751
6.17899
0.65559
6.0518
0.636766
5.92835
0.617491
5.80867
0.598179
5.69272
0.579124
5.5805
0.560339
5.472
0.541731
5.36722
0.523125
5.26618
0.504303
5.16896
0.48519
5.07559
0.465823
4.98612
0.446312
4.90052
0.427456
4.81847
0.409567
4.74041
0.389815
4.66645
0.369683
4.59661
0.349423
4.53089
0.329121
4.46927
0.308824
4.41175
0.288555
4.35832
0.268282
4.30898
0.247897
4.26376
0.227301
4.22268
0.206447
4.1858
0.185277
4.15319
0.163729
4.12493
0.141768
4.10109
0.11942
4.08171
0.0967437
4.06684
0.0738051
4.05651
0.0506598
4.0508
0.027297
4.04979
0.00357414
4.05358
-0.0205434
4.06223
-0.0448606
4.07592
-0.070193
4.0948
-0.096315
4.11904
-0.123166
-0.150705
16.8846
-0.0222972
16.8654
0.114153
16.8246
0.24416
16.764
0.362607
16.6853
0.471706
16.5901
0.569976
16.4801
0.659683
16.3565
0.740627
16.2207
0.814486
16.0737
0.881774
15.9164
0.943134
15.7497
0.99907
15.5746
1.04917
15.3919
1.09476
15.2026
1.13383
15.0076
1.16885
14.8079
1.19808
14.604
1.22394
14.3964
1.24596
14.1855
1.26571
13.9715
1.2822
13.7552
1.29623
13.5368
1.30749
13.3172
1.31527
13.0968
1.32133
12.8758
1.32476
12.6546
1.3262
12.4334
1.3266
12.2125
1.3252
11.9921
1.32199
11.7725
1.31779
11.5539
1.31187
11.3365
1.30429
11.1205
1.2962
10.9059
1.28701
10.693
1.27641
10.4822
1.26483
10.2734
1.2512
10.0673
1.23508
9.86411
1.21801
9.66377
1.20066
9.46628
1.18358
9.27158
1.16787
9.07959
1.15262
8.89046
1.13658
8.70433
1.11929
8.52129
1.10021
8.34143
1.07999
8.16469
1.06007
7.99103
1.04118
7.82041
1.02328
7.65279
1.00576
7.48832
0.987581
7.32722
0.967774
7.16991
0.94553
7.01662
0.921457
6.86728
0.897116
6.7217
0.873515
6.57984
0.851075
6.44165
0.829605
6.3071
0.808293
6.17626
0.786431
6.04912
0.763913
5.92565
0.740959
5.80589
0.717935
5.68986
0.695161
5.57753
0.672669
5.46891
0.650346
5.36401
0.628026
5.26284
0.605475
5.16547
0.58256
5.07197
0.559326
4.98236
0.535914
4.89669
0.513128
4.81457
0.491691
4.73647
0.467914
4.66249
0.44366
4.59267
0.419247
4.52699
0.394795
4.46546
0.370362
4.40804
0.345974
4.35472
0.321597
4.3055
0.297115
4.26036
0.27244
4.21934
0.247474
4.18248
0.222128
4.14988
0.196333
4.12159
0.170055
4.09768
0.143332
4.07819
0.116237
4.06316
0.0888413
4.05263
0.0611831
4.0467
0.0332347
4.04547
0.00480169
4.04907
-0.0241404
4.05755
-0.0533406
4.07108
-0.0837258
4.08981
-0.115047
4.11392
-0.14727
-0.180387
16.8833
-0.0261708
16.8641
0.133352
16.8232
0.285078
16.7625
0.423304
16.6836
0.55056
16.5884
0.665192
16.4783
0.769803
16.3547
0.864254
16.2188
0.950348
16.0717
1.02892
15.9143
1.10048
15.7475
1.16585
15.5723
1.22441
15.3895
1.2776
15.2001
1.32324
15.005
1.36391
14.8053
1.3978
14.6013
1.42789
14.3937
1.45358
14.1827
1.47672
13.9685
1.49635
13.752
1.5128
13.5335
1.52598
13.3137
1.53509
13.0931
1.54187
12.8721
1.54583
12.6507
1.54755
12.4295
1.54781
12.2085
1.54616
11.9881
1.54246
11.7685
1.5374
11.5498
1.53054
11.3323
1.52182
11.1163
1.51221
10.9017
1.50156
10.6888
1.48935
10.4779
1.47572
10.2691
1.45996
10.0629
1.44129
9.85966
1.42126
9.65923
1.40109
9.46162
1.3812
9.26687
1.36261
9.07493
1.34456
8.88591
1.3256
8.6999
1.3053
8.51691
1.28319
8.33701
1.25989
8.16017
1.2369
7.98643
1.21492
7.8158
1.19391
7.64827
1.17329
7.48395
1.1519
7.32308
1.12864
7.16602
1.10259
7.01292
1.07455
6.86367
1.04636
6.71814
1.01905
6.5763
0.99291
6.43817
0.967733
6.30372
0.942747
6.17293
0.917216
6.0458
0.891048
5.92229
0.864471
5.80244
0.837784
5.68629
0.811307
5.57385
0.785116
5.46511
0.759086
5.36008
0.733048
5.25879
0.706767
5.16129
0.680066
5.06765
0.652961
4.97794
0.625627
4.8922
0.598871
4.81001
0.573877
4.73187
0.546053
4.65788
0.517652
4.58806
0.489069
4.52241
0.460444
4.46092
0.43185
4.40357
0.403327
4.35032
0.374844
4.30114
0.346291
4.25602
0.317562
4.21499
0.288509
4.17811
0.259008
4.14545
0.228991
4.11707
0.198433
4.09303
0.167376
4.07336
0.135909
4.05809
0.104105
4.04731
0.0719694
4.0411
0.0394375
4.03965
0.00625687
4.04306
-0.027554
4.05141
-0.0616896
4.06487
-0.0971791
4.08356
-0.133735
4.10763
-0.171341
-0.210003
16.8818
-0.0302009
16.8626
0.152642
16.8215
0.326101
16.7607
0.484116
16.6818
0.629519
16.5864
0.760512
16.4762
0.880018
16.3525
0.987987
16.2165
1.0863
16.0693
1.17617
15.9119
1.25792
15.745
1.33274
15.5696
1.39978
15.3867
1.46053
15.1971
1.51277
15.002
1.55905
14.8022
1.59757
14.5982
1.63192
14.3905
1.66131
14.1793
1.68784
13.965
1.7107
13.7482
1.72956
13.5296
1.7446
13.3096
1.75508
13.0889
1.76251
12.8678
1.76698
12.6463
1.76901
12.4251
1.7691
12.204
1.76717
11.9834
1.76304
11.7637
1.75712
11.545
1.74929
11.3274
1.73945
11.1113
1.72827
10.8968
1.7161
10.6838
1.70231
10.4729
1.68661
10.2642
1.66868
10.0579
1.64754
9.85462
1.62457
9.65411
1.60161
9.45637
1.57893
9.26155
1.55743
9.06962
1.53649
8.88066
1.51456
8.69471
1.49126
8.5117
1.4662
8.33169
1.4399
8.15473
1.41386
7.98089
1.38875
7.81028
1.36452
7.64289
1.34068
7.4788
1.316
7.31822
1.28922
7.16148
1.25933
7.00859
1.22744
6.85945
1.1955
6.71398
1.16453
6.57218
1.13471
6.43411
1.1058
6.29973
1.07713
6.16896
1.04798
6.0418
1.01821
5.91821
0.988053
5.79825
0.957743
5.68198
0.927578
5.56941
0.897685
5.46055
0.867952
5.35541
0.838188
5.25402
0.808158
5.15642
0.777664
5.06269
0.746694
4.97289
0.71542
4.8871
0.684665
4.80487
0.656103
4.7267
0.624229
4.65268
0.59167
4.58283
0.558913
4.51717
0.526109
4.45568
0.493342
4.39832
0.460679
4.34506
0.42811
4.29583
0.395514
4.25065
0.362747
4.20953
0.329624
4.17255
0.295987
4.13978
0.261766
4.11125
0.226963
4.087
0.191624
4.06708
0.155835
4.05152
0.119668
4.0404
0.0830845
4.03388
0.0459579
4.03219
0.0079486
4.0355
-0.0308637
4.04384
-0.0700319
4.05735
-0.110681
4.0761
-0.152487
4.10021
-0.195454
-0.239586
16.8802
-0.0343307
16.8608
0.172046
16.8197
0.367241
16.7587
0.545058
16.6796
0.708597
16.5842
0.855953
16.4739
0.990349
16.35
1.11185
16.2139
1.22238
16.0665
1.32357
15.909
1.41548
15.742
1.49974
15.5665
1.57526
15.3835
1.64354
15.1939
1.70237
14.9986
1.75429
14.7988
1.79745
14.5946
1.83609
14.3867
1.86923
14.1754
1.89915
13.9608
1.92526
13.7439
1.94651
13.5251
1.96335
13.305
1.9752
13.0842
1.98327
12.863
1.9882
12.6415
1.99058
12.4201
1.9905
12.199
1.98828
11.9782
1.98379
11.7583
1.977
11.5395
1.96816
11.3217
1.95721
11.1056
1.9444
10.891
1.93062
10.6781
1.91526
10.4672
1.89745
10.2586
1.87731
10.0524
1.85378
9.84902
1.82794
9.64842
1.8022
9.45055
1.77681
9.25563
1.75235
9.06367
1.72844
8.87471
1.70353
8.68872
1.67724
8.50562
1.6493
8.32545
1.62007
8.14835
1.59097
7.97443
1.56266
7.80386
1.5351
7.63666
1.50788
7.47286
1.4798
7.31264
1.44945
7.15626
1.41572
7.0036
1.3801
6.85458
1.34451
6.70919
1.30992
6.56744
1.27645
6.42942
1.24383
6.29506
1.21149
6.16428
1.17876
6.03705
1.14545
5.91337
1.11173
5.79329
1.07782
5.67689
1.04398
5.56419
1.01038
5.45521
0.976934
5.34997
0.943431
5.24851
0.90962
5.15087
0.875303
5.05711
0.840451
4.96729
0.805236
4.88148
0.770479
4.79924
0.738346
4.72102
0.702445
4.64695
0.665738
4.57705
0.62882
4.5113
0.591851
4.44973
0.554919
4.39228
0.518126
4.33888
0.481506
4.28951
0.444894
4.24416
0.408091
4.20289
0.3709
4.16574
0.333135
4.13277
0.294729
4.10402
0.255713
4.0795
0.216146
4.05924
0.176098
4.04328
0.135623
4.03177
0.0945977
4.02502
0.0527093
4.0233
0.00967425
4.02666
-0.0342251
4.0351
-0.0784733
4.04872
-0.124303
4.06759
-0.171351
4.09176
-0.219631
-0.269139
16.8783
-0.038476
16.8588
0.191551
16.8176
0.408513
16.7565
0.606142
16.6773
0.787809
16.5817
0.951535
16.4712
1.10082
16.3472
1.23588
16.211
1.35861
16.0634
1.47114
15.9057
1.57318
15.7386
1.66686
15.563
1.75083
15.38
1.82658
15.1903
1.89203
14.995
1.94961
14.795
1.99746
14.5906
2.04047
14.3824
2.07743
14.1708
2.11068
13.9561
2.14003
13.739
2.16362
13.5201
2.18218
13.2999
2.19543
13.079
2.20413
12.8577
2.20949
12.6361
2.21225
12.4146
2.21202
12.1933
2.20952
11.9724
2.20472
11.7523
2.1971
11.5333
2.18719
11.3154
2.1751
11.0991
2.16064
10.8846
2.14513
10.6717
2.12815
10.4609
2.10822
10.2525
2.0858
10.0463
2.05995
9.84287
2.03135
9.64218
2.00289
9.44415
1.97484
9.24909
1.94741
9.05706
1.92047
8.86801
1.89258
8.68193
1.86332
8.49868
1.83255
8.31832
1.80043
8.14106
1.76823
7.96708
1.73664
7.79658
1.7056
7.62962
1.67484
7.46617
1.64325
7.30635
1.60928
7.15034
1.57173
6.99792
1.53251
6.84903
1.4934
6.70372
1.45524
6.56202
1.41814
6.42402
1.38183
6.28966
1.34585
6.15883
1.30959
6.0315
1.27277
5.90771
1.23552
5.78751
1.19802
5.67097
1.16053
5.55815
1.1232
5.44907
1.08601
5.34376
1.04874
5.24226
1.01112
5.14464
0.972929
5.05093
0.934162
4.96117
0.894989
4.87541
0.856246
4.79319
0.82056
4.71494
0.7807
4.64078
0.739897
4.57075
0.698853
4.50484
0.657756
4.44307
0.61669
4.38541
0.57579
4.33176
0.535155
4.2821
0.494551
4.23648
0.453709
4.19495
0.412429
4.15756
0.370532
4.12433
0.327955
4.09528
0.284763
4.07039
0.241031
4.0497
0.196788
4.03341
0.151918
4.02181
0.106203
4.0151
0.0594204
4.01344
0.0113295
4.0169
-0.0376841
4.02546
-0.0870363
4.03921
-0.13805
4.05817
-0.190312
4.08238
-0.24384
-0.298621
16.8761
-0.0423843
16.8566
0.210983
16.8153
0.449884
16.754
0.667383
16.6747
0.867169
16.5789
1.04727
16.4683
1.21145
16.3441
1.3601
16.2076
1.49505
16.0598
1.61891
15.902
1.73107
15.7347
1.83409
15.5591
1.92645
15.3761
2.00963
15.1864
2.08171
14.991
2.14501
14.7908
2.19766
14.5861
2.24513
14.3776
2.28598
14.1657
2.32251
13.9507
2.35502
13.7335
2.3809
13.5146
2.40108
13.2943
2.41573
13.0733
2.42509
12.852
2.43083
12.6302
2.43401
12.4085
2.43369
12.1871
2.43092
11.966
2.42588
11.7456
2.41746
11.5264
2.40642
11.3083
2.39315
11.092
2.37699
10.8775
2.35963
10.6647
2.34095
10.454
2.31889
10.2457
2.29412
10.0396
2.26602
9.83617
2.23481
9.63537
2.20369
9.43716
2.17305
9.24191
2.14266
9.04974
2.11264
8.86056
2.08176
8.67431
2.04956
8.49088
2.01598
8.3103
1.98101
8.1329
1.94563
7.9589
1.91063
7.7885
1.876
7.6218
1.84155
7.45874
1.80631
7.29934
1.76867
7.1437
1.72737
6.99152
1.68469
6.84275
1.64217
6.6975
1.60049
6.55585
1.55979
6.41784
1.51984
6.28344
1.48025
6.15254
1.44049
6.0251
1.40021
5.90119
1.35943
5.78087
1.31835
5.6642
1.27719
5.55126
1.23613
5.44211
1.19517
5.33677
1.15409
5.23529
1.1126
5.13773
1.07048
5.04414
1.02776
4.95451
0.984618
4.86883
0.941924
4.78669
0.902693
4.70844
0.858958
4.63417
0.814166
4.56394
0.769082
4.49777
0.723922
4.43569
0.678777
4.37768
0.633801
4.32364
0.589189
4.27358
0.544617
4.22755
0.49973
4.18566
0.454325
4.14792
0.408269
4.11435
0.361524
4.08496
0.31416
4.05977
0.266216
4.03894
0.217623
4.02265
0.168203
4.01112
0.117739
4.0045
0.0660431
4.00293
0.0128963
4.00648
-0.0412383
4.01515
-0.0957028
4.02899
-0.151888
4.04799
-0.209312
4.07215
-0.268003
-0.327962
16.8739
-0.0467081
16.8542
0.230588
16.8127
0.491407
16.7513
0.728792
16.6718
0.946692
16.5759
1.14319
16.4651
1.32227
16.3406
1.48454
16.2039
1.63174
16.0559
1.76693
15.8978
1.88915
15.7305
2.00145
15.5548
2.10212
15.3718
2.19265
15.1821
2.27136
14.9866
2.3405
14.7862
2.3981
14.5812
2.45014
14.3722
2.49494
14.1601
2.53469
13.9449
2.57023
13.7274
2.59833
13.5085
2.62005
13.2881
2.63609
13.0671
2.64613
12.8456
2.65225
12.6238
2.65586
12.402
2.65551
12.1804
2.65251
11.959
2.64727
11.7384
2.63809
11.5189
2.62587
11.3007
2.61134
11.0843
2.59346
10.8697
2.57413
10.6571
2.55364
10.4465
2.52943
10.2384
2.50228
10.0324
2.47198
9.82887
2.43833
9.62793
2.40464
9.42952
2.37146
9.23403
2.33815
9.04168
2.30499
8.85232
2.27112
8.66587
2.23601
8.48224
2.19962
8.30147
2.16178
8.12394
2.12315
7.94996
2.08461
7.77969
2.04628
7.61325
2.00799
7.45059
1.96897
7.29163
1.92762
7.13632
1.88268
6.98435
1.83667
6.83567
1.79085
6.69047
1.74569
6.54885
1.70141
6.41082
1.65787
6.27635
1.61472
6.14536
1.57148
6.01781
1.52775
5.89378
1.48347
5.77333
1.43879
5.65656
1.39397
5.54353
1.34916
5.43433
1.30437
5.329
1.25942
5.22759
1.21401
5.13015
1.16792
5.03672
1.12119
4.94725
1.07409
4.86168
1.0275
4.77962
0.984752
4.70135
0.937228
4.62695
0.888562
4.55649
0.839545
4.49001
0.790404
4.42753
0.741252
4.36907
0.692258
4.31456
0.643699
4.26403
0.595154
4.21756
0.546193
4.17527
0.496619
4.13719
0.446351
4.10333
0.395379
4.07374
0.343758
4.04846
0.29149
4.02764
0.238448
4.01142
0.184419
3.99997
0.129188
3.99343
0.0725832
3.99194
0.0143888
3.99557
-0.044867
4.00431
-0.104439
4.01818
-0.165761
4.03713
-0.228267
4.06114
-0.292012
-0.357062
16.8715
-0.0513965
16.8517
0.250385
16.81
0.533094
16.7484
0.790386
16.6687
1.02639
16.5726
1.23931
16.4616
1.43331
16.3369
1.60922
16.1999
1.7687
16.0516
1.91522
15.8933
2.04747
15.7258
2.16896
15.5501
2.27781
15.3671
2.37562
15.1775
2.46097
14.982
2.53604
14.7813
2.5988
14.5759
2.65553
14.3665
2.70437
14.1539
2.74725
13.9384
2.78568
13.7209
2.8159
13.5018
2.83909
13.2814
2.85649
13.0603
2.86726
12.8388
2.87374
12.6169
2.87779
12.3949
2.87749
12.1731
2.87431
11.9515
2.86889
11.7306
2.85899
11.5109
2.84556
11.2925
2.82968
11.076
2.81005
10.8614
2.78865
10.6489
2.76622
10.4384
2.73986
10.2304
2.71029
10.0246
2.67784
9.82095
2.64195
9.61981
2.60577
9.42116
2.57011
9.22541
2.5339
9.03283
2.49756
8.84327
2.46069
8.65661
2.42266
8.4728
2.38343
8.29188
2.3427
8.11427
2.30076
7.94034
2.25855
7.77021
2.21641
7.60403
2.17417
7.44175
2.13125
7.28321
2.08616
7.12818
2.03772
6.97636
1.98848
6.82776
1.93945
6.68257
1.89088
6.54094
1.84304
6.40288
1.79594
6.26833
1.74926
6.13725
1.70256
6.0096
1.6554
5.88545
1.60762
5.76489
1.55934
5.64803
1.51083
5.53494
1.46225
5.42572
1.41359
5.32045
1.36469
5.21916
1.31529
5.12189
1.26519
5.02864
1.21444
4.93934
1.16338
4.85386
1.11298
4.77185
1.06676
4.69355
1.01553
4.61901
0.9631
4.5483
0.91026
4.48147
0.857232
4.41856
0.804157
4.35961
0.751215
4.30459
0.698716
4.2536
0.646143
4.20675
0.593043
4.16413
0.539235
4.1258
0.484688
4.09176
0.429416
4.06206
0.373454
4.03678
0.316776
4.016
0.259224
3.99986
0.200563
3.98848
0.140568
3.982
0.0790636
3.98056
0.0158267
3.98424
-0.0485491
3.99301
-0.113209
4.00685
-0.179599
4.02565
-0.247066
4.04938
-0.315735
-0.385804
16.869
-0.0564536
16.8489
0.270437
16.807
0.574963
16.7453
0.852179
16.6654
1.10628
16.569
1.33564
16.4578
1.54457
16.3328
1.73418
16.1955
1.90597
16.0469
2.06381
15.8884
2.20604
15.7207
2.33662
15.545
2.45353
15.3621
2.55854
15.1725
2.65051
14.9769
2.73164
14.7759
2.79979
14.5701
2.86135
14.3602
2.91429
14.1472
2.96024
13.9315
3.00138
13.7138
3.03363
13.4946
3.05824
13.2742
3.07695
13.053
3.08847
12.8314
3.09532
12.6094
3.0998
12.3872
3.09964
12.1652
3.09632
11.9434
3.09072
11.7222
3.08013
11.5023
3.06547
11.2839
3.04815
11.0672
3.02673
10.8526
3.0032
10.6401
2.9787
10.4298
2.95018
10.2219
2.91821
10.0161
2.88365
9.81233
2.84569
9.61095
2.80715
9.41203
2.76903
9.21599
2.72995
9.02317
2.69038
8.83341
2.65045
8.64656
2.60951
8.4626
2.56738
8.28159
2.52371
8.10395
2.47839
7.9301
2.43241
7.76013
2.38637
7.59418
2.34012
7.43225
2.29319
7.27408
2.24432
7.11925
2.19255
6.96753
2.1402
6.81895
2.08803
6.67374
2.0361
6.53208
1.9847
6.39396
1.93405
6.25933
1.88389
6.12816
1.83373
6.00043
1.78313
5.87619
1.73186
5.75555
1.67998
5.63862
1.62775
5.52551
1.57536
5.41632
1.52279
5.31114
1.46987
5.21001
1.41642
5.11293
1.36227
5.01985
1.30751
4.9307
1.25254
4.84528
1.1984
4.7633
1.14874
4.68494
1.0939
4.61025
1.03779
4.53928
0.98123
4.4721
0.924411
4.40876
0.867497
4.3493
0.810674
4.29381
0.754208
4.24243
0.697516
4.19529
0.64019
4.15244
0.582078
4.11394
0.523186
4.07981
0.463548
4.05009
0.40318
4.02483
0.342036
4.00411
0.279944
3.98802
0.216649
3.97669
0.1519
3.97025
0.0855029
3.96885
0.0172209
3.97257
-0.0522696
3.98133
-0.12197
3.99505
-0.19331
4.01355
-0.265571
4.03683
-0.339019
-0.414067
16.8663
-0.0618135
16.846
0.290732
16.8039
0.617028
16.7419
0.914187
16.6618
1.18638
16.5652
1.4322
16.4537
1.65609
16.3285
1.85943
16.1908
2.04359
16.0419
2.21273
15.8831
2.36491
15.7152
2.50448
15.5395
2.62928
15.3566
2.7414
15.1671
2.83999
14.9715
2.92727
14.7702
3.00106
14.5639
3.06761
14.3535
3.12471
14.1401
3.17368
13.9241
3.21735
13.7062
3.25154
13.4869
3.27751
13.2664
3.29747
13.0451
3.30979
12.8234
3.31701
12.6013
3.32191
12.379
3.32193
12.1568
3.31853
11.9348
3.31274
11.7134
3.30146
11.4933
3.28558
11.2747
3.26674
11.058
3.24352
10.8433
3.21782
10.6309
3.19113
10.4206
3.16045
10.2127
3.12611
10.0069
3.08947
9.80296
3.04964
9.60127
3.00884
9.40206
2.96824
9.20572
2.92629
9.01266
2.88344
8.82272
2.84039
8.63573
2.7965
8.45169
2.75142
8.27067
2.70474
8.09305
2.65601
7.91929
2.60617
7.74949
2.55617
7.58375
2.50586
7.42209
2.45484
7.26422
2.40219
7.1095
2.34728
6.95779
2.29191
6.8092
2.23662
6.66393
2.18136
6.5222
2.12643
6.38402
2.07223
6.24932
2.01859
6.11808
1.96498
5.99028
1.91092
5.86598
1.85616
5.74529
1.80068
5.62834
1.7447
5.51525
1.68845
5.40612
1.63192
5.30107
1.57492
5.20012
1.51737
5.10322
1.45917
5.0103
1.40044
4.92124
1.3416
4.83584
1.2838
4.75386
1.23072
4.67542
1.17234
4.60057
1.11264
4.52936
1.05244
4.46186
0.991918
4.39811
0.931244
4.33819
0.870591
4.28231
0.810092
4.23065
0.749176
4.1833
0.687537
4.14032
0.62506
4.10174
0.56177
4.06757
0.497711
4.03786
0.432893
4.01264
0.367255
3.99197
0.300616
3.97593
0.232693
3.96463
0.163198
3.95823
0.0919036
3.95688
0.0185701
3.96062
-0.0560088
3.96929
-0.130644
3.98273
-0.206747
4.00076
-0.283601
4.02344
-0.361701
-0.441741
16.8624
-0.0664686
16.8427
0.310443
16.8005
0.659239
16.7383
0.976427
16.658
1.2667
16.5611
1.52902
16.4494
1.76788
16.3238
1.98499
16.1858
2.18156
16.0366
2.36199
15.8774
2.52408
15.7093
2.67254
15.5335
2.8051
15.3507
2.92424
15.1613
3.0294
14.9656
3.12294
14.764
3.20261
14.5574
3.27429
14.3465
3.33561
14.1326
3.38757
13.9163
3.43362
13.6982
3.46965
13.4787
3.49696
13.2581
3.5181
13.0367
3.53124
12.8148
3.53886
12.5926
3.54412
12.3702
3.54438
12.1478
3.54092
11.9256
3.53487
11.7042
3.52293
11.4839
3.50583
11.2652
3.48542
11.0484
3.4604
10.8337
3.43252
10.6212
3.40355
10.411
3.37073
10.203
3.3341
9.99701
3.29543
9.79278
3.25387
9.59073
3.2109
9.3912
3.16777
9.19458
3.1229
9.0013
3.07673
8.81124
3.03045
8.62417
2.98357
8.44013
2.93547
8.25916
2.8857
8.08162
2.83355
7.90795
2.77984
7.73832
2.72581
7.57275
2.67143
7.4113
2.61629
7.25362
2.55988
7.09891
2.50198
6.94714
2.44369
6.79847
2.38529
6.6531
2.32673
6.51127
2.26827
6.37302
2.21048
6.23826
2.15335
6.10697
2.09627
5.97914
2.03874
5.85483
1.98048
5.73412
1.92139
5.61719
1.86163
5.50416
1.80147
5.39515
1.74093
5.29025
1.67983
5.18948
1.61814
5.09274
1.5559
4.99992
1.49326
4.9109
1.43063
4.82549
1.36921
4.74348
1.31272
4.66494
1.25089
4.58993
1.18764
4.51851
1.12386
4.45071
1.05971
4.38662
0.99534
4.32633
0.930874
4.27017
0.866252
4.21833
0.801017
4.17088
0.734991
4.12784
0.668103
4.08923
0.600377
4.05508
0.531861
4.02541
0.462565
4.00024
0.392424
3.97961
0.32124
3.96361
0.248697
3.95235
0.174454
3.94601
0.0982498
3.9447
0.0198728
3.94841
-0.0597106
3.95683
-0.139072
3.96976
-0.219677
3.9871
-0.300936
4.00906
-0.38366
-0.468761
16.8595
-0.071887
16.8394
0.330506
16.7969
0.701681
16.7345
1.03892
16.6539
1.34726
16.5568
1.62611
16.4447
1.87996
16.3189
2.11085
16.1805
2.31989
16.0309
2.5116
15.8714
2.68359
15.7031
2.84087
15.5272
2.98103
15.3443
3.10709
15.1549
3.21879
14.9592
3.31865
14.7574
3.4044
14.5504
3.48133
14.339
3.54697
14.1246
3.60193
13.9081
3.6502
13.6897
3.688
13.47
3.71663
13.2492
3.73889
13.0276
3.75286
12.8056
3.76089
12.5832
3.76647
12.3607
3.76695
12.1382
3.76345
11.916
3.75707
11.6944
3.74444
11.4741
3.72618
11.2553
3.70416
11.0384
3.67735
10.8236
3.64734
10.6111
3.61602
10.4007
3.58109
10.1926
3.54228
9.98634
3.50165
9.78176
3.45845
9.57928
3.41337
9.37943
3.36761
9.18257
3.31976
8.9891
3.2702
8.79897
3.22058
8.61192
3.17062
8.42793
3.11946
8.24709
3.06654
8.06967
3.01098
7.89611
2.95339
7.72661
2.89531
7.56118
2.83686
7.39985
2.77763
7.24223
2.71749
7.08745
2.65675
6.93553
2.5956
6.78672
2.53411
6.64122
2.47223
6.49923
2.41025
6.36089
2.34882
6.22611
2.28813
6.0948
2.22758
5.96699
2.16655
5.84271
2.10476
5.72205
2.04205
5.60518
1.9785
5.49227
1.91438
5.38341
1.84979
5.27867
1.78457
5.17806
1.71875
5.08145
1.65252
4.98868
1.58603
4.89963
1.51967
4.81417
1.45467
4.73213
1.39476
4.65346
1.32955
4.5783
1.2628
4.50668
1.19548
4.43865
1.12774
4.37429
1.0597
4.31377
0.991394
4.25747
0.922555
4.20556
0.852929
4.15808
0.78247
4.11504
0.711139
4.07647
0.638952
4.04237
0.565955
4.01277
0.492171
3.98766
0.41753
3.96709
0.34181
3.95114
0.264645
3.93995
0.185642
3.93368
0.10452
3.93239
0.0211629
3.93588
-0.0631971
3.94368
-0.146871
3.95574
-0.231742
3.97227
-0.317463
3.99351
-0.404903
-0.495135
16.8563
-0.0780428
16.8358
0.350961
16.7932
0.744373
16.7304
1.10169
16.6496
1.42808
16.5522
1.72349
16.4398
1.99233
16.3136
2.23704
16.1749
2.45859
16.025
2.66156
15.8651
2.84345
15.6965
3.00949
15.5204
3.15713
15.3374
3.29003
15.148
3.40821
14.9523
3.51441
14.7503
3.60639
14.5429
3.68867
14.3312
3.75873
14.1164
3.81672
13.8995
3.86712
13.6808
3.90662
13.4609
3.93659
13.2399
3.9599
13.018
3.97468
12.7958
3.98317
12.5733
3.98898
12.3506
3.98963
12.1279
3.98607
11.9058
3.97927
11.6843
3.96592
11.4639
3.94656
11.2451
3.92294
11.0281
3.89436
10.8131
3.86229
10.6005
3.82863
10.39
3.79161
10.1815
3.75079
9.97489
3.70827
9.76986
3.66348
9.56694
3.6163
9.36677
3.56778
9.16972
3.51682
8.97612
3.4638
8.78598
3.41072
8.59901
3.35759
8.41515
3.30332
8.23448
3.2472
8.05722
3.18824
7.88377
3.12684
7.71438
3.0647
7.54903
3.00221
7.38771
2.93895
7.23002
2.87519
7.07508
2.81169
6.92295
2.74774
6.77393
2.68312
6.62823
2.61793
6.48606
2.55242
6.3476
2.48729
6.2128
2.42292
6.08155
2.35883
5.95381
2.29429
5.82963
2.22893
5.70908
2.1626
5.59233
2.09525
5.47957
2.02714
5.3709
1.95846
5.26633
1.88914
5.16584
1.81924
5.0693
1.74906
4.97653
1.67881
4.88741
1.60879
4.80186
1.54022
4.71977
1.47685
4.64098
1.40834
4.56566
1.33813
4.49387
1.26727
4.42566