/*--------------------------------*- C++ -*----------------------------------*\
| =========                 |                                                 |
| \\      /  F ield         | OpenFOAM: The Open Source CFD Toolbox           |
|  \\    /   O peration     | Version:  4.1                                   |
|   \\  /    A nd           | Web:      www.OpenFOAM.org                      |
|    \\/     M anipulation  |                                                 |
\*---------------------------------------------------------------------------*/
FoamFile
{
    version     2.0;
    format      ascii;
    class       volVectorField;
    location    "8";
    object      U;
}
// * * * * * * * * * * * * * * * * * * * * * * * * * * * * * * * * * * * * * //

dimensions      [0 1 -1 0 0 0 0];

internalField   nonuniform List<vector> 
26785
(
(4.28303e-20 0.000235459 0.137916)
(-5.21839e-18 0.000234279 0.13269)
(-1.94387e-19 0.000233388 0.12764)
(2.11651e-17 0.000232169 0.122793)
(3.34172e-17 0.000230728 0.11814)
(-4.46908e-15 0.000228962 0.113675)
(-2.49859e-17 0.000227002 0.109389)
(-1.20324e-17 0.000224791 0.105276)
(2.04186e-15 0.00022247 0.101327)
(-1.8376e-15 0.000219983 0.0975371)
(-9.90991e-18 0.000217433 0.0938975)
(-2.58899e-20 0.000214745 0.0904016)
(-6.10775e-23 0.00021199 0.0870434)
(6.63308e-21 0.000209159 0.0838168)
(-1.31803e-18 0.000206189 0.0807164)
(-1.1364e-20 0.000203193 0.0777372)
(1.15175e-18 0.000200071 0.0748742)
(5.52536e-21 0.000196931 0.072123)
(-4.82763e-19 0.000193738 0.0694789)
(1.23262e-16 0.000190542 0.0669373)
(-3.94405e-19 0.00018727 0.0644941)
(-4.7206e-19 0.000184058 0.0621452)
(1.15017e-16 0.000180814 0.0598864)
(4.50628e-18 0.000177563 0.0577141)
(-1.28312e-15 0.000174387 0.0556244)
(-4.23702e-18 0.000171146 0.0536139)
(-8.9316e-21 0.000167946 0.0516797)
(1.37666e-18 0.0001648 0.0498183)
(-4.96565e-16 0.000161635 0.0480268)
(-4.88241e-16 0.000158517 0.0463024)
(-5.19359e-16 0.000155441 0.0446422)
(6.57432e-16 0.000152316 0.0430438)
(1.81394e-18 0.000149238 0.0415053)
(-1.02346e-16 0.000146222 0.0400239)
(-9.28466e-16 0.000143178 0.0385975)
(-1.99643e-18 0.000140195 0.0372242)
(-2.08761e-21 0.00013723 0.0359018)
(-1.89295e-24 0.000134177 0.0346289)
(7.38957e-22 0.000131135 0.0334044)
(-7.9279e-19 0.00012811 0.0322267)
(4.44902e-16 0.0001251 0.0310941)
(8.48118e-19 0.00012224 0.0300046)
(1.28753e-18 0.000119527 0.0289555)
(-8.02195e-16 0.000116895 0.0279447)
(-8.22076e-19 0.00011433 0.0269704)
(-2.90465e-16 0.000111734 0.0260316)
(-4.84939e-19 0.000109052 0.0251277)
(-2.51972e-22 0.000106327 0.0242583)
(-9.02605e-20 0.000103643 0.0234223)
(-4.17877e-19 0.000101084 0.0226183)
(3.84033e-16 9.86669e-05 0.0218442)
(4.70522e-19 9.63504e-05 0.0210984)
(3.85986e-22 9.40535e-05 0.0203797)
(-6.84447e-20 9.17012e-05 0.0196876)
(7.07885e-20 8.9261e-05 0.0190219)
(2.52718e-19 8.67527e-05 0.0183825)
(-2.49224e-16 8.42334e-05 0.0177691)
(-2.50472e-19 8.17771e-05 0.0171808)
(3.70824e-19 7.9432e-05 0.0166164)
(-3.38676e-16 7.72069e-05 0.0160745)
(-3.07544e-19 7.50625e-05 0.0155539)
(-5.56406e-20 7.29299e-05 0.0150538)
(1.02122e-19 7.07679e-05 0.0145738)
(-1.28069e-16 6.85863e-05 0.0141136)
(-1.02348e-19 6.64138e-05 0.0136728)
(-4.00241e-23 6.42891e-05 0.0132508)
(1.31781e-24 6.22283e-05 0.0128467)
(5.19101e-23 6.02239e-05 0.0124599)
(-4.53583e-20 5.82512e-05 0.0120896)
(1.26448e-19 5.6288e-05 0.0117354)
(-1.97721e-16 5.43267e-05 0.0113969)
(-1.54951e-19 5.23643e-05 0.0110738)
(-6.94883e-23 5.04053e-05 0.0107656)
(5.65193e-24 4.84447e-05 0.0104717)
(-6.71541e-20 4.65671e-05 0.0101914)
(1.5524e-16 4.46962e-05 0.00992447)
(8.82448e-20 4.28391e-05 0.00967089)
(2.11979e-23 4.09995e-05 0.00943036)
(3.38113e-21 3.91816e-05 0.00920255)
(-2.72358e-24 3.73828e-05 0.00898712)
(2.5071e-20 3.56011e-05 0.00878371)
(-5.26494e-17 3.38384e-05 0.00859201)
(-2.6088e-20 3.20869e-05 0.00841172)
(2.89239e-20 3.03348e-05 0.00824261)
(-4.15227e-17 2.85769e-05 0.00808447)
(-1.64904e-20 2.68127e-05 0.00793715)
(-9.63636e-21 2.50414e-05 0.00780049)
(2.65218e-20 2.32593e-05 0.00767436)
(-6.39461e-17 2.14648e-05 0.00755864)
(-2.80536e-20 1.96596e-05 0.00745319)
(-6.12237e-24 1.78462e-05 0.00735789)
(-2.34577e-27 1.60298e-05 0.00727258)
(5.38737e-24 1.42195e-05 0.00719709)
(-5.99131e-21 1.24092e-05 0.00713125)
(-3.32177e-21 1.0586e-05 0.00707493)
(8.62773e-18 8.73164e-06 0.00702794)
(1.61637e-21 6.84679e-06 0.00699025)
(-1.07253e-24 4.91433e-06 0.00696197)
(-4.72774e-28 2.93641e-06 0.00694314)
(-9.56629e-32 9.45026e-07 0.00693371)
(2.05035e-17 0.00070526 0.137909)
(-2.65893e-15 0.00070282 0.132688)
(-1.92772e-17 0.000700159 0.127638)
(-1.25736e-17 0.000696507 0.122791)
(2.41211e-15 0.000692178 0.118138)
(-2.23062e-15 0.000686896 0.113673)
(2.14133e-15 0.000680992 0.109387)
(2.48931e-17 0.000674376 0.105273)
(-2.03568e-15 0.000667379 0.101325)
(-1.36076e-17 0.000659943 0.097535)
(-4.21084e-20 0.000652271 0.0938953)
(-5.03732e-23 0.000644249 0.0903995)
(-1.8129e-20 0.00063594 0.0870413)
(7.41128e-18 0.00062749 0.0838146)
(-1.58589e-15 0.000618537 0.0807142)
(-1.36348e-17 0.000609587 0.077735)
(1.53634e-15 0.000600223 0.074872)
(5.38013e-18 0.000590793 0.0721207)
(4.33067e-19 0.0005812 0.0694766)
(-1.26303e-16 0.000571606 0.066935)
(-1.39774e-15 0.000561792 0.0644918)
(-1.16847e-16 0.000552163 0.062143)
(-1.34195e-15 0.000542459 0.0598841)
(-4.7394e-18 0.000532686 0.0577118)
(9.59621e-19 0.000523176 0.0556221)
(-5.69539e-16 0.000513449 0.0536116)
(-2.19423e-18 0.00050382 0.0516774)
(-5.35051e-21 0.000494401 0.0498161)
(1.04033e-18 0.000484901 0.0480245)
(-4.90155e-16 0.000475523 0.0463001)
(5.15161e-16 0.000466321 0.0446399)
(1.75593e-18 0.000456949 0.0430416)
(-1.51612e-19 0.000447679 0.0415031)
(8.87766e-19 0.00043866 0.0400217)
(-4.85701e-16 0.000429538 0.0385953)
(-1.044e-18 0.000420561 0.037222)
(-1.1246e-21 0.000411702 0.0358996)
(-9.96436e-25 0.000402553 0.0346267)
(2.85766e-23 0.000393378 0.0334022)
(1.82493e-22 0.000384321 0.0322245)
(-3.17868e-19 0.000375292 0.0310919)
(2.77075e-16 0.000366679 0.0300024)
(-8.25954e-19 0.000358574 0.0289534)
(8.04958e-16 0.00035071 0.0279426)
(1.25949e-18 0.000343005 0.0269684)
(2.79322e-19 0.000335215 0.0260296)
(-2.55711e-16 0.000327131 0.0251257)
(1.69416e-19 0.000318906 0.0242562)
(-3.96573e-16 0.000310856 0.0234203)
(2.7248e-16 0.000303222 0.0226163)
(-2.69813e-16 0.000296011 0.0218423)
(-3.3172e-19 0.000289078 0.0210965)
(3.831e-19 0.000282196 0.0203778)
(-3.4149e-16 0.000275131 0.0196857)
(3.63249e-16 0.000267787 0.0190199)
(6.86632e-19 0.000260234 0.0183805)
(-3.54542e-16 0.000252645 0.0177671)
(-6.28985e-19 0.000245265 0.0171789)
(3.46226e-16 0.000238266 0.0166146)
(3.00959e-19 0.000231632 0.0160727)
(2.83642e-19 0.000225216 0.0155521)
(-3.32014e-16 0.00021881 0.015052)
(-3.66503e-19 0.000212295 0.014572)
(1.04596e-16 0.000205722 0.0141118)
(6.90781e-20 0.000199211 0.013671)
(-2.54999e-23 0.00019285 0.013249)
(1.68415e-20 0.000186685 0.012845)
(2.12813e-19 0.000180682 0.0124582)
(-3.12834e-16 0.000174759 0.0120879)
(-2.15055e-19 0.000168869 0.0117338)
(8.89445e-20 0.000162987 0.0113953)
(-1.95413e-16 0.000157102 0.0110721)
(-1.19821e-19 0.000151225 0.010764)
(-7.03124e-20 0.000145353 0.0104701)
(1.45536e-16 0.000139704 0.0101898)
(-1.43107e-16 0.000134084 0.00992288)
(-8.14475e-20 0.000128514 0.00966931)
(-1.46032e-20 0.000122994 0.0094288)
(2.81894e-17 0.000117532 0.009201)
(1.50272e-20 0.000112133 0.00898558)
(2.02088e-20 0.000106794 0.00878218)
(-4.23285e-17 0.000101506 0.00859049)
(-6.84212e-20 9.62493e-05 0.00841021)
(9.1766e-17 9.0995e-05 0.00824109)
(2.64636e-20 8.57266e-05 0.00808295)
(2.74877e-17 8.0437e-05 0.00793563)
(-8.94312e-17 7.51193e-05 0.00779896)
(-6.6859e-20 6.97668e-05 0.00767282)
(6.38422e-17 6.43764e-05 0.00755709)
(2.16391e-20 5.89545e-05 0.00745163)
(-4.17217e-24 5.35172e-05 0.00735633)
(-9.89795e-25 4.80789e-05 0.00727102)
(2.13503e-20 4.26464e-05 0.00719553)
(-6.0933e-17 3.72168e-05 0.00712969)
(-2.53413e-20 3.17623e-05 0.00707335)
(8.56394e-21 2.62182e-05 0.00702634)
(-2.04311e-17 2.05384e-05 0.00698861)
(-8.33549e-21 1.47249e-05 0.00696029)
(-1.70771e-24 8.81074e-06 0.00694144)
(-2.33368e-28 2.86136e-06 0.00693205)
(-1.98795e-17 0.00117542 0.137905)
(2.57717e-15 0.00117135 0.132685)
(3.04971e-17 0.00116693 0.127634)
(2.39201e-15 0.00116083 0.122787)
(2.39927e-15 0.00115363 0.118135)
(-2.19367e-15 0.0011448 0.113669)
(2.14755e-15 0.00113496 0.109383)
(1.06624e-17 0.00112394 0.105269)
(-2.6799e-18 0.00111227 0.101321)
(-1.51452e-20 0.00109988 0.0975308)
(-4.49368e-23 0.00108708 0.0938911)
(6.46663e-22 0.00107375 0.0903951)
(7.10775e-22 0.00105988 0.0870369)
(-1.15163e-19 0.00104583 0.0838102)
(-2.18529e-18 0.00103089 0.0807097)
(1.28211e-16 0.00101598 0.0777305)
(1.54376e-15 0.00100035 0.0748674)
(-1.48844e-15 0.000984611 0.0721162)
(-1.39252e-16 0.000968595 0.069472)
(1.72379e-16 0.000952617 0.0669304)
(-1.02606e-17 0.000936293 0.0644873)
(2.7349e-15 0.000920258 0.0621384)
(1.04213e-17 0.000904137 0.0598795)
(-5.94819e-16 0.000887833 0.0577072)
(-2.87042e-19 0.000871972 0.0556175)
(-5.19237e-16 0.000855757 0.053607)
(-1.194e-15 0.000839664 0.0516729)
(-3.42391e-18 0.000823974 0.0498115)
(-4.26112e-21 0.000808158 0.04802)
(-2.74578e-19 0.000792483 0.0462956)
(-7.33228e-19 0.000777146 0.0446354)
(4.68178e-16 0.000761552 0.0430371)
(-4.60674e-16 0.000746061 0.0414986)
(-4.53871e-16 0.000731049 0.0400172)
(-1.37017e-18 0.000715893 0.0385909)
(8.62494e-20 0.000700898 0.0372176)
(-2.19388e-19 0.000686164 0.0358951)
(-1.45728e-21 0.00067096 0.0346222)
(1.99752e-19 0.000655613 0.0333978)
(-1.88978e-19 0.000640521 0.0322201)
(-1.38685e-21 0.000625496 0.0310876)
(3.06201e-19 0.00061109 0.0299982)
(6.77315e-22 0.000597593 0.0289493)
(2.3223e-19 0.000584516 0.0279386)
(5.39521e-23 0.000571635 0.0269644)
(-1.92176e-22 0.000558609 0.0260255)
(-1.15129e-20 0.000545097 0.0251215)
(1.5394e-19 0.000531371 0.024252)
(-1.23497e-19 0.000517991 0.0234162)
(1.80282e-20 0.000505334 0.0226124)
(-8.04578e-20 0.00049336 0.0218385)
(-4.29583e-20 0.00048181 0.0210928)
(4.04916e-20 0.000470335 0.0203741)
(-3.71233e-20 0.000458552 0.0196818)
(4.72366e-19 0.000446275 0.019016)
(-3.59135e-16 0.000433646 0.0183765)
(-8.28396e-19 0.000420981 0.0177632)
(3.23809e-16 0.000408692 0.0171751)
(1.10271e-19 0.000397075 0.0166109)
(3.13348e-16 0.000386059 0.0160692)
(2.84801e-19 0.000375356 0.0155486)
(-5.88597e-20 0.000364646 0.0150484)
(1.83985e-23 0.000353758 0.0145684)
(1.02009e-19 0.000342792 0.0141082)
(-1.03231e-16 0.000331964 0.0136675)
(-1.56654e-19 0.0003214 0.0132456)
(1.23376e-16 0.000311144 0.0128416)
(7.50096e-20 0.000301147 0.0124548)
(-5.76621e-20 0.000291277 0.0120846)
(4.22653e-23 0.000281455 0.0117304)
(-8.41086e-21 0.000271654 0.011392)
(-4.89581e-20 0.000261855 0.0110688)
(2.68044e-17 0.000252066 0.0107607)
(1.03291e-16 0.0002423 0.0104669)
(6.77218e-20 0.000232857 0.0101866)
(-5.41899e-21 0.000223472 0.0099197)
(6.48242e-23 0.000214169 0.00966615)
(-3.05134e-21 0.000204956 0.00942566)
(4.01957e-21 0.000195837 0.00919789)
(-2.5084e-24 0.000186826 0.0089825)
(-1.04005e-23 0.000177921 0.00877913)
(1.87427e-20 0.000169104 0.00858746)
(-5.2416e-17 0.000160339 0.00840719)
(-1.91553e-20 0.000151581 0.00823807)
(-2.68597e-23 0.000142802 0.00807992)
(3.31579e-21 0.000133988 0.00793258)
(-5.51933e-21 0.000125126 0.0077959)
(2.39145e-23 0.000116207 0.00766974)
(3.29906e-20 0.00010723 0.00755399)
(-6.31117e-17 9.82026e-05 0.00744852)
(-2.31539e-20 8.91513e-05 0.00735321)
(7.0189e-21 8.01109e-05 0.00726791)
(-2.38972e-17 7.10956e-05 0.00719242)
(-1.60537e-20 6.20727e-05 0.00712658)
(7.71064e-25 5.29847e-05 0.00707021)
(8.10701e-21 4.37408e-05 0.00702313)
(-1.83555e-17 3.42871e-05 0.00698532)
(-6.34338e-21 2.46093e-05 0.00695694)
(1.00289e-24 1.47714e-05 0.00693805)
(2.16204e-26 4.86144e-06 0.00692872)
(2.45911e-19 0.00164554 0.137903)
(-3.99388e-17 0.00163985 0.132679)
(2.47728e-15 0.00163368 0.127629)
(2.42444e-15 0.00162514 0.122782)
(5.62078e-18 0.00161506 0.118129)
(2.22007e-15 0.00160268 0.113663)
(3.17763e-17 0.0015889 0.109377)
(-1.95775e-15 0.00157346 0.105263)
(-1.13469e-17 0.00155711 0.101315)
(-3.27933e-20 0.00153978 0.0975245)
(-9.33935e-21 0.00152185 0.0938847)
(1.42092e-18 0.00150322 0.0903887)
(8.26692e-19 0.00148383 0.0870304)
(-1.66454e-16 0.00146418 0.0838036)
(-7.8185e-19 0.00144328 0.0807031)
(2.13692e-19 0.00142235 0.0777238)
(-4.52548e-18 0.00140042 0.0748606)
(1.44711e-15 0.00137834 0.0721094)
(-1.45873e-15 0.00135588 0.0694652)
(-5.45655e-18 0.00133355 0.0669235)
(-4.91238e-18 0.00131079 0.0644804)
(1.36639e-15 0.00128837 0.0621315)
(4.70095e-18 0.00126586 0.0598726)
(-4.36793e-19 0.00124303 0.0577003)
(-2.78807e-22 0.00122075 0.0556107)
(-3.62417e-19 0.00119806 0.0536001)
(-9.85165e-19 0.00117549 0.0516661)
(1.53392e-19 0.00115349 0.0498047)
(2.34556e-21 0.00113138 0.0480132)
(-1.21456e-18 0.00110938 0.0462889)
(4.71271e-16 0.00108786 0.0446287)
(5.09073e-16 0.00106609 0.0430303)
(9.59239e-19 0.00104439 0.0414919)
(9.3763e-19 0.00102335 0.0400106)
(-4.83982e-16 0.00100222 0.0385842)
(3.41405e-16 0.000981217 0.037211)
(-8.94935e-16 0.00096058 0.0358885)
(-3.46231e-18 0.000939384 0.0346155)
(8.70684e-16 0.000917874 0.0333911)
(-8.5329e-16 0.000896707 0.0322135)
(-3.18773e-18 0.000875723 0.031081)
(9.59056e-16 0.000855513 0.0299919)
(2.00959e-18 0.000836566 0.0289432)
(-2.96393e-16 0.000818247 0.0279325)
(-4.6297e-19 0.000800128 0.0269583)
(-5.84326e-19 0.000781806 0.0260194)
(4.06013e-16 0.000762883 0.0251152)
(8.77708e-16 0.000743729 0.0242458)
(1.69689e-18 0.000725086 0.0234102)
(-3.90389e-16 0.000707428 0.0226065)
(-1.73151e-19 0.000690689 0.0218328)
(-2.66978e-16 0.000674502 0.0210872)
(2.61173e-16 0.000658407 0.0203684)
(3.70731e-16 0.000641897 0.019676)
(4.09315e-19 0.000624668 0.0190101)
(3.04429e-19 0.000606949 0.0183706)
(-3.57127e-16 0.000589243 0.0177573)
(3.48125e-16 0.00057209 0.0171694)
(-1.19325e-20 0.000555859 0.0166054)
(3.41305e-16 0.000540441 0.0160638)
(2.01875e-19 0.000525409 0.0155433)
(1.07733e-16 0.00051036 0.0150431)
(9.18404e-20 0.000495112 0.014563)
(5.80609e-23 0.000479792 0.0141028)
(-9.96873e-20 0.000464684 0.0136622)
(1.02786e-16 0.000449949 0.0132404)
(-9.95644e-17 0.000435609 0.0128365)
(-1.22975e-16 0.000421609 0.0124498)
(-8.70375e-20 0.000407799 0.0120796)
(2.53107e-20 0.00039405 0.0117255)
(-7.40243e-17 0.000380333 0.011387)
(-1.10715e-19 0.000366633 0.0110639)
(1.0327e-16 0.000352948 0.0107557)
(-1.89799e-16 0.000339302 0.010462)
(-1.56981e-16 0.000326029 0.0101818)
(1.54288e-16 0.000312857 0.00991491)
(1.0567e-19 0.000299795 0.0096614)
(-2.89181e-17 0.000286861 0.00942095)
(-1.58043e-20 0.000274065 0.00919323)
(5.2858e-21 0.000261422 0.00897788)
(5.36911e-23 0.000248937 0.00877456)
(-1.04869e-20 0.000236581 0.00858291)
(1.67406e-20 0.0002243 0.00840265)
(-5.25437e-17 0.000212031 0.00823353)
(-3.38501e-20 0.000199738 0.00807537)
(-2.17229e-20 0.000187408 0.00792801)
(5.04627e-17 0.00017502 0.00779131)
(2.28064e-20 0.000162551 0.00766513)
(2.55551e-20 0.00015 0.00754935)
(-6.26032e-17 0.000137393 0.00744386)
(4.28847e-17 0.000124769 0.00734855)
(-2.43002e-17 0.000112163 0.00726326)
(-2.38318e-17 9.95821e-05 0.00718778)
(-1.00165e-20 8.69812e-05 0.00712191)
(-4.44188e-21 7.42811e-05 0.00706548)
(1.15875e-17 6.1354e-05 0.00701831)
(5.11822e-22 4.81301e-05 0.00698041)
(1.16656e-17 3.46121e-05 0.00695192)
(4.15395e-21 2.08624e-05 0.00693297)
(3.67474e-22 6.96064e-06 0.00692365)
(1.59167e-19 0.00211524 0.137905)
(-1.67908e-17 0.00210832 0.132672)
(-1.2622e-17 0.00210041 0.127622)
(2.40791e-15 0.00208943 0.122774)
(3.10005e-17 0.00207645 0.118121)
(-2.23999e-15 0.00206054 0.113655)
(2.1459e-15 0.00204279 0.109369)
(1.22698e-17 0.00202294 0.105255)
(5.00024e-20 0.00200188 0.101307)
(-1.77399e-18 0.00197962 0.0975161)
(-9.01421e-18 0.00195655 0.0938762)
(1.71728e-15 0.00193267 0.0903801)
(6.70555e-19 0.00190777 0.0870217)
(1.62702e-15 0.00188253 0.0837948)
(6.91141e-18 0.00185567 0.0806942)
(1.3493e-16 0.0018287 0.0777148)
(5.86279e-19 0.00180041 0.0748516)
(7.10336e-19 0.00177196 0.0721003)
(-1.40561e-18 0.00174305 0.0694561)
(5.93355e-19 0.00171438 0.0669144)
(1.05281e-18 0.00168527 0.0644712)
(-1.16907e-16 0.0016565 0.0621224)
(5.06821e-20 0.00162763 0.0598634)
(1.85259e-19 0.00159828 0.0576912)
(-3.79313e-19 0.00156952 0.0556015)
(1.67328e-18 0.00154034 0.053591)
(-5.63371e-16 0.00151129 0.051657)
(5.05141e-16 0.00148293 0.0497957)
(1.40045e-18 0.00145453 0.0480041)
(-1.10298e-19 0.00142621 0.0462799)
(3.00581e-19 0.00139846 0.0446197)
(2.15812e-19 0.00137053 0.0430213)
(-1.04999e-18 0.00134265 0.041483)
(4.56264e-16 0.00131555 0.0400018)
(-4.85462e-16 0.00128848 0.0385754)
(-7.74495e-19 0.0012615 0.0372022)
(-4.72576e-19 0.00123494 0.0358797)
(-8.11482e-22 0.00120781 0.0346066)
(4.31112e-19 0.00118015 0.0333822)
(-4.1054e-19 0.00115287 0.0322046)
(-4.73476e-20 0.00112595 0.0310723)
(1.10252e-18 0.00109993 0.0299834)
(-4.2985e-16 0.00107548 0.0289349)
(-8.76629e-19 0.00105187 0.0279244)
(-9.16355e-22 0.00102844 0.0269502)
(-3.74373e-23 0.00100479 0.0260111)
(1.59663e-19 0.000980475 0.0251069)
(3.33382e-19 0.000955957 0.0242376)
(5.01924e-19 0.000932119 0.0234021)
(-3.8907e-16 0.000909482 0.0225988)
(-3.585e-20 0.000887976 0.0218252)
(-3.80143e-16 0.000867139 0.0210797)
(-3.62777e-19 0.000846392 0.0203609)
(1.18892e-19 0.00082513 0.0196683)
(-3.75142e-19 0.000802929 0.0190022)
(3.58834e-16 0.000780104 0.0183626)
(2.65785e-19 0.000757389 0.0177494)
(4.03137e-19 0.000735419 0.0171617)
(-3.20861e-16 0.000714583 0.016598)
(-8.92729e-20 0.000694741 0.0160566)
(-1.3575e-16 0.000675347 0.0155362)
(1.3234e-16 0.000655928 0.015036)
(1.12528e-19 0.000636335 0.0145558)
(-5.43434e-23 0.00061671 0.0140957)
(3.92568e-19 0.000597363 0.0136552)
(-5.3877e-16 0.000578487 0.0132335)
(-3.52517e-19 0.000560082 0.0128297)
(-1.22783e-16 0.000542077 0.0124431)
(5.27213e-20 0.000524324 0.012073)
(-2.12326e-16 0.000506664 0.0117188)
(-1.62653e-19 0.000489041 0.0113804)
(-9.15182e-21 0.000471447 0.0110573)
(1.59481e-17 0.000453875 0.0107491)
(-1.02367e-16 0.000436362 0.0104554)
(-1.02381e-16 0.000419216 0.0101754)
(-1.44105e-16 0.000402226 0.00990851)
(2.79684e-17 0.000385374 0.00965505)
(-2.81917e-17 0.000368692 0.00941465)
(-4.1915e-20 0.000352194 0.00918699)
(5.33684e-17 0.000335901 0.00897171)
(7.80848e-20 0.00031982 0.00876845)
(-1.06385e-16 0.000303913 0.00857685)
(-6.72917e-21 0.000288102 0.0083966)
(-9.22694e-17 0.00027232 0.00822748)
(-9.0848e-17 0.000256535 0.00806931)
(-5.54743e-20 0.000240711 0.00792194)
(6.2375e-21 0.000224806 0.0077852)
(-7.29302e-24 0.0002088 0.00765898)
(-2.56782e-20 0.000192704 0.00754317)
(6.27591e-17 0.000176548 0.00743768)
(3.60721e-20 0.00016038 0.00734237)
(1.39721e-20 0.000144239 0.00725708)
(-4.2244e-17 0.000128123 0.00718159)
(-1.76644e-20 0.000111959 0.0071157)
(-2.21115e-21 9.56427e-05 0.00705919)
(1.19768e-17 7.904e-05 0.0070119)
(1.80502e-17 6.2059e-05 0.00697385)
(1.05599e-20 4.47102e-05 0.00694525)
(-5.89162e-18 2.7053e-05 0.0069262)
(3.65451e-18 9.13141e-06 0.00691681)
(-2.05594e-17 0.00258531 0.137858)
(2.66363e-15 0.00257674 0.132663)
(2.38388e-17 0.0025671 0.127613)
(-1.25407e-17 0.00255369 0.122765)
(-2.4978e-20 0.00253782 0.118112)
(-1.98223e-17 0.00251834 0.113645)
(2.11092e-15 0.00249662 0.109359)
(2.07306e-15 0.00247237 0.105245)
(2.1211e-17 0.00244659 0.101296)
(-1.97331e-15 0.00241941 0.0975056)
(-1.82494e-17 0.0023912 0.0938656)
(1.7494e-15 0.00236207 0.0903693)
(8.7116e-18 0.0023317 0.0870109)
(1.99323e-18 0.00230086 0.0837838)
(1.22912e-20 0.00226808 0.0806831)
(-6.44891e-19 0.00223499 0.0777035)
(6.23352e-18 0.00220029 0.0748402)
(-1.49641e-15 0.00216545 0.0720889)
(-1.14893e-17 0.00213008 0.0694447)
(1.42654e-15 0.0020951 0.066903)
(1.59235e-15 0.00205975 0.0644598)
(9.48658e-19 0.00202464 0.062111)
(1.33383e-15 0.00198943 0.059852)
(5.63149e-16 0.00195356 0.0576797)
(-1.23742e-15 0.00191824 0.0555901)
(-3.81717e-18 0.00188258 0.0535795)
(-5.65361e-19 0.00184706 0.0516456)
(2.61536e-19 0.00181229 0.0497843)
(1.4112e-18 0.00177758 0.0479928)
(-4.90058e-16 0.00174295 0.0462687)
(-8.92459e-20 0.00170894 0.0446085)
(-4.72849e-16 0.00167487 0.0430101)
(-1.13101e-18 0.00164084 0.0414719)
(-7.85306e-19 0.00160764 0.0399907)
(4.80406e-16 0.00157465 0.0385644)
(4.77825e-16 0.00154175 0.0371913)
(9.8929e-19 0.00150922 0.0358687)
(9.97201e-22 0.00147618 0.0345955)
(-4.07932e-22 0.00144242 0.033371)
(5.56729e-19 0.00140899 0.0321936)
(-3.11916e-16 0.00137614 0.0310614)
(-3.07919e-16 0.00134434 0.0299729)
(-7.51341e-20 0.00131432 0.0289247)
(-4.2249e-16 0.00128535 0.0279143)
(-6.58732e-19 0.00125655 0.0269401)
(-4.99713e-22 0.00122753 0.0260009)
(-2.76162e-22 0.00119787 0.0250966)
(3.50505e-20 0.00116806 0.0242273)
(3.41417e-20 0.0011391 0.0233921)
(-9.40817e-20 0.00111149 0.022589)
(6.19626e-20 0.00108519 0.0218158)
(-8.55853e-20 0.00105968 0.0210703)
(5.10942e-22 0.00103424 0.0203514)
(1.99667e-23 0.00100819 0.0196587)
(6.60377e-23 0.000980997 0.0189923)
(1.17242e-19 0.000953065 0.0183527)
(-4.56099e-22 0.000925388 0.0177396)
(3.52686e-19 0.000898662 0.0171522)
(-3.46839e-16 0.000873225 0.0165888)
(-3.24743e-19 0.000848921 0.0160477)
(-1.51019e-19 0.00082513 0.0155273)
(1.32391e-16 0.000801329 0.015027)
(1.12138e-19 0.000777418 0.0145469)
(1.06425e-19 0.00075355 0.0140868)
(-1.04655e-16 0.000730007 0.0136464)
(-2.95804e-16 0.000707008 0.0132248)
(-1.24718e-16 0.000684552 0.0128213)
(-1.2356e-16 0.000662549 0.0124348)
(6.7731e-22 0.000640858 0.0120647)
(-1.07814e-16 0.000619298 0.0117106)
(-7.47038e-17 0.000597774 0.0113721)
(-4.84458e-20 0.000576287 0.011049)
(-1.71927e-21 0.000554834 0.0107409)
(-7.85032e-20 0.000533455 0.0104473)
(1.17797e-16 0.000512404 0.0101673)
(4.80144e-20 0.000491561 0.00990049)
(-4.51072e-20 0.000470887 0.00964709)
(1.40232e-16 0.000450428 0.00940677)
(7.57886e-20 0.000430211 0.00917918)
(8.66563e-21 0.000410248 0.00896399)
(-2.06688e-20 0.000390546 0.0087608)
(5.28973e-17 0.000371071 0.00856926)
(4.31813e-17 0.000351733 0.00838904)
(1.44248e-16 0.000332459 0.00821993)
(-4.14165e-17 0.000313199 0.00806176)
(-1.41592e-16 0.000293895 0.00791435)
(-6.48457e-20 0.000274496 0.00777757)
(-4.34346e-23 0.000254977 0.00765132)
(5.90418e-21 0.000235362 0.00753548)
(-1.02596e-20 0.000215692 0.00742996)
(4.3806e-17 0.000196013 0.00733466)
(2.63356e-20 0.000176363 0.00724938)
(-1.9543e-17 0.000156734 0.00717389)
(-1.73482e-20 0.000137014 0.00710794)
(2.37875e-17 0.000117076 0.00705133)
(1.16797e-17 9.67779e-05 0.00700389)
(7.52505e-21 7.60522e-05 0.00696567)
(-5.34859e-22 5.48777e-05 0.00693691)
(5.84371e-18 3.32979e-05 0.00691772)
(2.84086e-18 1.13296e-05 0.00690817)
(5.7788e-18 0.00305447 0.137845)
(-1.30999e-17 0.0030451 0.132653)
(2.4944e-15 0.00303374 0.127602)
(4.27603e-18 0.00301791 0.122754)
(1.37493e-17 0.00299913 0.1181)
(-2.08692e-15 0.00297609 0.113634)
(-9.60008e-18 0.00295039 0.109347)
(1.29199e-17 0.00292173 0.105233)
(-1.99659e-15 0.0028912 0.101284)
(-1.8713e-15 0.00285913 0.0974929)
(1.90629e-15 0.00282576 0.0938528)
(1.22628e-17 0.00279143 0.0903564)
(3.42247e-20 0.00275561 0.0869979)
(-1.50591e-20 0.00271916 0.0837706)
(6.94898e-18 0.00268045 0.0806697)
(-1.54591e-15 0.00264122 0.07769)
(-1.34966e-17 0.00260006 0.0748266)
(1.64643e-15 0.00255882 0.0720752)
(1.19708e-18 0.002517 0.069431)
(1.38983e-15 0.00247573 0.0668893)
(-1.39349e-15 0.00243422 0.0644461)
(-6.94452e-18 0.0023928 0.0620973)
(5.68234e-16 0.00235123 0.0598382)
(2.67524e-18 0.00230886 0.0576659)
(-1.0839e-18 0.00226691 0.0555763)
(1.66079e-18 0.00222475 0.0535657)
(-5.57803e-16 0.00218278 0.0516319)
(-5.54481e-16 0.00214155 0.0497707)
(5.39862e-16 0.00210053 0.0479792)
(-5.26405e-16 0.00205961 0.0462551)
(-1.3532e-18 0.0020193 0.0445951)
(-3.36326e-19 0.00197909 0.0429967)
(-3.85076e-22 0.00193895 0.0414585)
(8.446e-22 0.0018996 0.0399775)
(-6.26489e-19 0.0018607 0.0385512)
(4.38111e-16 0.00182191 0.0371781)
(9.08363e-19 0.0017834 0.0358556)
(9.16111e-22 0.00174447 0.0345822)
(-5.1981e-22 0.00170465 0.0333577)
(5.57851e-19 0.00166504 0.0321803)
(-3.13213e-16 0.00162629 0.0310484)
(-2.55162e-19 0.00158871 0.0299601)
(-3.05007e-16 0.00155307 0.0289123)
(-7.01587e-19 0.00151866 0.0279021)
(-4.03725e-22 0.00148445 0.0269279)
(3.99206e-22 0.00145005 0.0259886)
(-5.51842e-19 0.00141509 0.0250842)
(3.98406e-16 0.00138006 0.024215)
(3.95464e-16 0.00134602 0.0233801)
(6.63012e-16 0.00131346 0.0225774)
(7.40424e-16 0.00128231 0.0218044)
(6.44466e-16 0.00125207 0.0210591)
(7.62376e-19 0.00122189 0.0203401)
(4.39681e-22 0.001191 0.0196471)
(-1.02413e-25 0.0011588 0.0189804)
(4.42512e-22 0.00112578 0.0183407)
(-3.37058e-19 0.00109321 0.0177279)
(3.24637e-16 0.00106178 0.0171408)
(-3.46007e-16 0.00103175 0.0165778)
(-3.03606e-19 0.00100295 0.0160369)
(1.28003e-22 0.00097474 0.0155166)
(3.88285e-20 0.000946574 0.0150163)
(-2.59455e-19 0.000918379 0.0145362)
(3.25418e-16 0.000890314 0.0140762)
(1.54655e-19 0.000862614 0.0136359)
(1.02569e-16 0.000835505 0.0132145)
(-9.95051e-17 0.000809008 0.0128111)
(-1.00317e-16 0.000783015 0.0124247)
(2.13232e-16 0.000757388 0.0120547)
(4.26246e-20 0.000731936 0.0117006)
(1.23213e-16 0.000706521 0.0113622)
(1.17056e-19 0.000681137 0.0110391)
(-6.18174e-17 0.000655803 0.010731)
(1.03693e-16 0.000630554 0.0104375)
(-2.85359e-17 0.000605563 0.0101575)
(7.25389e-17 0.000580837 0.00989084)
(2.84016e-16 0.000556324 0.00963751)
(-2.94351e-17 0.000532067 0.00939728)
(-1.60224e-20 0.000508106 0.0091698)
(-2.61053e-20 0.000484456 0.0089547)
(5.3795e-17 0.000461122 0.00875161)
(-1.06498e-20 0.000438072 0.00856015)
(8.3282e-17 0.000415215 0.00837998)
(9.4338e-17 0.000392475 0.00821088)
(4.63046e-20 0.000369758 0.0080527)
(-1.93323e-20 0.00034699 0.00790527)
(6.10758e-23 0.000324118 0.00776845)
(-2.62833e-20 0.000301112 0.00764214)
(6.35087e-17 0.000278001 0.00752627)
(1.86911e-20 0.000254848 0.00742075)
(1.98785e-17 0.000231702 0.00732545)
(2.08978e-20 0.000208573 0.00724017)
(-4.22291e-17 0.000185423 0.00716466)
(-1.39411e-20 0.000162134 0.00709864)
(-2.55999e-21 0.000138564 0.0070419)
(2.12443e-17 0.000114558 0.00699428)
(1.15034e-17 9.0044e-05 0.00695586)
(1.60985e-17 6.50174e-05 0.0069269)
(6.63242e-21 3.95023e-05 0.00690753)
(2.56707e-18 1.34935e-05 0.00689771)
(2.72083e-15 0.00352408 0.137835)
(2.07117e-17 0.00351341 0.132641)
(-2.35503e-17 0.00350033 0.127589)
(2.39838e-15 0.00348208 0.122741)
(1.63194e-17 0.00346039 0.118087)
(-3.65001e-18 0.00343378 0.11362)
(1.48475e-17 0.00340408 0.109333)
(-2.06075e-15 0.00337101 0.105218)
(-1.50839e-17 0.00333573 0.101269)
(-1.45385e-18 0.00329877 0.0974782)
(2.80625e-18 0.00326025 0.093838)
(1.33494e-20 0.00322071 0.0903414)
(-8.6029e-25 0.00317946 0.0869827)
(1.65636e-20 0.00313739 0.0837552)
(-6.94639e-18 0.00309277 0.0806541)
(1.54471e-15 0.00304736 0.0776743)
(6.62916e-18 0.0029997 0.0748107)
(1.45838e-18 0.00295207 0.0720592)
(-4.03835e-19 0.00290382 0.069415)
(1.46935e-18 0.00285628 0.0668734)
(-1.46378e-18 0.00280868 0.0644302)
(-4.42873e-18 0.00276094 0.0620813)
(1.278e-15 0.00271298 0.0598222)
(1.31455e-15 0.00266413 0.0576499)
(4.26906e-18 0.00261551 0.0555602)
(1.75725e-18 0.00256683 0.0535497)
(-5.63822e-16 0.00251844 0.0516159)
(5.05366e-16 0.00247071 0.0497549)
(1.8395e-18 0.00242335 0.0479634)
(-4.17266e-19 0.0023762 0.0462394)
(-9.39597e-20 0.00232957 0.0445794)
(-1.0887e-21 0.00228321 0.042981)
(-2.83148e-20 0.00223699 0.0414429)
(-2.85477e-20 0.00219145 0.039962)
(-1.01162e-18 0.0021466 0.0385358)
(4.73597e-16 0.00210197 0.0371627)
(9.79613e-19 0.00205743 0.0358402)
(9.85749e-22 0.00201259 0.0345667)
(-5.1303e-22 0.00196677 0.0333421)
(5.50561e-19 0.001921 0.0321648)
(-3.08484e-16 0.00187635 0.0310331)
(-8.28532e-16 0.00183304 0.0299453)
(-4.32219e-16 0.00179172 0.0288978)
(-6.96237e-19 0.00175181 0.0278878)
(-5.49367e-22 0.00171214 0.0269136)
(-9.49428e-25 0.00167236 0.0259742)
(8.70437e-22 0.00163216 0.0250697)
(-9.72538e-19 0.00159197 0.0242007)
(8.67527e-16 0.00155289 0.0233661)
(3.90436e-16 0.00151536 0.0225638)
(3.90207e-19 0.0014793 0.0217911)
(3.50611e-16 0.00144425 0.0210459)
(4.14147e-19 0.00140927 0.0203269)
(2.38439e-22 0.0013735 0.0196336)
(-1.89146e-22 0.00133625 0.0189666)
(3.5965e-19 0.00129823 0.0183269)
(-3.5664e-16 0.00126082 0.0177143)
(3.22392e-16 0.00122474 0.0171276)
(-1.29506e-19 0.00119014 0.0165649)
(3.41894e-16 0.0011568 0.0160243)
(3.03741e-19 0.00112417 0.0155041)
(3.80561e-23 0.00109167 0.0150039)
(1.40375e-22 0.00105923 0.0145237)
(9.51749e-20 0.001027 0.0140638)
(-1.52052e-20 0.000995178 0.0136237)
(2.5549e-19 0.000963973 0.0132025)
(-3.14324e-16 0.000933439 0.0127993)
(-1.00151e-16 0.000903465 0.012413)
(-1.75399e-20 0.000873897 0.0120431)
(-6.852e-20 0.000844545 0.0116891)
(1.06844e-16 0.000815247 0.0113506)
(6.93397e-20 0.000785968 0.0110275)
(-1.34262e-20 0.000756739 0.0107195)
(3.21552e-20 0.00072761 0.010426)
(-2.78848e-17 0.000698667 0.0101462)
(2.26176e-20 0.000670032 0.00987955)
(-2.7935e-17 0.000641667 0.00962631)
(1.4057e-16 0.000613607 0.00938619)
(8.54556e-20 0.000585888 0.00915882)
(2.14883e-20 0.000558536 0.00894385)
(-4.38369e-17 0.000531568 0.00874088)
(-9.41158e-17 0.000504949 0.00854951)
(5.29981e-17 0.00047859 0.00836941)
(-2.28199e-21 0.0004524 0.00820035)
(9.07443e-17 0.000426249 0.00804216)
(3.4745e-20 0.000400031 0.00789469)
(-4.47367e-23 0.000373694 0.00775782)
(2.85787e-23 0.000347228 0.00763147)
(1.32113e-20 0.000320663 0.00751557)
(-1.27019e-17 0.000294061 0.00741004)
(1.37859e-20 0.00026747 0.00731474)
(-4.31393e-17 0.000240879 0.00722946)
(-2.41849e-17 0.000214233 0.0071539)
(3.74789e-17 0.000187349 0.00708778)
(3.2915e-17 0.00016006 0.00703087)
(1.20073e-17 0.000132276 0.00698305)
(1.82332e-17 0.000103939 0.00694441)
(6.47973e-21 7.50376e-05 0.00691523)
(5.89954e-18 4.55844e-05 0.00689563)
(3.65403e-18 1.55706e-05 0.00688549)
(2.73786e-15 0.00399365 0.137828)
(2.26926e-18 0.00398166 0.132627)
(2.48306e-15 0.00396686 0.127575)
(-1.69761e-18 0.00394621 0.122726)
(9.06614e-17 0.00392157 0.118072)
(-1.28615e-17 0.0038914 0.113604)
(2.11796e-15 0.00385769 0.109317)
(9.32445e-18 0.00382023 0.105202)
(-1.04211e-17 0.00378018 0.101253)
(1.84746e-15 0.00373834 0.0974614)