/*--------------------------------*- C++ -*----------------------------------*\
| =========                 |                                                 |
| \\      /  F ield         | OpenFOAM: The Open Source CFD Toolbox           |
|  \\    /   O peration     | Version:  4.1                                   |
|   \\  /    A nd           | Web:      www.OpenFOAM.org                      |
|    \\/     M anipulation  |                                                 |
\*---------------------------------------------------------------------------*/
FoamFile
{
    version     2.0;
    format      ascii;
    class       volScalarField;
    location    "5";
    object      p;
}
// * * * * * * * * * * * * * * * * * * * * * * * * * * * * * * * * * * * * * //

dimensions      [0 2 -2 0 0 0 0];

internalField   nonuniform List<scalar> 
1705
(
7.66754e-29
3.97934e-28
7.3825e-28
8.93959e-28
1.04978e-27
1.35448e-27
1.73557e-27
1.90068e-27
2.06556e-27
2.36626e-27
2.80744e-27
2.9895e-27
3.30693e-27
3.81331e-27
4.01793e-27
4.22254e-27
4.55596e-27
5.16697e-27
5.40491e-27
5.77746e-27
6.50399e-27
6.78311e-27
7.06261e-27
7.47393e-27
8.37286e-27
8.70818e-27
9.04323e-27
9.50754e-27
1.06351e-26
1.10446e-26
1.15917e-26
1.29832e-26
1.34842e-26
1.39854e-26
1.46141e-26
1.63932e-26
1.70178e-26
1.77681e-26
2.00041e-26
2.07789e-26
2.13259e-26
2.1647e-26
2.21365e-26
2.27093e-26
-8.59795e-27
2.4304e-26
2.41253e-26
2.40236e-26
2.40885e-26
2.41632e-26
2.42474e-26
2.45053e-26
2.48484e-26
-7.56128e-27
2.46306e-26
2.42394e-26
2.39319e-26
2.38013e-26
2.36847e-26
2.35823e-26
2.36571e-26
2.38198e-26
-9.03198e-27
2.21936e-26
2.16436e-26
2.1194e-26
2.09277e-26
2.06826e-26
2.04588e-26
2.04144e-26
2.04668e-26
-1.06547e-26
1.2686e-26
1.2165e-26
1.1757e-26
1.15398e-26
1.13762e-26
1.12647e-26
1.12815e-26
1.13996e-26
-4.7441e-27
-5.12937e-27
-5.44383e-27
-5.61904e-27
-5.89368e-27
-6.0427e-27
-6.30038e-27
-6.49571e-27
-6.59616e-27
-6.77138e-27
-6.90338e-27
-6.95868e-27
-7.06589e-27
-7.10111e-27
-7.17792e-27
-7.24015e-27
-7.23942e-27
-7.28472e-27
-7.27008e-27
-7.27619e-27
-7.29357e-27
-7.25547e-27
-7.22955e-27
-7.22982e-27
-7.17617e-27
-7.17154e-27
-7.1153e-27
-7.06815e-27
-7.05907e-27
-6.99937e-27
-6.99139e-27
-6.93472e-27
-6.892e-27
-6.88968e-27
-6.83975e-27
-6.80895e-27
-6.8173e-27
-6.77808e-27
-6.79372e-27
-6.76248e-27
2.79165e-30
2.30445e-30
6.88714e-31
-1.95649e-30
-5.54531e-30
-9.95269e-30
-1.50081e-29
-2.04936e-29
-2.6147e-29
-3.16758e-29
-3.67882e-29
-4.12459e-29
-4.49446e-29
-4.80181e-29
-5.0953e-29
-5.46909e-29
-6.06757e-29
-7.08011e-29
-8.72101e-29
-1.1192e-28
-1.46277e-28
-1.90311e-28
-2.42087e-28
-2.97254e-28
-3.48983e-28
-3.88611e-28
-4.07345e-28
-3.99556e-28
-3.68029e-28
-3.30784e-28
-3.27477e-28
-4.21543e-28
-6.92486e-28
-1.21406e-27
-2.02343e-27
-3.09345e-27
-4.29594e-27
-5.47131e-27
-6.34724e-27
2.81113e-30
2.31902e-30
7.00833e-31
-1.94531e-30
-5.53469e-30
-9.94249e-30
-1.49983e-29
-2.04841e-29
-2.61373e-29
-3.16649e-29
-3.67737e-29
-4.12238e-29
-4.4909e-29
-4.79612e-29
-5.08663e-29
-5.45662e-29
-6.05081e-29
-7.05915e-29
-8.69682e-29
-1.11665e-28
-1.4604e-28
-1.90126e-28
-2.4199e-28
-2.9727e-28
-3.49112e-28
-3.88801e-28
-4.07458e-28
-3.99329e-28
-3.67069e-28
-3.2865e-28
-3.23895e-28
-4.16749e-28
-6.87582e-28
-1.21098e-27
-2.02434e-27
-3.10086e-27
-4.30901e-27
-5.49104e-27
-6.36857e-27
2.82018e-30
2.32266e-30
7.04806e-31
-1.93692e-30
-5.51935e-30
-9.91822e-30
-1.49636e-29
-2.04377e-29
-2.60783e-29
-3.15925e-29
-3.66869e-29
-4.11209e-29
-4.47875e-29
-4.78171e-29
-5.06945e-29
-5.43607e-29
-6.02626e-29
-7.03001e-29
-8.66264e-29
-1.1127e-28
-1.45591e-28
-1.89624e-28
-2.41438e-28
-2.96665e-28
-3.48449e-28
-3.88057e-28
-4.06576e-28
-3.98203e-28
-3.65566e-28
-3.26723e-28
-3.21809e-28
-4.15376e-28
-6.88662e-28
-1.21691e-27
-2.03729e-27
-3.12272e-27
-4.33793e-27
-5.52594e-27
-6.40443e-27
2.82007e-30
2.31781e-30
7.03285e-31
-1.92913e-30
-5.49785e-30
-9.87936e-30
-1.49045e-29
-2.03562e-29
-2.59733e-29
-3.14633e-29
-3.65335e-29
-4.09436e-29
-4.45863e-29
-4.7591e-29
-5.04407e-29
-5.4074e-29
-5.99342e-29
-6.99174e-29
-8.6172e-29
-1.10722e-28
-1.44924e-28
-1.8881e-28
-2.4045e-28
-2.95487e-28
-3.47071e-28
-3.86481e-28
-4.04813e-28
-3.96272e-28
-3.63543e-28
-3.24882e-28
-3.20861e-28
-4.16766e-28
-6.94745e-28
-1.2306e-27
-2.06089e-27
-3.15767e-27
-4.38149e-27
-5.57515e-27
-6.45385e-27
2.81196e-30
2.30627e-30
6.98092e-31
-1.92044e-30
-5.46919e-30
-9.82561e-30
-1.48215e-29
-2.02412e-29
-2.58245e-29
-3.12806e-29
-3.63178e-29
-4.06967e-29
-4.431e-29
-4.72866e-29
-5.0107e-29
-5.37056e-29
-5.95198e-29
-6.94372e-29
-8.55968e-29
-1.10013e-28
-1.44032e-28
-1.87685e-28
-2.39045e-28
-2.93768e-28
-3.45032e-28
-3.84148e-28
-4.02253e-28
-3.93607e-28
-3.61016e-28
-3.23028e-28
-3.20778e-28
-4.20405e-28
-7.05046e-28
-1.251e-27
-2.0939e-27
-3.20442e-27
-4.43835e-27
-5.63743e-27
-6.51654e-27
2.79678e-30
2.28926e-30
6.90393e-31
-1.9099e-30
-5.43277e-30
-9.75682e-30
-1.47152e-29
-2.00936e-29
-2.56338e-29
-3.10468e-29
-3.60426e-29
-4.03832e-29
-4.3962e-29
-4.69067e-29
-4.96951e-29
-5.32558e-29
-5.90173e-29
-6.88557e-29
-8.48957e-29
-1.09137e-28
-1.42915e-28
-1.86254e-28
-2.37235e-28
-2.91536e-28
-3.42372e-28
-3.81111e-28
-3.98953e-28
-3.90253e-28
-3.57993e-28
-3.21091e-28
-3.21353e-28
-4.25899e-28
-7.18944e-28
-1.27724e-27
-2.13521e-27
-3.26164e-27
-4.50699e-27
-5.71114e-27
-6.58949e-27
2.7753e-30
2.26759e-30
6.80899e-31
-1.89695e-30
-5.38826e-30
-9.67294e-30
-1.45857e-29
-1.99142e-29
-2.54023e-29
-3.07634e-29
-3.57098e-29
-4.00055e-29
-4.35444e-29
-4.64533e-29
-4.92063e-29
-5.27249e-29
-5.84262e-29
-6.81711e-29
-8.40662e-29
-1.08093e-28
-1.41571e-28
-1.8452e-28
-2.3503e-28
-2.88807e-28
-3.39119e-28
-3.77404e-28
-3.94953e-28
-3.86244e-28
-3.54478e-28
-3.19013e-28
-3.22428e-28
-4.32935e-28
-7.3592e-28
-1.30858e-27
-2.18377e-27
-3.32799e-27
-4.58573e-27
-5.79428e-27
-6.67186e-27
2.74811e-30
2.24178e-30
6.70034e-31
-1.88125e-30
-5.33548e-30
-9.57403e-30
-1.44334e-29
-1.97035e-29
-2.51309e-29
-3.04317e-29
-3.5321e-29
-3.9565e-29
-4.30588e-29
-4.59279e-29
-4.86419e-29
-5.21135e-29
-5.77465e-29
-6.73829e-29
-8.31076e-29
-1.0688e-28
-1.40002e-28
-1.82487e-28
-2.32437e-28
-2.85596e-28
-3.35293e-28
-3.73054e-28
-3.90281e-28
-3.81601e-28
-3.50472e-28
-3.16748e-28
-3.2387e-28
-4.41243e-28
-7.55507e-28
-1.34426e-27
-2.23851e-27
-3.40199e-27
-4.67265e-27
-5.88446e-27
-6.75965e-27
2.71566e-30
2.21217e-30
6.5805e-31
-1.86263e-30
-5.27438e-30
-9.46017e-30
-1.42586e-29
-1.94621e-29
-2.48203e-29
-3.00525e-29
-3.48772e-29
-3.90632e-29
-4.25066e-29
-4.53317e-29
-4.80029e-29
-5.14227e-29
-5.69787e-29
-6.64916e-29
-8.20205e-29
-1.05499e-28
-1.3821e-28
-1.8016e-28
-2.29466e-28
-2.81914e-28
-3.30909e-28
-3.68081e-28
-3.84958e-28
-3.76341e-28
-3.45973e-28
-3.14257e-28
-3.25562e-28
-4.50576e-28
-7.77253e-28
-1.38355e-27
-2.29828e-27
-3.48203e-27
-4.76561e-27
-5.97895e-27
-6.84961e-27
2.6783e-30
2.17899e-30
6.45097e-31
-1.84101e-30
-5.20496e-30
-9.3315e-30
-1.40615e-29
-1.91904e-29
-2.44711e-29
-2.96267e-29
-3.43794e-29
-3.8501e-29
-4.1889e-29
-4.46661e-29
-4.72906e-29
-5.06535e-29
-5.6124e-29
-6.5498e-29
-8.0806e-29
-1.03952e-28
-1.36198e-28
-1.77543e-28
-2.26122e-28
-2.77771e-28
-3.25983e-28
-3.62502e-28
-3.79004e-28
-3.7048e-28
-3.40983e-28
-3.115e-28
-3.27391e-28
-4.60687e-28
-8.00693e-28
-1.42568e-27
-2.36189e-27
-3.56634e-27
-4.86224e-27
-6.07476e-27
-6.94028e-27
2.6363e-30
2.14238e-30
6.3127e-31
-1.81634e-30
-5.12728e-30
-9.18818e-30
-1.38425e-29
-1.88889e-29
-2.40839e-29
-2.9155e-29
-3.38285e-29
-3.78795e-29
-4.12071e-29
-4.39321e-29
-4.65062e-29
-4.98071e-29
-5.51835e-29
-6.44038e-29
-7.94659e-29
-1.02242e-28
-1.3397e-28
-1.74642e-28
-2.22414e-28
-2.7318e-28
-3.20527e-28
-3.56333e-28
-3.72436e-28
-3.6403e-28
-3.35499e-28
-3.08441e-28
-3.29246e-28
-4.71325e-28
-8.25343e-28
-1.4698e-27
-2.428e-27
-3.65298e-27
-4.95996e-27
-6.16857e-27
-7.02617e-27
2.5899e-30
2.10249e-30
6.16631e-31
-1.78864e-30
-5.04142e-30
-9.03042e-30
-1.36019e-29
-1.85579e-29
-2.36594e-29
-2.86383e-29
-3.32255e-29
-3.71998e-29
-4.0462e-29
-4.3131e-29
-4.56509e-29
-4.88849e-29
-5.41588e-29
-6.32105e-29
-7.80026e-29
-1.00372e-28
-1.3153e-28
-1.71463e-28
-2.1835e-28
-2.6815e-28
-3.14556e-28
-3.49592e-28
-3.65271e-28
-3.57006e-28
-3.29522e-28
-3.05044e-28
-3.31013e-28
-4.82229e-28
-8.50694e-28
-1.51503e-27
-2.49522e-27
-3.7399e-27
-5.05601e-27
-6.25687e-27
-7.10307e-27
2.53926e-30
2.05941e-30
6.01225e-31
-1.75793e-30
-4.9475e-30
-8.85843e-30
-1.334e-29
-1.81981e-29
-2.31982e-29
-2.80773e-29
-3.25712e-29
-3.6463e-29
-3.9655e-29
-4.22641e-29
-4.47262e-29
-4.78884e-29
-5.30515e-29
-6.19203e-29
-7.64184e-29
-9.83451e-29
-1.28883e-28
-1.68011e-28
-2.13938e-28
-2.62692e-28
-3.08084e-28
-3.42294e-28
-3.57526e-28
-3.49421e-28
-3.23053e-28
-3.01273e-28
-3.32576e-28
-4.93129e-28
-8.76209e-28
-1.56045e-27
-2.56206e-27
-3.82491e-27
-5.14748e-27
-6.33602e-27
-7.16917e-27
2.48456e-30
2.01323e-30
5.85089e-31
-1.72423e-30
-4.84564e-30
-8.67246e-30
-1.30572e-29
-1.781e-29
-2.2701e-29
-2.74729e-29
-3.18668e-29
-3.56701e-29
-3.87873e-29
-4.13328e-29
-4.37335e-29
-4.68191e-29
-5.18635e-29
-6.05353e-29
-7.47162e-29
-9.61646e-29
-1.26033e-28
-1.64295e-28
-2.09188e-28
-2.56819e-28
-3.01125e-28
-3.34458e-28
-3.4922e-28
-3.41293e-28
-3.16092e-28
-2.97092e-28
-3.33816e-28
-5.03745e-28
-9.01329e-28
-1.60506e-27
-2.62698e-27
-3.90573e-27
-5.23135e-27
-6.40224e-27
-7.21813e-27
2.42595e-30
1.96405e-30
5.68256e-31
-1.6876e-30
-4.736e-30
-8.47278e-30
-1.2754e-29
-1.7394e-29
-2.21686e-29
-2.68259e-29
-3.11132e-29
-3.48224e-29
-3.78603e-29
-4.03385e-29
-4.26744e-29
-4.56789e-29
-5.05968e-29
-5.90578e-29
-7.28989e-29
-9.38347e-29
-1.22986e-28
-1.60321e-28
-2.0411e-28
-2.50543e-28
-2.93695e-28
-3.261e-28
-3.40372e-28
-3.32635e-28
-3.08643e-28
-2.92466e-28
-3.34614e-28
-5.13789e-28
-9.25477e-28
-1.64785e-27
-2.68838e-27
-3.98006e-27
-5.30457e-27
-6.45171e-27
-7.24809e-27
2.36355e-30
1.91194e-30
5.50756e-31
-1.64808e-30
-4.61871e-30
-8.25969e-30
-1.24307e-29
-1.6951e-29
-2.16017e-29
-2.61375e-29
-3.03116e-29
-3.39213e-29
-3.68754e-29
-3.92828e-29
-4.15506e-29
-4.44696e-29
-4.92534e-29
-5.74904e-29
-7.09697e-29
-9.13598e-29
-1.19748e-28
-1.56097e-28
-1.98713e-28
-2.43877e-28
-2.85811e-28
-3.1724e-28
-3.31003e-28
-3.23467e-28
-3.00711e-28
-2.87363e-28
-3.34849e-28
-5.22971e-28
-9.48065e-28
-1.6878e-27
-2.74466e-27
-4.04555e-27
-5.36405e-27
-6.48061e-27
-7.25298e-27
2.2975e-30
1.857e-30
5.32618e-31
-1.60573e-30
-4.49397e-30
-8.03348e-30
-1.20879e-29
-1.64814e-29
-2.10012e-29
-2.54085e-29
-2.94632e-29
-3.2968e-29
-3.5834e-29
-3.81673e-29
-4.03639e-29
-4.31932e-29
-4.78356e-29
-5.58357e-29
-6.89321e-29
-8.87443e-29
-1.16325e-28
-1.51631e-28
-1.93009e-28
-2.36835e-28
-2.77488e-28
-3.07897e-28
-3.21133e-28
-3.13807e-28
-2.923e-28
-2.8175e-28
-3.34403e-28
-5.30999e-28
-9.68499e-28
-1.72386e-27
-2.7942e-27
-4.09989e-27
-5.4068e-27
-6.4852e-27
-7.22858e-27
2.22792e-30
1.79932e-30
5.13873e-31
-1.56061e-30
-4.36195e-30
-7.79451e-30
-1.17261e-29
-1.5986e-29
-2.03679e-29
-2.464e-29
-2.85693e-29
-3.19639e-29
-3.47378e-29
-3.69937e-29
-3.9116e-29
-4.18516e-29
-4.63457e-29
-5.40966e-29
-6.67896e-29
-8.59928e-29
-1.12723e-28
-1.46931e-28
-1.87008e-28
-2.29431e-28
-2.68744e-28
-2.98092e-28
-3.10784e-28
-3.03674e-28
-2.83419e-28
-2.75598e-28
-3.3316e-28
-5.37585e-28
-9.86191e-28
-1.75501e-27
-2.83542e-27
-4.14085e-27
-5.42989e-27
-6.46196e-27
-7.17328e-27
2.15493e-30
1.73898e-30
4.9455e-31
-1.51278e-30
-4.22284e-30
-7.54312e-30
-1.13457e-29
-1.54656e-29
-1.97029e-29
-2.38333e-29
-2.76312e-29
-3.09107e-29
-3.35885e-29
-3.57639e-29
-3.78091e-29
-4.0447e-29
-4.47862e-29
-5.2276e-29
-6.45459e-29
-8.31103e-29
-1.08948e-28
-1.42007e-28
-1.80722e-28
-2.2168e-28
-2.59597e-28
-2.87844e-28
-2.99979e-28
-2.93089e-28
-2.74077e-28
-2.68882e-28
-3.31009e-28
-5.42448e-28
-1.00056e-27
-1.78022e-27
-2.86679e-27
-4.16629e-27
-5.43059e-27
-6.40754e-27
-7.08219e-27
2.07867e-30
1.67609e-30
4.7468e-31
-1.46232e-30
-4.07685e-30
-7.27968e-30
-1.09474e-29
-1.49209e-29
-1.90071e-29
-2.29896e-29
-2.66503e-29
-2.981e-29
-3.23877e-29
-3.44797e-29
-3.6445e-29
-3.89817e-29
-4.31596e-29
-5.03769e-29
-6.22047e-29
-8.01017e-29
-1.05008e-28
-1.36867e-28
-1.74162e-28
-2.13596e-28
-2.50065e-28
-2.77176e-28
-2.88739e-28
-2.82074e-28
-2.64284e-28
-2.61578e-28
-3.27846e-28
-5.4532e-28
-1.01106e-27
-1.79854e-27
-2.88687e-27
-4.17425e-27
-5.4064e-27
-6.31881e-27
-6.95241e-27
1.99924e-30
1.61074e-30
4.54294e-31
-1.40931e-30
-3.9242e-30
-7.00459e-30
-1.05318e-29
-1.43527e-29
-1.82816e-29
-2.211e-29
-2.56281e-29
-2.86632e-29
-3.11374e-29
-3.31431e-29
-3.50261e-29
-3.7458e-29
-4.14685e-29
-4.84024e-29
-5.97702e-29
-7.69724e-29
-1.00909e-28
-1.31521e-28
-1.67342e-28
-2.05195e-28
-2.40166e-28
-2.66109e-28
-2.77089e-28
-2.70649e-28
-2.54054e-28
-2.53668e-28
-3.23576e-28
-5.45946e-28
-1.01717e-27
-1.80904e-27
-2.89432e-27
-4.16297e-27
-5.3551e-27
-6.19297e-27
-6.78311e-27
1.91678e-30
1.54303e-30
4.33423e-31
-1.35381e-30
-3.76512e-30
-6.71825e-30
-1.00995e-29
-1.37618e-29
-1.75274e-29
-2.1196e-29
-2.45662e-29
-2.74723e-29
-2.98395e-29
-3.17562e-29
-3.35544e-29
-3.58783e-29
-3.97157e-29
-4.63559e-29
-5.72463e-29
-7.37276e-29
-9.66589e-29
-1.25977e-28
-1.60273e-28
-1.96492e-28
-2.2992e-28
-2.54663e-28
-2.65052e-28
-2.5884e-28
-2.43401e-28
-2.45141e-28
-3.18114e-28
-5.44094e-28
-1.01838e-27
-1.81088e-27
-2.88792e-27
-4.13095e-27
-5.27485e-27
-6.02749e-27
-6.57245e-27
1.83142e-30
1.47306e-30
4.12099e-31
-1.29592e-30
-3.59983e-30
-6.4211e-30
-9.65104e-30
-1.31493e-29
-1.67456e-29
-2.02488e-29
-2.34661e-29
-2.6239e-29
-2.84959e-29
-3.03212e-29
-3.20323e-29
-3.42452e-29
-3.7904e-29
-4.42407e-29
-5.46373e-29
-7.03728e-29
-9.22642e-29
-1.20247e-28
-1.52967e-28
-1.87503e-28
-2.19345e-28
-2.42861e-28
-2.52651e-28
-2.46668e-28
-2.32343e-28
-2.35987e-28
-3.11385e-28
-5.39557e-28
-1.01427e-27
-1.80329e-27
-2.86664e-27
-4.07695e-27
-5.16422e-27
-5.82004e-27
-6.32081e-27
1.74328e-30
1.40093e-30
3.90352e-31
-1.23572e-30
-3.4286e-30
-6.11358e-30
-9.18722e-30
-1.25159e-29
-1.59376e-29
-1.92699e-29
-2.23296e-29
-2.49652e-29
-2.71086e-29
-2.88402e-29
-3.04621e-29
-3.25612e-29
-3.60363e-29
-4.20602e-29
-5.19475e-29
-6.69136e-29
-8.77327e-29
-1.14338e-28
-1.45437e-28
-1.78243e-28
-2.0846e-28
-2.30724e-28
-2.3991e-28
-2.34157e-28
-2.20898e-28
-2.26205e-28
-3.03332e-28
-5.32155e-28
-1.00446e-27
-1.78562e-27
-2.82958e-27
-4.00011e-27
-5.02231e-27
-5.56842e-27
-6.03015e-27
1.65249e-30
1.32676e-30
3.68215e-31
-1.17329e-30
-3.25168e-30
-5.79615e-30
-8.70869e-30
-1.18626e-29
-1.51043e-29
-1.82609e-29
-2.11582e-29
-2.36529e-29
-2.56798e-29
-2.73155e-29
-2.88464e-29
-3.0829e-29
-3.41156e-29
-3.98179e-29
-4.91813e-29
-6.33556e-29
-8.30718e-29
-1.08262e-28
-1.37696e-28
-1.68728e-28
-1.97283e-28
-2.18273e-28
-2.26853e-28
-2.21333e-28
-2.09088e-28
-2.15799e-28
-2.93908e-28
-5.21738e-28
-9.8861e-28
-1.7573e-27
-2.77605e-27
-3.89989e-27
-4.84885e-27
-5.27039e-27
-5.70515e-27
1.55918e-30
1.25064e-30
3.45719e-31
-1.10875e-30
-3.06933e-30
-5.46929e-30
-8.21618e-30
-1.11905e-29
-1.42472e-29
-1.72232e-29
-1.99539e-29
-2.23039e-29
-2.42118e-29
-2.57495e-29
-2.71876e-29
-2.90512e-29
-3.21449e-29
-3.75175e-29
-4.6343e-29
-5.97047e-29
-7.82891e-29
-1.02028e-28
-1.29757e-28
-1.58975e-28
-1.85833e-28
-2.05531e-28
-2.13502e-28
-2.08219e-28
-1.96935e-28
-2.0478e-28
-2.83086e-28
-5.08196e-28
-9.66481e-28
-1.71791e-27
-2.70557e-27
-3.77615e-27
-4.64428e-27
-4.92319e-27
-5.38566e-27
1.46348e-30
1.17269e-30
3.22898e-31
-1.04217e-30
-2.88182e-30
-5.13348e-30
-7.71043e-30
-1.05005e-29
-1.33676e-29
-1.61583e-29
-1.87184e-29
-2.09204e-29
-2.27066e-29
-2.41446e-29
-2.54882e-29
-2.72308e-29
-3.01275e-29
-3.51626e-29
-4.34374e-29
-5.59667e-29
-7.33921e-29
-9.56463e-29
-1.21632e-28
-1.48997e-28
-1.74129e-28
-1.92517e-28
-1.99881e-28
-1.94841e-28
-1.84464e-28
-1.93167e-28
-2.70856e-28
-4.91453e-28
-9.37892e-28
-1.66714e-27
-2.61786e-27
-3.62917e-27
-4.41e-27
-4.52181e-27
-4.73606e-27
1.36551e-30
1.09301e-30
2.99782e-31
-9.73664e-31
-2.68945e-30
-4.78925e-30
-7.1922e-30
-9.79367e-30
-1.24666e-29
-1.5068e-29
-1.74537e-29
-1.95045e-29
-2.11668e-29
-2.25033e-29
-2.37511e-29
-2.53706e-29
-2.80665e-29
-3.2757e-29
-4.04689e-29
-5.21475e-29
-6.83887e-29
-8.91265e-29
-1.13333e-28
-1.38812e-28
-1.62189e-28
-1.79253e-28
-1.86012e-28
-1.81221e-28
-1.71702e-28
-1.80983e-28
-2.57224e-28
-4.71474e-28
-9.02746e-28
-1.60482e-27
-2.51285e-27
-3.45959e-27
-4.14863e-27
-4.07197e-27
-3.79626e-27
1.26542e-30
1.01173e-30
2.76406e-31
-9.03335e-31
-2.4925e-30
-4.43711e-30
-6.66227e-30
-9.07108e-30
-1.15458e-29
-1.39539e-29
-1.61615e-29
-1.80584e-29
-1.95945e-29
-2.08281e-29
-2.19788e-29
-2.34734e-29
-2.5965e-29
-3.03044e-29
-3.74422e-29
-4.82529e-29
-6.32865e-29
-8.24786e-29
-1.04874e-28
-1.28435e-28
-1.50031e-28
-1.65758e-28
-1.71917e-28
-1.67385e-28
-1.58677e-28
-1.6826e-28
-2.42218e-28
-4.48266e-28
-8.61026e-28
-1.53092e-27
-2.39067e-27
-3.26843e-27
-3.86399e-27
-3.5873e-27
-2.57267e-27
1.16333e-30
9.28947e-31
2.52801e-31
-8.31289e-31
-2.29127e-30
-4.07758e-30
-6.12145e-30
-8.33383e-30
-1.06065e-29
-1.28175e-29
-1.4844e-29
-1.65842e-29
-1.79922e-29
-1.91215e-29
-2.01741e-29
-2.15423e-29
-2.38266e-29
-2.78087e-29
-3.43621e-29
-4.42891e-29
-5.80931e-29
-7.57126e-29
-9.62666e-29
-1.1788e-28
-1.37672e-28
-1.52053e-28
-1.57618e-28
-1.53357e-28
-1.45417e-28
-1.55037e-28
-2.25882e-28
-4.21881e-28
-8.12801e-28
-1.44557e-27
-2.25168e-27
-3.05698e-27
-3.56086e-27
-3.09094e-27
-9.31729e-28
1.05936e-30
8.44784e-31
2.29001e-31
-7.57635e-31
-2.08606e-30
-3.71122e-30
-5.57056e-30
-7.58304e-30
-9.65012e-30
-1.16608e-29
-1.3503e-29
-1.50843e-29
-1.63625e-29
-1.73864e-29
-1.83399e-29
-1.95803e-29
-2.16544e-29
-2.52738e-29
-3.12332e-29
-4.02619e-29
-5.28164e-29
-6.88385e-29
-8.75236e-29
-1.07162e-28
-1.25131e-28
-1.38157e-28
-1.43135e-28
-1.3916e-28
-1.31954e-28
-1.41356e-28
-2.0828e-28
-3.9241e-28
-7.58226e-28
-1.34901e-27
-2.09638e-27
-2.82673e-27
-3.24436e-27
-2.62256e-27
6.5507e-29
9.53655e-31
7.59355e-31
2.0504e-31
-6.82484e-31
-1.87718e-30
-3.33859e-30
-5.01044e-30
-6.81984e-30
-8.67813e-30
-1.04854e-29
-1.21407e-29
-1.35608e-29
-1.47077e-29
-1.56252e-29
-1.64789e-29
-1.75905e-29
-1.94519e-29
-2.27036e-29
-2.80603e-29
-3.61774e-29
-4.74641e-29
-6.1866e-29
-7.86572e-29
-9.62975e-29
-1.12424e-28
-1.24088e-28
-1.28489e-28
-1.24817e-28
-1.18319e-28
-1.27269e-28
-1.89494e-28
-3.59989e-28
-6.9754e-28
-1.24164e-27
-1.92549e-27
-2.57925e-27
-2.91876e-27
-2.19922e-27
6.21709e-28
8.46323e-31
6.72782e-31
1.80954e-31
-6.05951e-31
-1.66496e-30
-2.96024e-30
-4.44193e-30
-6.0454e-30
-7.69201e-30
-9.29312e-30
-1.07592e-29
-1.20162e-29
-1.30305e-29
-1.38408e-29
-1.45942e-29
-1.55759e-29
-1.72225e-29
-2.01022e-29
-2.48483e-29
-3.20416e-29
-4.20438e-29
-5.4805e-29
-6.96796e-29
-8.52998e-29
-9.9568e-29
-1.09865e-28
-1.137e-28
-1.10352e-28
-1.04544e-28
-1.12831e-28
-1.69625e-28
-3.24796e-28
-6.31064e-28
-1.12399e-27
-1.73986e-27
-2.31614e-27
-2.58711e-27
-1.82468e-27
8.91415e-28
7.37486e-31
5.85184e-31
1.56777e-31
-5.28152e-31
-1.44971e-30
-2.57675e-30
-3.8659e-30
-5.26089e-30
-6.69326e-30
-8.08579e-30
-9.36047e-30
-1.04528e-29
-1.13334e-29
-1.2036e-29
-1.26886e-29
-1.35397e-29
-1.49698e-29
-1.74734e-29
-2.16019e-29
-2.78606e-29
-3.65633e-29
-4.76653e-29
-6.06028e-29
-7.41835e-29
-8.65793e-29
-9.55058e-29
-9.87859e-29
-9.57846e-29
-9.06609e-29
-9.81031e-29
-1.48789e-28
-2.87049e-28
-5.59202e-28
-9.9673e-28
-1.5405e-27
-2.03895e-27
-2.25132e-27
-1.49583e-27
9.70015e-28
6.27258e-31
4.96689e-31
1.32549e-31
-4.49203e-31
-1.23177e-30
-2.18872e-30
-3.28323e-30
-4.46751e-30
-5.6834e-30
-6.86525e-30
-7.94674e-30
-8.873e-30
-9.619e-30
-1.02134e-29
-1.0765e-29
-1.14852e-29
-1.26971e-29
-1.48212e-29
-1.83261e-29
-2.36404e-29
-3.10302e-29
-4.04564e-29
-5.14388e-29
-6.2963e-29
-7.3474e-29
-8.10276e-29
-8.37654e-29
-8.11373e-29
-7.67029e-29
-8.3149e-29
-1.27116e-28
-2.47001e-28
-4.82431e-28
-8.60643e-28
-1.32854e-27
-1.74921e-27
-1.91241e-27
-1.20616e-27
9.30186e-28
5.15743e-31
4.07426e-31
1.08308e-31
-3.69225e-31
-1.01146e-30
-1.79673e-30
-2.69481e-30
-3.66648e-30
-4.66398e-30
-5.63337e-30
-6.52015e-30
-7.27924e-30
-7.89001e-30
-8.376e-30
-8.82658e-30
-9.41539e-30
-1.04081e-29
-1.21499e-29
-1.50256e-29
-1.93871e-29
-2.54522e-29
-3.31881e-29
-4.21993e-29
-5.1652e-29
-6.02679e-29
-6.64472e-29
-6.86561e-29
-6.643e-29
-6.2702e-29
-6.80365e-29
-1.04752e-28
-2.04943e-28
-4.01301e-28
-7.16636e-28
-1.10526e-27
-1.44844e-27
-1.57082e-27
-9.48125e-28
8.20593e-28
4.03033e-31
3.17533e-31
8.40948e-32
-2.88337e-31
-7.89118e-31
-1.40137e-30
-2.10154e-30
-2.85902e-30
-3.63654e-30
-4.39202e-30
-5.0829e-30
-5.67395e-30
-6.14906e-30
-6.52657e-30
-6.87623e-30
-7.33363e-30
-8.10614e-30
-9.46331e-30
-1.17054e-29
-1.51067e-29
-1.98369e-29
-2.58698e-29
-3.28962e-29
-4.02646e-29
-4.69765e-29
-5.17812e-29
-5.34749e-29
-5.1682e-29
-4.86897e-29
-5.28357e-29
-8.18526e-29
-1.61193e-28
-3.16425e-28
-5.65726e-28
-8.72061e-28
-1.13816e-27
-1.22663e-27
-7.14421e-28
6.6773e-28
2.8921e-31
2.27159e-31
5.99528e-32
-2.06661e-31
-5.65089e-31
-1.00326e-30
-1.50432e-30
-2.04635e-30
-2.60267e-30
-3.14311e-30
-3.63718e-30
-4.05961e-30
-4.39884e-30
-4.66798e-30
-4.91702e-30
-5.24313e-30
-5.79493e-30
-6.76559e-30
-8.37018e-30
-1.08052e-29
-1.41919e-29
-1.85111e-29
-2.3541e-29
-2.88144e-29
-3.36152e-29
-3.70457e-29
-3.82382e-29
-3.6912e-29
-3.4697e-29
-3.76181e-29
-5.85844e-29
-1.16099e-28
-2.28474e-28
-4.0903e-28
-6.30436e-28
-8.19948e-28
-8.79794e-28
-4.98456e-28
4.91572e-28
1.74336e-31
1.36466e-31
3.59266e-32
-1.24319e-31
-3.39714e-31
-6.03009e-31
-9.04072e-31
-1.22973e-30
-1.56394e-30
-1.88856e-30
-2.18522e-30
-2.43871e-30
-2.64205e-30
-2.80312e-30
-2.95199e-30
-3.14713e-30
-3.47798e-30
-4.06079e-30
-5.02496e-30
-6.48865e-30
-8.52474e-30
-1.11215e-29
-1.41453e-29
-1.73149e-29
-2.0199e-29
-2.22566e-29
-2.2962e-29
-2.21374e-29
-2.07536e-29
-2.24555e-29
-3.51202e-29
-7.00287e-29
-1.38169e-28
-2.47756e-28
-3.81999e-28
-4.95417e-28
-5.30259e-28
-2.94558e-28
3.00509e-28
5.84474e-32
4.56369e-32
1.2062e-32
-4.14371e-32
-1.13339e-31
-2.01225e-31
-3.01715e-31
-4.10412e-31
-5.21953e-31
-6.30273e-31
-7.29228e-31
-8.13722e-31
-8.81402e-31
-9.34885e-31
-9.84202e-31
-1.04889e-30
-1.15886e-30
-1.35299e-30
-1.67456e-30
-2.16311e-30
-2.84303e-30
-3.71042e-30
-4.72061e-30
-5.77954e-30
-6.74298e-30
-7.42949e-30
-7.66156e-30
-7.37528e-30
-6.88787e-30
-7.41933e-30
-1.16379e-29
-2.33679e-29
-4.62673e-29
-8.31912e-29
-1.28452e-28
-1.6626e-28
-1.78033e-28
-9.77823e-29
1.00999e-28
-1.11529e-20
-5.98024e-21
-3.69226e-21
-1.36516e-21
-1.59513e-21
-6.16726e-22
-3.22101e-22
-1.70454e-22
-1.06008e-22
-8.5816e-23
-3.28582e-23
-1.67165e-23
-9.40657e-24
-6.22496e-24
-4.22478e-24
-1.54167e-24
-6.88993e-25
-3.0246e-25
-1.01456e-25
2.7762e-26
1.33417e-25
1.70548e-25
1.83281e-25
1.86238e-25
1.84657e-25
)
;

boundaryField
{
    fixedWallsLeftTop
    {
        type            zeroGradient;
    }
    backFaceLeftTop
    {
        type            zeroGradient;
    }
    frontFaceLeftTop
    {
        type            zeroGradient;
    }
    symmetryWallLeftTop
    {
        type            fixedValue;
        value           uniform 0;
    }
    topToBottom
    {
        type            zeroGradient;
    }
    plug
    {
        type            cyclicAMI;
        value           nonuniform List<scalar> 
40
(
7.57697e-26
7.59837e-26
7.631e-26
7.66919e-26
8.56092e-26
7.7755e-26
7.76359e-26
7.75681e-26
7.81385e-26
7.81883e-26
7.82444e-26
7.84164e-26
7.86451e-26
8.69114e-26
7.84999e-26
7.82391e-26
7.70483e-26
7.69612e-26
7.68835e-26
7.68152e-26
7.68651e-26
7.69736e-26
8.4716e-26
7.58895e-26
7.12784e-26
7.09787e-26
7.08012e-26
7.06378e-26
7.04886e-26
7.0459e-26
7.04939e-26
7.76773e-26
5.29297e-26
5.25824e-26
5.23104e-26
5.21656e-26
5.20566e-26
5.19822e-26
5.19934e-26
5.20722e-26
)
;
    }
    fixedWallsChannel
    {
        type            zeroGradient;
    }
    inlet
    {
        type            zeroGradient;
    }
    outlet
    {
        type            cyclicAMI;
        value           nonuniform List<scalar> 5(7.81942e-26 7.96822e-26 7.80207e-26 7.1822e-26 5.22616e-26);
    }
    backFaceInletChannel
    {
        type            zeroGradient;
    }
    frontFaceInletChannel
    {
        type            zeroGradient;
    }
}


// ************************************************************************* //
