/*--------------------------------*- C++ -*----------------------------------*\
| =========                 |                                                 |
| \\      /  F ield         | OpenFOAM: The Open Source CFD Toolbox           |
|  \\    /   O peration     | Version:  4.1                                   |
|   \\  /    A nd           | Web:      www.OpenFOAM.org                      |
|    \\/     M anipulation  |                                                 |
\*---------------------------------------------------------------------------*/
FoamFile
{
    version     2.0;
    format      ascii;
    class       surfaceScalarField;
    location    "5";
    object      phi;
}
// * * * * * * * * * * * * * * * * * * * * * * * * * * * * * * * * * * * * * //

dimensions      [0 3 -1 0 0 0 0];

internalField   nonuniform List<scalar> 
3240
(
-7.23503e-25
-7.34358e-25
1.08592e-26
-7.34353e-25
-7.34353e-25
-7.34363e-25
-7.51376e-25
1.70261e-26
-7.51359e-25
-7.51359e-25
-7.51374e-25
-7.76172e-25
2.48205e-26
-7.76143e-25
-7.76163e-25
-8.26496e-25
5.03646e-26
-8.26453e-25
-8.26453e-25
-8.26478e-25
-8.9169e-25
6.52541e-26
-8.91632e-25
-8.91664e-25
-9.91031e-25
9.94203e-26
-9.90955e-25
-9.90955e-25
-9.90994e-25
-1.12071e-24
1.29778e-25
-1.12061e-24
-1.12061e-24
-1.12066e-24
-1.29325e-24
1.72669e-25
-1.29313e-24
-1.29319e-24
-1.53203e-24
2.3893e-25
-1.53189e-24
-1.53189e-24
-1.53195e-24
-1.85156e-24
3.19716e-25
-1.85139e-24
-1.85147e-24
-2.28321e-24
4.31865e-25
-2.28302e-24
-2.28302e-24
-2.16699e-24
-2.05111e-24
-1.93574e-24
-1.7634e-24
-1.26974e-24
-4.2536e-25
-1.10914e-24
-9.91131e-25
-8.73835e-25
-7.86445e-25
-6.99096e-25
-6.1292e-25
-5.26561e-25
-3.85473e-25
-1.00967e-26
-3.59095e-25
1.22577e-25
2.1091e-25
2.68965e-25
3.2805e-25
3.87282e-25
4.46011e-25
5.05478e-25
6.1686e-25
9.46282e-25
-3.62688e-25
1.05328e-24
1.04886e-24
1.04462e-24
1.04156e-24
1.03911e-24
1.03659e-24
1.0351e-24
1.08107e-24
1.34252e-24
-3.90702e-25
1.13039e-24
8.76956e-25
6.23677e-25
3.7149e-25
1.19603e-25
-1.32648e-25
-3.85189e-25
-6.18419e-25
-5.53593e-25
-6.5605e-26
-4.84959e-25
-6.84154e-26
-4.84874e-25
-4.22585e-25
-6.22276e-26
-4.22516e-25
-3.60376e-25
-6.21189e-26
-3.21364e-25
-3.88899e-26
-3.2132e-25
-2.78505e-25
-4.27998e-26
-2.54718e-25
-2.37026e-26
-2.54686e-25
-2.26342e-25
-2.83193e-26
-2.26313e-25
-1.94949e-25
-3.13559e-26
-1.76325e-25
-1.85706e-26
-1.76298e-25
-1.54729e-25
-2.15552e-26
-1.54702e-25
-1.32658e-25
-2.20389e-26
-1.1703e-25
-1.55867e-26
-1.17e-25
-1.01011e-25
-1.59862e-26
-8.87814e-26
-1.21892e-26
-8.8747e-26
-7.60854e-26
-1.26571e-26
-7.60485e-26
-6.5276e-26
-1.07707e-26
-5.51087e-26
-1.01251e-26
-5.50671e-26
-4.54533e-26
-9.61177e-27
-4.54095e-26
-3.80789e-26
-7.32969e-27
-2.97378e-26
-8.29525e-27
-2.96907e-26
-2.25245e-26
-7.16568e-27
-1.49977e-26
-7.4792e-27
-1.49487e-26
-7.17783e-27
-7.77031e-27
-7.12838e-27
-7.12816e-27
6.75519e-30
-6.75519e-30
1.39471e-29
-6.98026e-30
2.16411e-29
-7.49108e-30
3.01333e-29
-8.30125e-30
3.97377e-29
-9.43482e-30
5.08112e-29
-1.09342e-29
6.37681e-29
-1.28561e-29
7.90964e-29
-1.52737e-29
9.7377e-29
-1.82792e-29
1.19307e-28
-2.19882e-29
1.45729e-28
-2.65446e-29
1.77665e-28
-3.2127e-29
2.16364e-28
-3.89554e-29
2.63351e-28
-4.73006e-29
3.20492e-28
-5.74931e-29
3.90069e-28
-6.99335e-29
4.74864e-28
-8.51042e-29
5.7825e-28
-1.03582e-28
7.04296e-28
-1.26051e-28
8.57881e-28
-1.53325e-28
1.04482e-27
-1.86365e-28
1.27201e-27
-2.26319e-28
1.54764e-27
-2.74558e-28
1.88139e-27
-3.32731e-28
2.28478e-27
-4.02818e-28
2.77153e-27
-4.87146e-28
3.35796e-27
-5.8833e-28
4.06312e-27
-7.09015e-28
4.90852e-27
-8.51263e-28
5.91645e-27
-1.01524e-27
7.1057e-27
-1.19661e-27
8.48232e-27
-1.3817e-27
1.00214e-26
-1.53882e-27
1.16342e-26
-1.60416e-27
1.31159e-26
-1.46229e-27
1.40757e-26
-9.29242e-28
1.389e-26
2.25927e-28
1.17906e-26
2.14579e-27
4.7108e-27
6.74843e-30
-1.32932e-29
1.39316e-29
-1.37686e-29
2.16162e-29
-1.48164e-29
3.00983e-29
-1.64655e-29
3.9691e-29
-1.87683e-29
5.0751e-29
-2.18094e-29
6.36921e-29
-2.57017e-29
7.90018e-29
-3.05906e-29
9.72603e-29
-3.66592e-29
1.19164e-28
-4.41363e-29
1.45553e-28
-5.33052e-29
1.7745e-28
-6.45157e-29
2.16101e-28
-7.81975e-29
2.63029e-28
-9.48777e-29
3.20099e-28
-1.15201e-28
3.8959e-28
-1.39953e-28
4.74279e-28
-1.70088e-28
5.77538e-28
-2.06764e-28
7.03432e-28
-2.51378e-28
8.56835e-28
-3.05613e-28
1.04356e-27
-3.71489e-28
1.27049e-27
-4.51427e-28
1.54581e-27
-5.4831e-28
1.87919e-27
-6.65551e-28
2.28214e-27
-8.07136e-28
2.76837e-27
-9.77587e-28
3.3542e-27
-1.18178e-27
4.05873e-27
-1.42442e-27
4.90353e-27
-1.70887e-27
5.91108e-27
-2.03467e-27
7.10055e-27
-2.39272e-27
8.47872e-27
-2.75596e-27
1.00219e-26
-3.06244e-27
1.16435e-26
-3.18708e-27
1.31413e-26
-2.90161e-27
1.41263e-26
-1.83917e-27
1.39711e-26
4.67309e-28
1.18968e-26
4.3133e-27
8.91734e-27
6.72942e-30
-1.98197e-29
1.38896e-29
-2.05531e-29
2.15503e-29
-2.21385e-29
3.00062e-29
-2.46218e-29
3.95694e-29
-2.8087e-29
5.05953e-29
-3.26609e-29
6.34966e-29
-3.85125e-29
7.87591e-29
-4.58592e-29
9.69612e-29
-5.49752e-29
1.18797e-28
-6.62019e-29
1.45105e-28
-7.99621e-29
1.76903e-28
-9.67768e-29
2.15434e-28
-1.17285e-28
2.62216e-28
-1.42272e-28
3.19109e-28
-1.72696e-28
3.88384e-28
-2.09728e-28
4.72812e-28
-2.54796e-28
5.75753e-28
-3.09636e-28
7.01262e-28
-3.76354e-28
8.542e-28
-4.57499e-28
1.04036e-27
-5.56138e-28
1.26662e-27
-6.75953e-28
1.54112e-27
-8.21324e-28
1.87352e-27
-9.97413e-28
2.27532e-27
-1.2102e-27
2.76021e-27
-1.46642e-27
3.3445e-27
-1.77325e-27
4.04735e-27
-2.13755e-27
4.8905e-27
-2.56411e-27
5.89676e-27
-3.05217e-27
7.08603e-27
-3.58827e-27
8.46646e-27
-4.1327e-27
1.00169e-26
-4.59438e-27
1.16549e-26
-4.78852e-27
1.31838e-26
-4.37529e-27
1.42185e-26
-2.80326e-27
1.41249e-26
6.41667e-28
1.20809e-26
6.44489e-27
1.35945e-26
6.70009e-30
-2.63236e-29
1.38262e-29
-2.73187e-29
2.14509e-29
-2.94398e-29
2.98676e-29
-3.27523e-29
3.93864e-29
-3.73722e-29
5.03612e-29
-4.34688e-29
6.32027e-29
-5.12671e-29
7.83944e-29
-6.10564e-29
9.65121e-29
-7.3201e-29
1.18246e-28
-8.81552e-29
1.44432e-28
-1.06481e-28
1.76083e-28
-1.28869e-28
2.14434e-28
-1.56169e-28
2.60999e-28
-1.89422e-28
3.17627e-28
-2.29901e-28
3.86581e-28
-2.79161e-28
4.70619e-28
-3.39102e-28
5.73085e-28
-4.12037e-28
6.98017e-28
-5.00779e-28
8.50254e-28
-6.08732e-28
1.03557e-27
-7.40006e-28
1.2608e-27
-8.99529e-28
1.53408e-27
-1.09317e-27
1.86501e-27
-1.32782e-27
2.26507e-27
-1.61146e-27
2.74793e-27
-1.95304e-27
3.32993e-27
-2.36209e-27
4.03029e-27
-2.84771e-27
4.87098e-27
-3.41633e-27
5.87531e-27
-4.0672e-27
7.06425e-27
-4.78314e-27
8.448e-27
-5.51279e-27
1.00092e-26
-6.13769e-27
1.16715e-26
-6.41575e-27
1.32467e-26
-5.89778e-27
1.43563e-26
-3.84573e-27
1.4357e-26
7.172e-28
1.23669e-26
8.51795e-27
1.88662e-26
6.66029e-30
-3.27933e-29
1.37414e-29
-3.40507e-29
2.13184e-29
-3.67042e-29
2.96828e-29
-4.08399e-29
3.91426e-29
-4.6606e-29
5.00493e-29
-5.4214e-29
6.28111e-29
-6.39447e-29
7.79086e-29
-7.61588e-29
9.59139e-29
-9.13105e-29
1.17513e-28
-1.09966e-28
1.43537e-28
-1.32825e-28
1.74991e-28
-1.6075e-28
2.13104e-28
-1.94797e-28
2.5938e-28
-2.36264e-28
3.15657e-28
-2.86735e-28
3.84184e-28
-3.48152e-28
4.67701e-28
-4.22881e-28
5.69535e-28
-5.1381e-28
6.93699e-28
-6.24452e-28
8.45003e-28
-7.59066e-28
1.02919e-27
-9.2279e-28
1.25306e-27
-1.12179e-27
1.52469e-27
-1.36341e-27
1.85367e-27
-1.65627e-27
2.25141e-27
-2.01035e-27
2.73157e-27
-2.43683e-27
3.3105e-27
-2.94762e-27
4.00755e-27
-3.55419e-27
4.84495e-27
-4.26483e-27
5.84668e-27
-5.07919e-27
7.03506e-27
-5.9771e-27
8.423e-27
-6.89697e-27
9.99804e-27
-7.69521e-27
1.16922e-26
-8.07578e-27
1.33287e-26
-7.4834e-27
1.45388e-26
-4.99136e-27
1.46691e-26
6.59451e-28
1.27808e-26
1.04852e-26
2.34175e-26
6.61001e-30
-3.92176e-29
1.36352e-29
-4.07356e-29
2.1153e-29
-4.39172e-29
2.94521e-29
-4.88692e-29
3.88383e-29
-5.57718e-29
4.96601e-29
-6.48783e-29
6.23225e-29
-7.6525e-29
7.73026e-29
-9.11434e-29
9.51677e-29
-1.09277e-28
1.16599e-28
-1.31603e-28
1.4242e-28
-1.58959e-28
1.73629e-28
-1.92375e-28
2.11445e-28
-2.33116e-28
2.57361e-28
-2.82731e-28
3.132e-28
-3.43119e-28
3.81195e-28
-4.16599e-28
4.64064e-28
-5.06006e-28
5.65109e-28
-6.14797e-28
6.88314e-28
-7.4718e-28
8.38454e-28
-9.08259e-28
1.02123e-27
-1.1042e-27
1.24339e-27
-1.34239e-27
1.51298e-27
-1.63164e-27
1.8395e-27
-1.98229e-27
2.23435e-27
-2.40631e-27
2.71114e-27
-2.91714e-27
3.28624e-27
-3.52914e-27
3.97912e-27
-4.25624e-27
4.81237e-27
-5.10883e-27
5.81076e-27
-6.08744e-27
6.99827e-27
-7.16983e-27
8.39107e-27
-8.28579e-27
9.98282e-27
-9.2695e-27
1.17159e-26
-9.77531e-27
1.34284e-26
-9.14632e-27
1.47649e-26
-6.2656e-27
1.50621e-26
4.31314e-28
1.32981e-26
1.23246e-26
2.94462e-26
6.54931e-30
-4.55853e-29
1.3508e-29
-4.73612e-29
2.09549e-29
-5.10655e-29
2.9176e-29
-5.6826e-29
3.8474e-29
-6.48538e-29
4.91942e-29
-7.54442e-29
6.17378e-29
-8.89881e-29
7.65772e-29
-1.05987e-28
9.42747e-29
-1.27074e-28
1.15505e-28
-1.53035e-28
1.41083e-28
-1.84844e-28
1.71999e-28
-2.23699e-28
2.09461e-28
-2.7107e-28
2.54946e-28
-3.28758e-28
3.10261e-28
-3.98969e-28
3.77618e-28
-4.84401e-28
4.59712e-28
-5.8835e-28
5.59814e-28
-7.1484e-28
6.81871e-28
-8.68768e-28
8.30617e-28
-1.05607e-27
1.0117e-27
-1.28394e-27
1.23182e-27
-1.56097e-27
1.49895e-27
-1.89743e-27
1.82254e-27
-2.30538e-27
2.21391e-27
-2.79877e-27
2.68666e-27
-3.39333e-27
3.25716e-27
-4.10591e-27
3.94502e-27
-4.95303e-27
4.77323e-27
-5.94747e-27
5.76747e-27
-7.09116e-27
6.95363e-27
-8.36082e-27
8.35173e-27
-9.67958e-27
9.96259e-27
-1.08628e-26
1.17411e-26
-1.15206e-26
1.35437e-26
-1.09004e-26
1.50327e-26
-7.69455e-27
1.55378e-26
-7.98996e-30
1.39829e-26
1.39516e-26
3.38705e-26
6.47829e-30
-5.18855e-29
1.33598e-29
-5.39158e-29
2.07245e-29
-5.81368e-29
2.88549e-29
-6.46967e-29
3.80504e-29
-7.38371e-29
4.86525e-29
-8.58947e-29
6.10578e-29
-1.01314e-28
7.57338e-29
-1.20668e-28
9.32362e-29
-1.44674e-28
1.14233e-28
-1.7423e-28
1.39529e-28
-2.10443e-28
1.70104e-28
-2.54676e-28
2.07153e-28
-3.08603e-28
2.52137e-28
-3.74274e-28
3.06844e-28
-4.54201e-28
3.7346e-28
-5.51454e-28
4.54653e-28
-6.69789e-28
5.53657e-28
-8.13787e-28
6.74379e-28
-9.89028e-28
8.21502e-28
-1.20228e-27
1.00062e-27
-1.46173e-27
1.21836e-27
-1.7772e-27
1.48263e-27
-2.16039e-27
1.80281e-27
-2.62506e-27
2.19013e-27
-3.18717e-27
2.65816e-27
-3.86473e-27
3.22327e-27
-4.67716e-27
3.90524e-27
-5.64372e-27
4.72748e-27
-6.77984e-27
5.71668e-27
-8.08946e-27
6.90088e-27
-9.54942e-27
8.3044e-27
-1.10784e-26
9.93628e-27
-1.24769e-26
1.17659e-26
-1.33172e-26
1.36719e-26
-1.27589e-26
1.53402e-26
-9.30477e-27
1.60962e-26
-7.01662e-28
1.47797e-26
1.53368e-26
3.85695e-26
6.3971e-30
-5.81077e-29
1.3191e-29
-6.03886e-29
2.04621e-29
-6.51194e-29
2.84893e-29
-7.24685e-29
3.75681e-29
-8.27074e-29
4.80357e-29
-9.62133e-29
6.02837e-29
-1.13485e-28
7.47735e-29
-1.35162e-28
9.2054e-29
-1.62051e-28
1.12784e-28
-1.95155e-28
1.37759e-28
-2.35715e-28
1.67947e-28
-2.85258e-28
2.04526e-28
-3.45658e-28
2.4894e-28
-4.19212e-28
3.02954e-28
-5.08731e-28
3.68727e-28
-6.17658e-28
4.48893e-28
-7.50197e-28
5.46647e-28
-9.11485e-28
6.65848e-28
-1.10777e-27
8.11124e-28
-1.34666e-27
9.87998e-28
-1.63731e-27
1.20304e-27
-1.99075e-27
1.46404e-27
-2.4201e-27
1.78032e-27
-2.94085e-27
2.16303e-27
-3.57094e-27
2.62566e-27
-4.33067e-27
3.18461e-27
-5.24212e-27
3.8598e-27
-6.32742e-27
4.6751e-27
-7.60496e-27
5.65828e-27
-9.08135e-27
6.83972e-27
-1.07348e-26
8.24846e-27
-1.2482e-26
9.90267e-27
-1.4113e-26
1.17882e-26
-1.51699e-26
1.38101e-26
-1.47342e-26
1.56843e-26
-1.11231e-26
1.67377e-26
-1.69646e-27
1.5709e-26
1.64308e-26
4.35449e-26
6.3059e-30
-6.42419e-29
1.30017e-29
-6.67689e-29
2.01681e-29
-7.2002e-29
2.80797e-29
-8.01291e-29
3.70278e-29
-9.14506e-29
4.73448e-29
-1.06384e-28
5.94166e-29
-1.25481e-28
7.36979e-29
-1.49448e-28
9.07298e-29
-1.79178e-28
1.11162e-28
-2.1578e-28
1.35778e-28
-2.60624e-28
1.65531e-28
-3.15401e-28
2.01584e-28
-3.8218e-28
2.45359e-28
-4.63503e-28
2.98597e-28
-5.62478e-28
3.63425e-28
-6.8291e-28
4.42441e-28
-8.29451e-28
5.38796e-28
-1.00778e-27
6.56293e-28
-1.22482e-27
7.99498e-28
-1.48897e-27
9.73861e-28
-1.81039e-27
1.18586e-27
-2.20128e-27
1.44321e-27
-2.67619e-27
1.75512e-27
-3.25228e-27
2.13264e-27
-3.9495e-27
2.5892e-27
-4.79048e-27
3.1412e-27
-5.8e-27
3.80869e-27
-7.00321e-27
4.61604e-27
-8.42181e-27
5.59214e-27
-1.00657e-26
6.76984e-27
-1.19159e-26
8.18322e-27
-1.38897e-26
9.8604e-27
-1.57718e-26
1.18056e-26
-1.70825e-26
1.39545e-26
-1.68375e-26
1.60614e-26
-1.31764e-26
1.74628e-26
-3.04334e-27
1.67935e-26
1.71618e-26
4.77072e-26
6.20484e-30
-7.0278e-29
1.27924e-29
-7.30468e-29
1.98431e-29
-7.8774e-29
2.76269e-29
-8.76664e-29
3.64305e-29
-1.00053e-28
4.65809e-29
-1.16391e-28
5.84579e-29
-1.37283e-28
7.25087e-29
-1.63504e-28
8.92658e-29
-1.96029e-28
1.09368e-28
-2.36071e-28
1.33587e-28
-2.85131e-28
1.6286e-28
-3.45057e-28
1.98331e-28
-4.18113e-28
2.414e-28
-5.07079e-28
2.93779e-28
-6.15357e-28
3.57564e-28
-7.4711e-28
4.35308e-28
-9.07429e-28
5.30114e-28
-1.10253e-27
6.45727e-28
-1.33999e-27
7.86641e-28
-1.62901e-27
9.58225e-28
-1.98072e-27
1.16687e-27
-2.40848e-27
1.42017e-27
-2.92825e-27
1.72723e-27
-3.55887e-27
2.099e-27
-4.32229e-27
2.54882e-27
-5.24349e-27
3.09307e-27
-6.34999e-27
3.75195e-27
-7.67015e-27
4.55028e-27
-9.22931e-27
5.51814e-27
-1.10414e-26
6.69089e-27
-1.30916e-26
8.10794e-27
-1.53005e-26
9.80798e-27
-1.74531e-26
1.18155e-26
-1.90575e-26
1.4101e-26
-1.90787e-26
1.64667e-26
-1.54911e-26
1.8271e-26
-4.79754e-27
1.80153e-26
1.74756e-26
5.35464e-26
6.09412e-30
-7.62066e-29
1.25633e-29
-7.92123e-29
1.94874e-29
-8.54246e-29
2.71314e-29
-9.50687e-29
3.5777e-29
-1.08501e-28
4.57452e-29
-1.26218e-28
5.74091e-29
-1.48874e-28
7.12077e-29
-1.77308e-28
8.76641e-29
-2.12577e-28
1.07405e-28
-2.55999e-28
1.3119e-28
-3.09199e-28
1.59938e-28
-3.74181e-28
1.94773e-28
-4.53401e-28
2.37069e-28
-5.49874e-28
2.88509e-28
-6.67289e-28
3.51151e-28
-8.1016e-28
4.27504e-28
-9.84011e-28
5.20616e-28
-1.19559e-27
6.34166e-28
-1.45311e-27
7.72573e-28
-1.76656e-27
9.41114e-28
-2.14802e-27
1.14608e-27
-2.61202e-27
1.39495e-27
-3.1759e-27
1.69669e-27
-3.86017e-27
2.06215e-27
-4.68875e-27
2.50456e-27
-5.68901e-27
3.04026e-27
-6.89129e-27
3.68958e-27
-8.32729e-27
4.4778e-27
-1.00263e-26
5.43613e-27
-1.20071e-26
6.60253e-27
-1.42603e-26
8.02183e-27
-1.6713e-26
9.7438e-27
-1.91559e-26
1.18146e-26
-2.10961e-26
1.42445e-26
-2.14656e-26
1.68945e-26
-1.80928e-26
1.91619e-26
-7.01972e-27
1.94581e-26
1.72339e-26
5.70222e-26
5.97393e-30
-8.20182e-29
1.23148e-29
-8.52558e-29
1.91016e-29
-9.19436e-29
2.65941e-29
-1.02324e-28
3.50683e-29
-1.16782e-28
4.4839e-29
-1.35851e-28
5.62717e-29
-1.60235e-28
6.9797e-29
-1.90838e-28
8.59272e-29
-2.28798e-28
1.05277e-28
-2.75532e-28
1.2859e-28
-3.3279e-28
1.56769e-28
-4.02728e-28
1.90914e-28
-4.87991e-28
2.32373e-28
-5.91822e-28
2.82794e-28
-7.18192e-28
3.44197e-28
-8.71963e-28
4.19041e-28
-1.05908e-27
5.10315e-28
-1.28681e-27
6.21628e-28
-1.56399e-27
7.57315e-28
-1.9014e-27
9.22554e-28
-2.31205e-27
1.12352e-27
-2.8116e-27
1.36757e-27
-3.41876e-27
1.66355e-27
-4.1557e-27
2.02214e-27
-5.04832e-27
2.45647e-27
-6.12638e-27
2.98282e-27
-7.42308e-27
3.62162e-27
-8.97364e-27
4.39857e-27
-1.08117e-26
5.346e-27
-1.29614e-26
6.50443e-27
-1.54205e-26
7.92412e-27
-1.81253e-26
9.6662e-27
-2.08785e-26
1.17998e-26
-2.31978e-26
1.43794e-26
-2.40037e-26
1.73374e-26
-2.10056e-26
2.01321e-26
-9.77429e-27
2.10496e-26
1.63675e-26
6.2473e-26
5.84447e-30
-8.77037e-29
1.20473e-29
-9.11679e-29
1.86864e-29
-9.83208e-29
2.60158e-29
-1.09422e-28
3.43056e-29
-1.24883e-28
4.38636e-29
-1.45275e-28
5.50476e-29
-1.7135e-28
6.82786e-29
-2.04075e-28
8.40579e-29
-2.44666e-28
1.02987e-28
-2.9464e-28
1.25793e-28
-3.55868e-28
1.53358e-28
-4.30654e-28
1.86761e-28
-5.21828e-28
2.27318e-28
-6.32858e-28
2.76643e-28
-7.6799e-28
3.36712e-28
-9.32423e-28
4.09932e-28
-1.13252e-27
4.99227e-28
-1.37605e-27
6.08131e-28
-1.67248e-27
7.40889e-28
-2.03333e-27
9.02573e-28
-2.47255e-27
1.09923e-27
-3.0069e-27
1.3381e-27
-3.65646e-27
1.62784e-27
-4.44501e-27
1.97902e-27
-5.40045e-27
2.4046e-27
-6.55492e-27
2.9208e-27
-7.94456e-27
3.5481e-27
-9.60823e-27
4.31258e-27
-1.15842e-26
5.24764e-27
-1.39028e-26
6.39623e-27
-1.65702e-26
7.814e-27
-1.95351e-26
9.57343e-27
-2.26181e-26
1.17676e-26
-2.53604e-26
1.44994e-26
-2.66956e-26
1.77867e-26
-2.42509e-26
2.11777e-26
-1.31308e-26
2.28937e-26
1.46996e-26
6.33048e-26
5.70594e-30
-9.32543e-29
1.17612e-29
-9.69395e-29
1.82423e-29
-1.04546e-28
2.53973e-29
-1.16352e-28
3.34899e-29
-1.32792e-28
4.28206e-29
-1.54474e-28
5.37386e-29
-1.822e-28
6.66549e-29
-2.16997e-28
8.20589e-29
-2.60158e-28
1.00538e-28
-3.13294e-28
1.22801e-28
-3.78397e-28
1.49711e-28
-4.57917e-28
1.82319e-28
-5.54862e-28
2.21912e-28
-6.72919e-28
2.70066e-28
-8.16604e-28
3.28708e-28
-9.91447e-28
4.00191e-28
-1.20421e-27
4.8737e-28
-1.46317e-27
5.93697e-28
-1.7784e-27
7.2332e-28
-2.16215e-27
8.81198e-28
-2.62927e-27
1.07325e-27
-3.19763e-27
1.30655e-27
-3.88863e-27
1.58963e-27
-4.72767e-27
1.93284e-27
-5.7446e-27
2.34901e-27
-6.97397e-27
2.85425e-27
-8.4549e-27
3.46906e-27
-1.023e-26
4.21984e-27
-1.23426e-26
5.14094e-27
-1.48297e-26
6.27763e-27
-1.77074e-26
7.69068e-27
-2.09397e-26
9.46374e-27
-2.4371e-26
1.17142e-26
-2.75798e-26
1.45972e-26
-2.95405e-26
1.82315e-26
-2.78466e-26
2.22909e-26
-1.71614e-26
2.48378e-26
1.21982e-26
6.65451e-26
5.55857e-30
-9.86613e-29
1.14569e-29
-1.02562e-28
1.77701e-29
-1.10611e-28
2.47397e-29
-1.23102e-28
3.26226e-29
-1.40496e-28
4.17116e-29
-1.63436e-28
5.23467e-29
-1.9277e-28
6.49284e-29
-2.29584e-28
7.99335e-29
-2.75248e-28
9.79338e-29
-3.31465e-28
1.19621e-28
-4.00343e-28
1.45833e-28
-4.84474e-28
1.77597e-28
-5.8704e-28
2.16165e-28
-7.11943e-28
2.63072e-28
-8.6396e-28
3.20198e-28
-1.04894e-27
3.89832e-28
-1.27406e-27
4.74761e-28
-1.54804e-27
5.78347e-28
-1.88158e-27
7.04635e-28
-2.28765e-27
8.58464e-28
-2.78196e-27
1.04561e-27
-3.38348e-27
1.27299e-27
-4.1149e-27
1.54895e-27
-5.00322e-27
1.88366e-27
-6.08022e-27
2.28978e-27
-7.38287e-27
2.78325e-27
-8.95329e-27
3.38456e-27
-1.0838e-26
4.12035e-27
-1.30856e-26
5.02583e-27
-1.57405e-26
6.14835e-27
-1.88299e-26
7.55343e-27
-2.23357e-26
9.3354e-27
-2.61326e-26
1.16358e-26
-2.98497e-26
1.46649e-26
-3.25336e-26
1.86589e-26
-3.18055e-26
2.34653e-26
-2.19451e-26
2.70116e-26
8.69571e-27
7.4923e-26
5.4026e-30
-1.03916e-28
1.1135e-29
-1.08026e-28
1.72705e-29
-1.16505e-28
2.40439e-29
-1.29662e-28
3.1705e-29
-1.47983e-28
4.05382e-29
-1.72145e-28
5.08741e-29
-2.03042e-28
6.31019e-29
-2.41817e-28
7.76847e-29
-2.89914e-28
9.51786e-29
-3.49126e-28
1.16255e-28
-4.21672e-28
1.41731e-28
-5.10284e-28
1.72601e-28
-6.18314e-28
2.10084e-28
-7.4987e-28
2.55673e-28
-9.09986e-28
3.11193e-28
-1.10483e-27
3.78873e-28
-1.34194e-27
4.61419e-28
-1.63054e-27
5.62104e-28
-1.98188e-27
6.84863e-28
-2.40964e-27
8.34403e-28
-2.93041e-27
1.01635e-27
-3.56418e-27
1.23746e-27
-4.33494e-27
1.50587e-27
-5.27124e-27
1.83156e-27
-6.4068e-27
2.22696e-27
-7.78096e-27
2.70786e-27
-9.43891e-27
3.29465e-27
-1.14312e-26
4.01416e-27
-1.38119e-26
4.90226e-27
-1.66333e-26
6.00812e-27
-1.99351e-26
7.40155e-27
-2.37195e-26
9.18672e-27
-2.78972e-26
1.15284e-26
-3.21616e-26
1.46941e-26
-3.56654e-26
1.90534e-26
-3.61334e-26
2.46909e-26
-2.75661e-26
2.96604e-26
3.76924e-27
7.31511e-26
5.23827e-30
-1.09011e-28
1.07958e-29
-1.13323e-28
1.67442e-29
-1.22219e-28
2.33111e-29
-1.36022e-28
3.07385e-29
-1.55242e-28
3.93024e-29
-1.8059e-28
4.93231e-29
-2.13001e-28
6.1178e-29
-2.53678e-28
7.53163e-29
-3.04133e-28
9.22768e-29
-3.66248e-28
1.12711e-28
-4.42352e-28
1.3741e-28
-5.35308e-28
1.67339e-28
-6.48635e-28
2.0368e-28
-7.86641e-28
2.47879e-28
-9.54609e-28
3.01709e-28
-1.15901e-27
3.67329e-28
-1.40775e-27
4.47365e-28
-1.71052e-27
5.44994e-28
-2.07912e-27
6.64032e-28
-2.52793e-27
8.09052e-28
-3.07436e-27
9.85523e-28
-3.73943e-27
1.20001e-27
-4.54839e-27
1.46045e-27
-5.5313e-27
1.77659e-27
-6.72379e-27
2.16064e-27
-8.1676e-27
2.62816e-27
-9.91097e-27
3.19943e-27
-1.20086e-26
3.9013e-27
-1.45201e-26
4.77019e-27
-1.75064e-26
5.85674e-27
-2.10204e-26
7.23444e-27
-2.5087e-26
9.01614e-27
-2.96582e-26
1.13883e-26
-3.45048e-26
1.46754e-26
-3.8921e-26
1.93961e-26
-4.08265e-26
2.59443e-26
-3.4104e-26
3.24354e-26
-2.67837e-27
7.71655e-26
5.06584e-30
-1.13938e-28
1.044e-29
-1.18446e-28
1.61921e-29
-1.27745e-28
2.25423e-29
-1.42172e-28
2.97246e-29
-1.62262e-28
3.80059e-29
-1.88755e-28
4.7696e-29
-2.22632e-28
5.91598e-29
-2.65148e-28
7.28316e-29
-3.17883e-28
8.92326e-29
-3.82806e-28
1.08992e-28
-4.62349e-28
1.32877e-28
-5.59507e-28
1.61818e-28
-6.77956e-28
1.96961e-28
-8.222e-28
2.39703e-28
-9.97762e-28
2.91759e-28
-1.2114e-27
3.55218e-28
-1.4714e-27
4.32621e-28
-1.78787e-27
5.27042e-28
-2.17318e-27
6.42175e-28
-2.64234e-27
7.82449e-28
-3.2136e-27
9.53165e-28
-3.90898e-27
1.16069e-27
-4.75491e-27
1.41275e-27
-5.783e-27
1.71884e-27
-7.03071e-27
2.09091e-27
-8.54215e-27
2.54426e-27
-1.03687e-26
3.09897e-27
-1.2569e-26
3.78185e-27
-1.52089e-26
4.62962e-27
-1.83578e-26
5.69408e-27
-2.20831e-26
7.05159e-27
-2.6434e-26
8.82228e-27
-3.14081e-26
1.12117e-26
-3.6866e-26
1.45992e-26
-4.22795e-26
1.96651e-26
-4.58686e-26
2.72014e-26
-4.16362e-26
3.56289e-26
-1.10602e-26
8.89623e-26
4.88558e-30
-1.18689e-28
1.0068e-29
-1.23386e-28
1.5615e-29
-1.33073e-28
2.17387e-29
-1.48103e-28
2.86649e-29
-1.69031e-28
3.66508e-29
-1.9663e-28
4.59954e-29
-2.3192e-28
5.70504e-29
-2.76209e-28
7.02347e-29
-3.31143e-28
8.60509e-29
-3.98773e-28
1.05106e-28
-4.81634e-28
1.28139e-28
-5.82844e-28
1.56049e-28
-7.06232e-28
1.89938e-28
-8.56492e-28
2.31158e-28
-1.03938e-27
2.81359e-28
-1.26193e-27
3.42559e-28
-1.53278e-27
4.17209e-28
-1.86248e-27
5.08275e-28
-2.26389e-27
6.19324e-28
-2.75269e-27
7.54634e-28
-3.34792e-27
9.19328e-28
-4.07254e-27
1.11957e-27
-4.95419e-27
1.36284e-27
-6.02592e-27
1.65838e-27
-7.32705e-27
2.01785e-27
-8.904e-27
2.45625e-27
-1.08112e-26
2.99337e-27
-1.31116e-26
3.65589e-27
-1.58768e-26
4.48061e-27
-1.91857e-26
5.52004e-27
-2.31202e-26
6.85263e-27
-2.77556e-26
8.60397e-27
-3.31386e-26
1.09951e-26
-3.923e-26
1.44556e-26
-4.57136e-26
1.98344e-26
-5.12274e-26
2.84244e-26
-5.02282e-26
3.96291e-26
-2.2215e-26
8.56455e-26
4.69777e-30
-1.23257e-28
9.68052e-30
-1.28136e-28
1.50138e-29
-1.38197e-28
2.09015e-29
-1.53806e-28
2.75609e-29
-1.7554e-28
3.52392e-29
-2.04202e-28
4.42238e-29
-2.4085e-28
5.4853e-29
-2.86844e-28
6.75295e-29
-3.43893e-28
8.27364e-29
-4.14126e-28
1.01058e-28
-5.00176e-28
1.23203e-28
-6.05282e-28
1.50038e-28
-7.3342e-28
1.82623e-28
-8.89464e-28
2.22255e-28
-1.07939e-27
2.70525e-28
-1.31052e-27
3.29371e-28
-1.5918e-27
4.01153e-28
-1.93421e-27
4.88723e-28
-2.35111e-27
5.95515e-28
-2.85881e-27
7.25649e-28
-3.47709e-27
8.84062e-28
-4.22986e-27
1.0767e-27
-5.1459e-27
1.31079e-27
-6.25969e-27
1.5953e-27
-7.61232e-27
1.94156e-27
-9.25253e-27
2.36423e-27
-1.12378e-26
2.88276e-27
-1.36352e-26
3.52354e-27
-1.65226e-26
4.32324e-27
-1.99881e-26
5.33463e-27
-2.41288e-26
6.63731e-27
-2.9047e-26
8.36032e-27
-3.48409e-26
1.07358e-26
-4.15794e-26
1.42351e-26
-4.91893e-26
1.98744e-26
-5.68505e-26
2.95451e-26
-5.99068e-26
4.39432e-26
-3.65569e-26
9.05175e-26
4.50269e-30
-1.27636e-28
9.27808e-30
-1.32688e-28
1.43894e-29
-1.43107e-28
2.00322e-29
-1.59272e-28
2.64144e-29
-1.81778e-28
3.37733e-29
-2.11459e-28
4.23841e-29
-2.49409e-28
5.25711e-29
-2.97037e-28
6.47201e-29
-3.56112e-28
7.92944e-29
-4.28841e-28
9.68535e-29
-5.17948e-28
1.18078e-28
-6.26787e-28
1.43796e-28
-7.59477e-28
1.75026e-28
-9.21065e-28
2.1301e-28
-1.11774e-27
2.59273e-28
-1.35708e-27
3.15675e-28
-1.64837e-27
3.84476e-28
-2.00296e-27
4.68415e-28
-2.43472e-27
5.70784e-28
-2.96054e-27
6.95538e-28
-3.60093e-27
8.4742e-28
-4.3807e-27
1.03215e-27
-5.32975e-27
1.25669e-27
-6.48392e-27
1.5297e-27
-7.88606e-27
1.86215e-27
-9.58715e-27
2.26833e-27
-1.16477e-26
2.76727e-27
-1.4139e-26
3.38492e-27
-1.71449e-26
4.15761e-27
-2.07629e-26
5.1379e-27
-2.51058e-26
6.40555e-27
-3.0303e-26
8.09078e-27
-3.65055e-26
1.04314e-26
-4.38951e-26
1.39287e-26
-5.26658e-26
1.97523e-26
-6.26614e-26
3.04793e-26
-7.06472e-26
4.90252e-26
-5.50369e-26
7.72212e-26
4.30065e-30
-1.31817e-28
8.86131e-30
-1.37035e-28
1.37428e-29
-1.47797e-28
1.91319e-29
-1.64492e-28
2.52272e-29
-1.87736e-28
3.22553e-29
-2.18389e-28
4.0479e-29
-2.57583e-28
5.0208e-29
-3.06772e-28
6.1811e-29
-3.67783e-28
7.57301e-29
-4.42894e-28
9.24999e-29
-5.34921e-28
1.1277e-28
-6.47326e-28
1.37333e-28
-7.84363e-28
1.67159e-28
-9.51247e-28
2.03437e-28
-1.15437e-27
2.47622e-28
-1.40156e-27
3.01491e-28
-1.7024e-27
3.67206e-28
-2.06863e-27
4.47382e-28
-2.51458e-27
5.45168e-28
-3.05771e-27
6.64347e-28
-3.71923e-27
8.09458e-28
-4.52482e-27
9.85979e-28
-5.50543e-27
1.2006e-27
-6.69825e-27
1.46165e-27
-8.14781e-27
1.77973e-27
-9.90729e-27
2.16868e-27
-1.20401e-26
2.64703e-27
-1.46218e-26
3.24019e-27
-1.77422e-26
3.98389e-27
-2.15084e-26
4.93001e-27
-2.60483e-26
6.15745e-27
-3.15187e-26
7.79519e-27
-3.81229e-26
1.00806e-26
-4.61568e-26
1.35289e-26
-5.60963e-26
1.94329e-26
-6.85563e-26
3.11039e-26
-8.2337e-26
5.43146e-26
-7.81687e-26
6.90585e-26
4.09197e-30
-1.35795e-28
8.43085e-30
-1.41172e-28
1.3075e-29
-1.52259e-28
1.82021e-29
-1.69458e-28
2.40011e-29
-1.93405e-28
3.06875e-29
-2.24983e-28
3.85115e-29
-2.65361e-28
4.77676e-29
-3.16034e-28
5.88065e-29
-3.78887e-28
7.2049e-29
-4.56265e-28
8.80037e-29
-5.51069e-28
1.07288e-28
-6.66867e-28
1.30657e-28
-8.08041e-28
1.59034e-28
-9.79962e-28
1.93549e-28
-1.18922e-27
2.35588e-28
-1.44387e-27
2.86842e-28
-1.75381e-27
3.49368e-28
-2.13111e-27
4.25657e-28
-2.59057e-27
5.18707e-28
-3.15017e-27
6.32123e-28
-3.83181e-27
7.70233e-28
-4.66198e-27
9.38266e-28
-5.67266e-27
1.14262e-27
-6.90233e-27
1.39127e-27
-8.39712e-27
1.69442e-27
-1.02124e-26
2.06541e-27
-1.24144e-26
2.52221e-27
-1.50827e-26
3.08955e-27
-1.83133e-26
3.80229e-27
-2.22224e-26
4.71119e-27
-2.69532e-26
5.89328e-27
-3.26889e-26
7.47384e-27
-3.96835e-26
9.68297e-27
-4.83436e-26
1.30305e-26
-5.94288e-26
1.88818e-26
-7.44016e-26
3.12711e-26
-9.47498e-26
6.02024e-26
-1.07003e-25
6.05431e-26
3.87695e-30
-1.39563e-28
7.98737e-30
-1.4509e-28
1.2387e-29
-1.56486e-28
1.72442e-29
-1.74163e-28
2.2738e-29
-1.98775e-28
2.90724e-29
-2.31231e-28
3.64845e-29
-2.72729e-28
4.52534e-29
-3.24809e-28
5.57113e-29
-3.89406e-28
6.82569e-29
-4.68932e-28
8.33718e-29
-5.66368e-28
1.01641e-28
-6.8538e-28
1.23781e-28
-8.30472e-28
1.50664e-28
-1.00717e-27
1.83363e-28
-1.22223e-27
2.2319e-28
-1.48396e-27
2.71749e-28
-1.80251e-27
3.3099e-28
-2.19031e-27
4.03272e-28
-2.66256e-27
4.91442e-28
-3.23778e-27
5.98917e-28
-3.93849e-27
7.29806e-28
-4.79197e-27
8.8908e-28
-5.83118e-27
1.08283e-27
-7.09582e-27
1.31866e-27
-8.63359e-27
1.60633e-27
-1.05019e-26
1.95867e-27
-1.27698e-26
2.39299e-27
-1.55209e-26
2.93318e-27
-1.88569e-26
3.61306e-27
-2.29033e-26
4.48177e-27
-2.78177e-26
5.6135e-27
-3.38087e-26
7.12744e-27
-4.11779e-26
9.23956e-27
-5.04347e-26
1.24316e-26
-6.26088e-26
1.80679e-26
-8.00349e-26
3.07817e-26
-1.07492e-25
6.69171e-26
-1.4302e-25
6.15234e-26
3.65594e-30
-1.43116e-28
7.53154e-30
-1.48785e-28
1.16799e-29
-1.60471e-28
1.62597e-29
-1.786e-28
2.14398e-29
-2.03839e-28
2.74125e-29
-2.37121e-28
3.44013e-29
-2.79677e-28
4.26695e-29
-3.33083e-28
5.25303e-29
-3.99325e-28
6.43594e-29
-4.80877e-28
7.86112e-29
-5.80794e-28
9.58377e-29
-7.02837e-28
1.16713e-28
-8.51624e-28
1.42061e-28
-1.03282e-27
1.72894e-28
-1.25336e-27
2.10448e-28
-1.52176e-27
2.56237e-28
-1.84843e-27
3.121e-28
-2.24613e-27
3.80263e-28
-2.73045e-27
4.63413e-28
-3.3204e-27
5.64777e-28
-4.0391e-27
6.88237e-28
-4.91459e-27
8.38494e-28
-5.98073e-27
1.02132e-27
-7.2784e-27
1.24393e-27
-8.8568e-27
1.51562e-27
-1.07753e-26
1.84863e-27
-1.31057e-26
2.25955e-27
-1.59354e-26
2.77133e-27
-1.93718e-26
3.41648e-27
-2.3549e-26
4.24213e-27
-2.86389e-26
5.31872e-27
-3.48734e-26
6.75716e-27
-4.25973e-26
8.75259e-27
-5.24105e-26
1.17345e-26
-6.55816e-26
1.69697e-26
-8.52697e-26
2.93615e-26
-1.19916e-25
7.50956e-26
-1.88606e-25
-2.5493e-25
3.42927e-30
-1.46449e-28
7.06408e-30
-1.5225e-28
1.09548e-29
-1.64209e-28
1.52501e-29
-1.82761e-28
2.01085e-29
-2.08588e-28
2.57102e-29
-2.42646e-28
3.22651e-29
-2.86193e-28
4.00198e-29
-3.40843e-28
4.92682e-29
-4.08629e-28
6.03628e-29
-4.9208e-28
7.37295e-29
-5.94324e-28
8.98862e-29
-7.19209e-28
1.09465e-28
-8.71462e-28
1.33239e-28
-1.05688e-27
1.62158e-28
-1.28256e-27
1.97382e-28
-1.55721e-27
2.40329e-28
-1.8915e-27
2.92727e-28
-2.29849e-27
3.56665e-28
-2.79413e-27
4.34665e-28
-3.39791e-27
5.29758e-28
-4.13349e-27
6.45591e-28
-5.02963e-27
7.86587e-28
-6.12107e-27
9.5818e-28
-7.44977e-27
1.16719e-27
-9.06637e-27
1.4224e-27
-1.10321e-26
1.73544e-27
-1.34214e-26
2.12209e-27
-1.63252e-26
2.60424e-27
-1.98566e-26
3.21289e-27
-2.41579e-26
3.99275e-27
-2.94141e-26
5.00977e-27
-3.58787e-26
6.36463e-27
-4.39338e-26
8.22573e-27
-5.42535e-26
1.0947e-26
-6.82965e-26
1.55838e-26
-8.99085e-26
2.66142e-26
-1.30983e-25
7.24567e-26
-2.34263e-25
-5.4606e-25
3.19729e-30
-1.49555e-28
6.5857e-30
-1.5548e-28
1.02127e-29
-1.67694e-28
1.4217e-29
-1.8664e-28
1.87461e-29
-2.13016e-28
2.39684e-29
-2.47797e-28
3.00791e-29
-2.92268e-28
3.73084e-29
-3.48078e-28
4.59301e-29
-4.17302e-28
5.6273e-29
-5.02524e-28
6.87341e-29
-6.06938e-28
8.37961e-29
-7.34473e-28
1.02048e-28
-8.89957e-28
1.24212e-28
-1.07931e-27
1.51172e-28
-1.30978e-27
1.8401e-28
-1.59026e-27
2.2405e-28
-1.93166e-27
2.72901e-28
-2.3473e-27
3.32514e-28
-2.85351e-27
4.05242e-28
-3.47017e-27
4.93912e-28
-4.22151e-27
6.01933e-28
-5.13691e-27
7.33439e-28
-6.25196e-27
8.93516e-28
-7.60964e-27
1.08856e-27
-9.26194e-27
1.32683e-27
-1.12719e-26
1.61929e-27
-1.37163e-26
1.98083e-27
-1.66897e-26
2.43219e-27
-2.03103e-26
3.00264e-27
-2.47284e-26
3.73416e-27
-3.0141e-26
4.68756e-27
-3.68207e-26
5.95184e-27
-4.51804e-26
7.664e-27
-5.59489e-26
1.00825e-26
-7.07112e-26
1.39407e-26
-9.37708e-26
2.24826e-26
-1.39566e-25
5.99886e-26
-2.71565e-25
-8.46059e-25
2.96036e-30
-1.52431e-28
6.09713e-30
-1.58471e-28
9.45492e-30
-1.70921e-28
1.3162e-29
-1.90231e-28
1.73549e-29
-2.17116e-28
2.21895e-29
-2.52566e-28
2.78467e-29
-2.97893e-28
3.45394e-29
-3.54777e-28
4.25213e-29
-4.25333e-28
5.20964e-29
-5.12194e-28
6.36326e-29
-6.18616e-28
7.75768e-29
-7.48605e-28
9.44743e-29
-9.0708e-28
1.14993e-28
-1.10007e-27
1.39952e-28
-1.33498e-27
1.70354e-28
-1.62086e-27
2.07424e-28
-1.96884e-27
2.52653e-28
-2.3925e-27