/*--------------------------------*- C++ -*----------------------------------*\
| =========                 |                                                 |
| \\      /  F ield         | OpenFOAM: The Open Source CFD Toolbox           |
|  \\    /   O peration     | Version:  4.1                                   |
|   \\  /    A nd           | Web:      www.OpenFOAM.org                      |
|    \\/     M anipulation  |                                                 |
\*---------------------------------------------------------------------------*/
FoamFile
{
    version     2.0;
    format      ascii;
    class       volVectorField;
    location    "5";
    object      U;
}
// * * * * * * * * * * * * * * * * * * * * * * * * * * * * * * * * * * * * * //

dimensions      [0 1 -1 0 0 0 0];

internalField   nonuniform List<vector> 
1705
(
(-2.00669e-61 -3.98928e-28 -4.25093e-30)
(-2.60064e-60 -1.29766e-28 1.14967e-29)
(1.81899e-61 -4.06144e-28 1.80126e-29)
(3.95123e-58 -6.50406e-28 4.12767e-30)
(1.88758e-55 -3.86006e-28 -1.11692e-29)
(5.92274e-53 -1.4176e-28 4.22071e-29)
(2.81291e-51 -4.47852e-28 1.18461e-29)
(9.95966e-49 -6.65322e-28 -9.9249e-30)
(1.94773e-46 -3.78075e-28 -1.81162e-29)
(7.72632e-44 -1.64369e-28 7.54465e-29)
(1.93397e-46 -4.99659e-28 4.39437e-30)
(7.75833e-49 -4.04927e-28 -6.39072e-30)
(1.60189e-50 -2.00339e-28 1.09251e-28)
(1.53759e-52 -5.50065e-28 2.40842e-29)
(4.5066e-50 -7.31964e-28 -1.63153e-30)
(1.32757e-47 -4.28884e-28 -1.55575e-29)
(9.45212e-47 -2.56016e-28 1.55864e-28)
(1.29226e-43 -6.43383e-28 1.65985e-29)
(8.82452e-46 -4.90994e-28 -2.48213e-30)
(1.2747e-47 -3.27367e-28 2.14718e-28)
(2.11677e-48 -7.40368e-28 4.50199e-29)
(8.02484e-46 -8.77589e-28 9.16368e-30)
(1.58986e-43 -5.58015e-28 -1.50298e-29)
(8.36796e-47 -4.24402e-28 2.91582e-28)
(5.9627e-48 -8.91902e-28 3.71198e-29)
(-2.49803e-45 -9.92521e-28 -1.07668e-29)
(-3.67916e-43 -6.48133e-28 -3.18844e-29)
(1.76573e-44 -5.45697e-28 3.89489e-28)
(-2.17759e-43 -1.0799e-27 2.38191e-29)
(-1.34969e-45 -7.94233e-28 -1.3969e-29)
(-2.22264e-46 -6.94787e-28 5.3073e-28)
(-3.46453e-43 -1.29668e-27 7.31157e-29)
(-3.92606e-45 -1.35703e-27 2.42774e-30)
(-3.59017e-43 -9.62152e-28 -3.80828e-29)
(4.20945e-47 -8.94165e-28 7.05203e-28)
(1.29623e-44 -1.61456e-27 5.83449e-29)
(1.51288e-41 -1.20915e-27 -8.47089e-30)
(1.00022e-38 -1.14218e-27 9.64795e-28)
(5.37809e-37 -1.99607e-27 1.40346e-28)
(4.74836e-34 -2.05619e-27 6.15535e-29)
(4.59146e-33 -2.2475e-27 5.50763e-27)
(4.22666e-33 -2.80888e-27 5.50295e-27)
(6.45352e-34 -2.45097e-27 5.48132e-27)
(-4.5793e-31 2.36605e-26 7.98908e-27)
(8.9064e-32 -6.72109e-28 4.56751e-27)
(-4.56738e-31 -2.59354e-26 7.56121e-27)
(7.9981e-35 -4.78652e-28 5.59006e-27)
(2.23579e-33 -1.19797e-28 5.5604e-27)
(-2.21794e-32 -6.64633e-28 5.93671e-27)
(-2.12526e-32 -9.03158e-28 5.93496e-27)
(-2.16284e-32 -1.47438e-27 5.88277e-27)
(-3.21106e-32 -1.14486e-27 5.8939e-27)
(-1.29339e-30 2.49155e-26 8.29635e-27)
(2.4154e-31 3.06604e-28 4.78595e-27)
(-1.28804e-30 -2.48958e-26 8.0205e-27)
(1.36524e-33 6.5551e-28 5.97007e-27)
(4.77584e-32 9.71498e-28 6.15008e-27)
(1.68183e-32 3.85452e-28 6.19991e-27)
(1.65765e-32 1.22771e-28 6.20699e-27)
(1.6865e-32 -4.71253e-28 6.18571e-27)
(5.42262e-32 -1.6389e-28 6.22256e-27)
(4.63393e-30 2.56765e-26 8.49526e-27)
(-8.84896e-31 9.55606e-28 4.80365e-27)
(4.57819e-30 -2.40071e-26 8.40492e-27)
(-2.45021e-33 1.47739e-27 6.04928e-27)
(1.38409e-32 1.72502e-27 6.06084e-27)
(1.43645e-32 1.09172e-27 6.11812e-27)
(1.47307e-32 7.85567e-28 6.14576e-27)
(1.50036e-32 1.50356e-28 6.14517e-27)
(3.44783e-33 4.05027e-28 6.19486e-27)
(-1.40408e-30 2.53671e-26 8.26753e-27)
(2.69584e-31 4.0887e-27 4.3299e-27)
(-1.38384e-30 -2.00827e-26 7.07744e-27)
(-2.43635e-32 1.39115e-27 5.18265e-27)
(-1.36446e-32 1.42448e-27 5.19363e-27)
(-1.37342e-32 6.39091e-28 5.24693e-27)
(-1.39043e-32 1.59322e-28 5.26177e-27)
(-1.41194e-32 -4.79949e-28 5.24682e-27)
(-2.04657e-32 -6.98954e-28 5.23567e-27)
(-7.99081e-31 1.08927e-26 6.06616e-27)
(5.10697e-32 9.14148e-27 5.77378e-28)
(2.36677e-36 -2.98502e-28 -1.32665e-28)
(1.24082e-37 -2.8231e-28 3.95249e-30)
(1.90502e-41 -1.92831e-28 -1.17626e-28)
(3.57434e-43 -2.15266e-28 -6.42289e-30)
(1.0355e-46 -1.99902e-28 -1.06917e-28)
(8.53985e-48 -1.69212e-28 -8.04861e-29)
(1.73339e-46 -1.39334e-28 -1.41271e-30)
(3.15941e-43 -1.54606e-28 -7.51076e-29)
(-2.92271e-43 -1.20288e-28 -5.78499e-29)
(-2.10456e-46 -1.11411e-28 3.92932e-31)
(-5.06629e-48 -8.06293e-29 -5.62877e-29)
(5.60448e-47 -9.97864e-29 -4.55757e-30)
(1.52982e-43 -1.21562e-28 -5.4579e-29)
(-2.76455e-43 -7.26456e-29 -4.29646e-29)
(-2.09259e-46 -8.29505e-29 -2.96419e-30)
(-2.55221e-47 -6.29838e-29 -4.20251e-29)
(-1.06513e-43 -8.01378e-29 -6.59252e-30)
(2.58336e-43 -9.91163e-29 -4.16184e-29)
(-2.6136e-43 -4.18289e-29 -3.30836e-29)
(-1.96303e-46 -6.77585e-29 -4.63001e-30)
(-7.63463e-48 -8.91797e-29 -3.21823e-29)
(-7.43239e-48 -3.28607e-29 -2.64824e-29)
(-1.89249e-46 -5.76507e-29 -2.26781e-30)
(-2.5341e-43 -4.65936e-29 -2.56781e-29)
(-1.89402e-46 -5.84411e-29 -4.58009e-30)
(-7.47553e-48 -6.67809e-29 -2.47263e-29)
(-7.50754e-48 -1.97786e-29 -2.02353e-29)
(-1.92999e-46 -3.96247e-29 -2.26102e-30)
(-2.5551e-43 -3.3383e-29 -1.98709e-29)
(-3.78176e-46 -3.95584e-29 -3.58335e-30)
(-2.37715e-43 -4.17067e-29 -1.92872e-29)
(-6.56904e-47 -1.15452e-29 -1.61001e-29)
(-1.97417e-46 -2.35423e-29 -1.58002e-30)
(-2.50081e-43 -2.67996e-29 -1.58058e-29)
(-6.12683e-47 -9.32137e-30 -1.40552e-29)
(-3.47294e-48 -3.42042e-30 6.36432e-32)
(-7.07952e-48 -6.35e-30 -1.44304e-29)
(-1.79025e-46 -1.36795e-30 6.64923e-31)
(-2.30957e-43 3.8585e-30 -1.45332e-29)
(-2.37168e-284 2.25172e-33 -1.12586e-32)
(-7.65806e-278 2.32677e-33 -3.45037e-32)
(-2.42761e-271 2.49707e-33 -5.93135e-32)
(-7.55029e-265 2.76714e-33 -8.62905e-32)
(-2.30239e-258 3.14499e-33 -1.16452e-31)
(-6.87888e-252 3.64477e-33 -1.50915e-31)
(-2.01211e-245 4.28539e-33 -1.90965e-31)
(-5.75747e-239 5.09123e-33 -2.38107e-31)
(-1.61023e-232 6.09306e-33 -2.94122e-31)
(-4.39768e-226 7.32941e-33 -3.61139e-31)
(-1.1717e-219 8.84825e-33 -4.41726e-31)
(-3.04238e-213 1.0709e-32 -5.38989e-31)
(-7.69004e-207 1.29852e-32 -6.56715e-31)
(-1.8899e-200 1.57669e-32 -7.99524e-31)
(-4.51001e-194 1.91643e-32 -9.7307e-31)
(-1.04361e-187 2.33112e-32 -1.18427e-30)
(-2.33807e-181 2.83681e-32 -1.44155e-30)
(-5.06309e-175 3.45273e-32 -1.75519e-30)
(-1.05786e-168 4.20171e-32 -2.13757e-30)
(-2.12831e-162 5.11082e-32 -2.60362e-30)
(-4.11423e-156 6.21217e-32 -3.17116e-30)
(-7.62333e-150 7.54398e-32 -3.86139e-30)
(-1.35034e-143 9.15192e-32 -4.69942e-30)
(-2.27974e-137 1.1091e-31 -5.71504e-30)
(-3.65612e-131 1.34273e-31 -6.94359e-30)
(-5.54886e-125 1.62382e-31 -8.42717e-30)
(-7.93531e-119 1.9611e-31 -1.02158e-29)
(-1.06402e-112 2.36338e-31 -1.23684e-29)
(-1.33006e-106 2.83754e-31 -1.49527e-29)
(-1.53957e-100 3.38412e-31 -1.80416e-29)
(-1.63703e-94 3.9887e-31 -2.17035e-29)
(-1.58361e-88 4.60568e-31 -2.598e-29)
(-1.37723e-82 5.12939e-31 -3.08395e-29)
(-1.06078e-76 5.34721e-31 -3.60926e-29)
(-7.09681e-71 4.8743e-31 -4.12502e-29)
(-4.01755e-65 3.09745e-31 -4.53194e-29)
(-1.85456e-59 -7.53136e-32 -4.66098e-29)
(-6.60095e-54 -7.15274e-31 -4.28014e-29)
(-1.65157e-48 -1.57022e-30 -3.26662e-29)
(-6.60927e-288 6.68282e-33 -1.12473e-32)
(-2.11915e-281 6.9163e-33 -3.44665e-32)
(-6.67001e-275 7.43583e-33 -5.92461e-32)
(-2.05954e-268 8.25556e-33 -8.61906e-32)
(-6.23448e-262 9.40103e-33 -1.16315e-31)
(-1.84887e-255 1.09145e-32 -1.50736e-31)
(-5.36732e-249 1.28526e-32 -1.90738e-31)
(-1.52407e-242 1.52881e-32 -2.37822e-31)
(-4.22938e-236 1.83128e-32 -2.93769e-31)
(-1.14597e-229 2.20415e-32 -3.60705e-31)
(-3.02876e-223 2.66166e-32 -4.41193e-31)
(-7.80014e-217 3.22142e-32 -5.38337e-31)
(-1.9552e-210 3.9051e-32 -6.55916e-31)
(-4.76439e-204 4.73928e-32 -7.98547e-31)
(-1.12715e-197 5.75647e-32 -9.71877e-31)
(-2.58521e-191 6.9962e-32 -1.18281e-30)
(-5.73966e-185 8.5064e-32 -1.43978e-30)
(-1.23147e-178 1.03448e-31 -1.75302e-30)
(-2.54869e-172 1.2581e-31 -2.13494e-30)
(-5.078e-166 1.52979e-31 -2.60044e-30)
(-9.7184e-160 1.85952e-31 -3.16731e-30)
(-1.78223e-153 2.25916e-31 -3.85674e-30)
(-3.12334e-147 2.74289e-31 -4.69382e-30)
(-5.21488e-141 3.32761e-31 -5.70831e-30)
(-8.2672e-135 4.03318e-31 -6.93552e-30)
(-1.2396e-128 4.88244e-31 -8.41749e-30)
(-1.75023e-122 5.90038e-31 -1.02043e-29)
(-2.3152e-116 7.11147e-31 -1.23549e-29)
(-2.85225e-110 8.53377e-31 -1.49371e-29)
(-3.24974e-104 1.01664e-30 -1.80243e-29)
(-3.39574e-98 1.19645e-30 -2.1686e-29)
(-3.2211e-92 1.37922e-30 -2.59654e-29)
(-2.73855e-86 1.53375e-30 -3.08344e-29)
(-2.05296e-80 1.59708e-30 -3.61091e-29)
(-1.32774e-74 1.45463e-30 -4.13081e-29)
(-7.18461e-69 9.22803e-31 -4.54461e-29)
(-3.10471e-63 -2.3108e-31 -4.68293e-29)
(-9.88378e-58 -2.15303e-30 -4.31136e-29)
(-1.93343e-52 -4.54274e-30 -3.26522e-29)
(1.45373e-285 1.10376e-32 -1.12156e-32)
(4.66039e-279 1.14406e-32 -3.4365e-32)
(1.46648e-272 1.23183e-32 -5.90663e-32)
(4.52652e-266 1.36958e-32 -8.59271e-32)
(1.36962e-259 1.56184e-32 -1.15959e-31)
(4.05944e-253 1.81568e-32 -1.50274e-31)
(1.17771e-246 2.14047e-32 -1.90152e-31)
(3.3417e-240 2.54833e-32 -2.37092e-31)
(9.26571e-234 3.05448e-32 -2.92866e-31)
(2.50828e-227 3.67794e-32 -3.59596e-31)
(6.62267e-221 4.44225e-32 -4.39835e-31)
(1.70372e-214 5.37641e-32 -5.36678e-31)
(4.26563e-208 6.5161e-32 -6.53892e-31)
(1.03816e-201 7.90499e-32 -7.9608e-31)
(2.45285e-195 9.59656e-32 -9.68872e-31)
(5.61824e-189 1.1656e-31 -1.17915e-30)
(1.24562e-182 1.41628e-31 -1.43532e-30)
(2.66874e-176 1.72133e-31 -1.7476e-30)
(5.51542e-170 2.09244e-31 -2.12835e-30)
(1.09734e-163 2.5437e-31 -2.59243e-30)
(2.09724e-157 3.09209e-31 -3.15759e-30)
(3.84108e-151 3.75793e-31 -3.84495e-30)
(6.72357e-145 4.56544e-31 -4.67955e-30)
(1.12149e-138 5.54321e-31 -5.69105e-30)
(1.77659e-132 6.72446e-31 -6.91472e-30)
(2.6628e-126 8.1467e-31 -8.39252e-30)
(3.75998e-120 9.85012e-31 -1.01745e-29)
(4.97724e-114 1.18732e-30 -1.23197e-29)
(6.14142e-108 1.42433e-30 -1.48964e-29)
(7.0165e-102 1.69561e-30 -1.79787e-29)
(7.36366e-96 1.99367e-30 -2.16379e-29)
(7.03117e-90 2.29622e-30 -2.59208e-29)
(6.03681e-84 2.55227e-30 -3.08056e-29)
(4.59197e-78 2.65853e-30 -3.61198e-29)
(3.0358e-72 2.42563e-30 -4.1398e-29)
(1.69995e-66 1.54747e-30 -4.56707e-29)
(7.77514e-61 -3.69663e-31 -4.72395e-29)
(2.75005e-55 -3.58607e-30 -4.3677e-29)
(6.87353e-50 -7.50393e-30 -3.26686e-29)
(-2.29954e-284 1.53811e-32 -1.11667e-32)
(-7.42794e-278 1.59573e-32 -3.42104e-32)
(-2.35558e-271 1.71928e-32 -5.87951e-32)
(-7.32914e-265 1.91247e-32 -8.55306e-32)
(-2.23585e-258 2.18197e-32 -1.15423e-31)
(-6.68283e-252 2.53766e-32 -1.49579e-31)
(-1.95558e-245 2.99265e-32 -1.89273e-31)
(-5.59812e-239 3.56385e-32 -2.35994e-31)
(-1.56635e-232 4.27254e-32 -2.9151e-31)
(-4.27974e-226 5.14524e-32 -3.5793e-31)
(-1.1408e-219 6.21476e-32 -4.37796e-31)
(-2.96353e-213 7.52152e-32 -5.34189e-31)
(-7.49431e-207 9.11516e-32 -6.50859e-31)
(-1.8427e-200 1.10565e-31 -7.92386e-31)
(-4.39962e-194 1.34199e-31 -9.64374e-31)
(-1.0186e-187 1.62963e-31 -1.17368e-30)
(-2.28327e-181 1.97966e-31 -1.42866e-30)
(-4.94721e-175 2.40558e-31 -1.7395e-30)
(-1.03426e-168 2.92378e-31 -2.1185e-30)
(-2.08211e-162 3.5541e-31 -2.58044e-30)
(-4.02755e-156 4.32048e-31 -3.14303e-30)
(-7.46791e-150 5.25161e-31 -3.82727e-30)
(-1.32379e-143 6.38163e-31 -4.65812e-30)
(-2.23673e-137 7.75077e-31 -5.66513e-30)
(-3.59031e-131 9.40554e-31 -6.88345e-30)
(-5.4543e-125 1.13982e-30 -8.35498e-30)
(-7.80858e-119 1.37845e-30 -1.01297e-29)
(-1.04832e-112 1.66175e-30 -1.2267e-29)
(-1.31229e-106 1.99348e-30 -1.48354e-29)
(-1.5215e-100 2.37312e-30 -1.79104e-29)
(-1.62096e-94 2.79047e-30 -2.15659e-29)
(-1.57169e-88 3.21516e-30 -2.58537e-29)
(-1.3707e-82 3.57736e-30 -3.07619e-29)
(-1.05938e-76 3.73475e-30 -3.61344e-29)
(-7.11798e-71 3.42435e-30 -4.15303e-29)
(-4.05163e-65 2.21633e-30 -4.60052e-29)
(-1.8838e-59 -4.52961e-31 -4.7856e-29)
(-6.77155e-54 -4.98762e-30 -4.45405e-29)
(-1.7182e-48 -1.08203e-29 -3.35732e-29)
(5.97947e-286 1.97056e-32 -1.11004e-32)
(1.91606e-279 2.04565e-32 -3.40027e-32)
(6.02644e-273 2.2048e-32 -5.84329e-32)
(1.85928e-266 2.45307e-32 -8.50017e-32)
(5.62295e-260 2.79927e-32 -1.14709e-31)
(1.66576e-253 3.25609e-32 -1.48653e-31)
(4.83011e-247 3.8404e-32 -1.881e-31)
(1.36977e-240 4.57384e-32 -2.34532e-31)
(3.79591e-234 5.48372e-32 -2.89703e-31)
(1.02697e-227 6.60404e-32 -3.55711e-31)
(2.70991e-221 7.97686e-32 -4.35082e-31)
(6.96702e-215 9.65395e-32 -5.30877e-31)
(1.74321e-208 1.16989e-31 -6.46822e-31)
(4.23969e-202 1.41895e-31 -7.87471e-31)
(1.00101e-195 1.72212e-31 -9.58392e-31)
(2.29113e-189 2.09104e-31 -1.1664e-30)
(5.07578e-183 2.53994e-31 -1.4198e-30)
(1.08662e-176 3.08616e-31 -1.72872e-30)
(2.24383e-170 3.75077e-31 -2.10538e-30)
(4.4604e-164 4.55933e-31 -2.56449e-30)
(8.51697e-158 5.54265e-31 -3.12364e-30)
(1.55839e-151 6.73774e-31 -3.80373e-30)
(2.72513e-145 8.18859e-31 -4.62956e-30)
(4.54069e-139 9.94697e-31 -5.63058e-30)
(7.18504e-133 1.20727e-30 -6.84177e-30)
(1.07564e-126 1.46329e-30 -8.30494e-30)
(1.51694e-120 1.76991e-30 -1.00701e-29)
(2.00535e-114 2.13397e-30 -1.21967e-29)
(2.47087e-108 2.56039e-30 -1.47541e-29)
(2.81862e-102 3.0488e-30 -1.78193e-29)
(2.95323e-96 3.58675e-30 -2.14695e-29)
(2.81492e-90 4.13659e-30 -2.57634e-29)
(2.4123e-84 4.61097e-30 -3.07017e-29)
(1.83134e-78 4.83051e-30 -3.61504e-29)
(1.20833e-72 4.46039e-30 -4.17017e-29)
(6.75408e-67 2.94569e-30 -4.64462e-29)
(3.0852e-61 -4.58891e-31 -4.86803e-29)
(1.09101e-55 -6.33439e-30 -4.57504e-29)
(2.72871e-50 -1.40945e-29 -3.52221e-29)
(-1.22032e-284 2.40037e-32 -1.10166e-32)
(-4.02759e-278 2.49288e-32 -3.3742e-32)
(-1.30453e-271 2.68738e-32 -5.79802e-32)
(-4.14404e-265 2.9903e-32 -8.43416e-32)
(-1.29024e-258 3.41259e-32 -1.13817e-31)
(-3.93445e-252 3.96974e-32 -1.47497e-31)
(-1.1742e-245 4.68233e-32 -1.86637e-31)
(-3.42685e-239 5.57674e-32 -2.32708e-31)
(-9.77185e-233 6.68625e-32 -2.8745e-31)
(-2.72015e-226 8.05231e-32 -3.52944e-31)
(-7.38452e-220 9.72614e-32 -4.31696e-31)
(-1.95305e-213 1.17708e-31 -5.26745e-31)
(-5.0267e-207 1.42638e-31 -6.41788e-31)
(-1.2575e-200 1.72998e-31 -7.81342e-31)
(-3.05372e-194 2.09952e-31 -9.50933e-31)
(-7.18846e-188 2.54917e-31 -1.15732e-30)
(-1.63783e-181 3.09629e-31 -1.40876e-30)
(-3.6059e-175 3.76202e-31 -1.71528e-30)
(-7.65745e-169 4.57211e-31 -2.08903e-30)
(-1.56539e-162 5.55775e-31 -2.54461e-30)
(-3.07389e-156 6.75662e-31 -3.09946e-30)
(-5.78411e-150 8.21394e-31 -3.77435e-30)
(-1.04019e-143 9.98348e-31 -4.59393e-30)
(-1.78246e-137 1.21285e-30 -5.58745e-30)
(-2.90079e-131 1.47222e-30 -6.78973e-30)
(-4.46644e-125 1.78465e-30 -8.24245e-30)
(-6.47874e-119 2.15892e-30 -9.9956e-30)
(-8.80975e-113 2.60348e-30 -1.21089e-29)
(-1.1166e-106 3.12455e-30 -1.46524e-29)
(-1.31035e-100 3.72221e-30 -1.77052e-29)
(-1.41246e-94 4.38231e-30 -2.13483e-29)
(-1.38514e-88 5.06092e-30 -2.56489e-29)
(-1.2213e-82 5.6549e-30 -3.06231e-29)
(-9.53939e-77 5.95036e-30 -3.61645e-29)
(-6.47531e-71 5.54324e-30 -4.19073e-29)
(-3.7227e-65 3.75231e-30 -4.6989e-29)
(-1.748e-59 -3.63598e-31 -4.9712e-29)
(-6.34528e-54 -7.60328e-30 -4.72676e-29)
(-1.62354e-48 -1.76213e-29 -3.65057e-29)
(-1.31463e-284 2.82676e-32 -1.09154e-32)
(-4.33429e-278 2.93656e-32 -3.34287e-32)
(-1.40246e-271 3.16609e-32 -5.7438e-32)
(-4.4509e-265 3.52317e-32 -8.35513e-32)
(-1.38452e-258 4.02085e-32 -1.1275e-31)
(-4.21834e-252 4.67742e-32 -1.46113e-31)
(-1.25789e-245 5.5171e-32 -1.84886e-31)
(-3.66828e-239 6.57102e-32 -2.30524e-31)
(-1.04527e-232 7.87837e-32 -2.84752e-31)
(-2.90765e-226 9.48795e-32 -3.49631e-31)
(-7.88838e-220 1.14601e-31 -4.27645e-31)
(-2.08503e-213 1.38691e-31 -5.21802e-31)
(-5.36327e-207 1.68062e-31 -6.35764e-31)
(-1.34097e-200 2.0383e-31 -7.74008e-31)
(-3.25474e-194 2.47363e-31 -9.42008e-31)
(-7.658e-188 3.00333e-31 -1.14646e-30)
(-1.74403e-181 3.64785e-31 -1.39555e-30)
(-3.83809e-175 4.43212e-31 -1.6992e-30)
(-8.14733e-169 5.38649e-31 -2.06947e-30)
(-1.66493e-162 6.54778e-31 -2.5208e-30)
(-3.26822e-156 7.96045e-31 -3.07052e-30)
(-6.14781e-150 9.67786e-31 -3.73919e-30)
(-1.10526e-143 1.17635e-30 -4.55127e-30)
(-1.89343e-137 1.42922e-30 -5.5358e-30)
(-3.08055e-131 1.73503e-30 -6.72741e-30)
(-4.74198e-125 2.10349e-30 -8.1676e-30)
(-6.87668e-119 2.54502e-30 -9.90633e-30)
(-9.34852e-113 3.06976e-30 -1.20036e-29)
(-1.18459e-106 3.68543e-30 -1.45304e-29)
(-1.38978e-100 4.39286e-30 -1.75678e-29)
(-1.49767e-94 5.17688e-30 -2.12018e-29)
(-1.46827e-88 5.98846e-30 -2.55089e-29)
(-1.29418e-82 6.71077e-30 -3.05238e-29)
(-1.0105e-76 7.09862e-30 -3.61727e-29)
(-6.85674e-71 6.68223e-30 -4.21413e-29)
(-3.94085e-65 4.65337e-30 -4.76276e-29)
(-1.85065e-59 -1.4112e-31 -5.09514e-29)
(-6.72898e-54 -8.75875e-30 -4.92019e-29)
(-1.73355e-48 -2.11056e-29 -3.94142e-29)
(-3.83269e-288 3.24903e-32 -1.07971e-32)
(-1.25474e-281 3.3759e-32 -3.30634e-32)
(-4.03102e-275 3.64008e-32 -5.6807e-32)
(-1.27002e-268 4.05076e-32 -8.26321e-32)
(-3.92151e-262 4.62303e-32 -1.11508e-31)
(-1.18585e-255 5.37796e-32 -1.44504e-31)
(-3.50929e-249 6.34342e-32 -1.8285e-31)
(-1.01547e-242 7.55517e-32 -2.27985e-31)
(-2.87083e-236 9.05827e-32 -2.81616e-31)
(-7.92208e-230 1.09088e-31 -3.4578e-31)
(-2.13178e-223 1.31762e-31 -4.22934e-31)
(-5.58804e-217 1.59458e-31 -5.16053e-31)
(-1.4253e-210 1.93224e-31 -6.2876e-31)
(-3.53308e-204 2.34344e-31 -7.65482e-31)
(-8.5004e-198 2.8439e-31 -9.31632e-31)
(-1.9822e-191 3.45285e-31 -1.13384e-30)
(-4.47317e-185 4.1938e-31 -1.38018e-30)
(-9.75254e-179 5.09543e-31 -1.68051e-30)
(-2.05052e-172 6.19265e-31 -2.04672e-30)
(-4.14942e-166 7.52786e-31 -2.49313e-30)
(-8.06366e-160 9.15224e-31 -3.03686e-30)
(-1.50122e-153 1.11272e-30 -3.69829e-30)
(-2.67024e-147 1.35261e-30 -4.50164e-30)
(-4.52416e-141 1.64348e-30 -5.47571e-30)
(-7.2767e-135 1.99532e-30 -6.65488e-30)
(-1.1068e-128 2.41935e-30 -8.08045e-30)
(-1.58502e-122 2.92769e-30 -9.80235e-30)
(-2.12637e-116 3.53225e-30 -1.18808e-29)
(-2.65659e-110 4.24244e-30 -1.43878e-29)
(-3.06959e-104 5.0602e-30 -1.74069e-29)
(-3.25315e-98 5.97008e-30 -2.10292e-29)
(-3.1305e-92 6.91932e-30 -2.53421e-29)
(-2.70121e-86 7.7799e-30 -3.04011e-29)
(-2.05669e-80 8.27925e-30 -3.61702e-29)
(-1.3527e-74 7.88642e-30 -4.23963e-29)
(-7.46082e-69 5.66643e-30 -4.83537e-29)
(-3.3007e-63 2.36537e-31 -5.23945e-29)
(-1.0864e-57 -9.76281e-30 -5.14605e-29)
(-2.2646e-52 -2.41466e-29 -4.22106e-29)
(2.41939e-288 3.66644e-32 -1.06618e-32)
(6.97893e-282 3.81015e-32 -3.26467e-32)
(1.95085e-275 4.10854e-32 -5.60883e-32)
(5.26285e-269 4.57217e-32 -8.15854e-32)
(1.36223e-262 5.21815e-32 -1.10095e-31)
(3.35361e-256 6.07026e-32 -1.42672e-31)
(7.74011e-250 7.15998e-32 -1.80532e-31)
(1.63037e-243 8.52767e-32 -2.25095e-31)
(2.94782e-237 1.02242e-31 -2.78045e-31)
(3.71209e-231 1.23128e-31 -3.41396e-31)
(-1.4936e-225 1.48719e-31 -4.17571e-31)
(-3.29645e-218 1.79978e-31 -5.09509e-31)
(-1.55606e-211 2.18087e-31 -6.20787e-31)
(-5.56919e-205 2.64495e-31 -7.55775e-31)
(-1.73771e-198 3.20977e-31 -9.1982e-31)
(-4.94822e-192 3.89704e-31 -1.11946e-30)
(-1.31203e-185 4.73329e-31 -1.3627e-30)
(-3.27219e-179 5.75091e-31 -1.65923e-30)
(-7.71662e-173 6.98934e-31 -2.02082e-30)
(-1.72523e-166 8.49647e-31 -2.46161e-30)
(-3.66032e-160 1.03301e-30 -2.99853e-30)
(-7.36848e-154 1.25598e-30 -3.65171e-30)
(-1.40599e-147 1.52683e-30 -4.44512e-30)
(-2.53854e-141 1.8553e-30 -5.40726e-30)
(-4.32651e-135 2.2527e-30 -6.57223e-30)
(-6.93947e-129 2.7318e-30 -7.98112e-30)
(-1.04358e-122 3.30643e-30 -9.68375e-30)
(-1.46476e-116 3.99038e-30 -1.17406e-29)
(-1.90851e-110 4.79493e-30 -1.42248e-29)
(-2.2933e-104 5.7236e-30 -1.72222e-29)
(-2.5212e-98 6.7614e-30 -2.083e-29)
(-2.51117e-92 7.85345e-30 -2.51469e-29)
(-2.23837e-86 8.86331e-30 -3.02518e-29)
(-1.75754e-80 9.49569e-30 -3.61514e-29)
(-1.1903e-74 9.16434e-30 -4.26638e-29)
(-6.75137e-69 6.80928e-30 -4.91575e-29)
(-3.06809e-63 7.99358e-31 -5.40372e-29)
(-1.03614e-57 -1.05892e-29 -5.40786e-29)
(-2.21373e-52 -2.73716e-29 -4.47997e-29)
(7.38335e-285 4.07832e-32 -1.05098e-32)
(2.12311e-278 4.23858e-32 -3.21793e-32)
(5.89923e-272 4.57071e-32 -5.5283e-32)
(1.57519e-265 5.08659e-32 -8.04129e-32)
(4.00878e-259 5.80527e-32 -1.08512e-31)
(9.59469e-253 6.75324e-32 -1.40621e-31)
(2.10746e-246 7.96552e-32 -1.77935e-31)
(4.02459e-240 9.48702e-32 -2.21857e-31)
(5.63317e-234 1.13743e-31 -2.74045e-31)
(-1.40312e-231 1.36978e-31 -3.36485e-31)
(-4.1062e-221 1.65447e-31 -4.11564e-31)
(-2.13355e-214 2.0022e-31 -5.0218e-31)
(-8.09281e-208 2.42613e-31 -6.11857e-31)
(-2.65268e-201 2.94238e-31 -7.44904e-31)
(-7.91441e-195 3.5707e-31 -9.0659e-31)
(-2.1978e-188 4.33523e-31 -1.10337e-30)
(-5.74419e-182 5.2655e-31 -1.34311e-30)
(-1.42135e-175 6.39756e-31 -1.63539e-30)
(-3.33991e-169 7.77532e-31 -1.99181e-30)
(-7.46305e-163 9.4521e-31 -2.42631e-30)
(-1.58611e-156 1.14923e-30 -2.95559e-30)
(-3.20407e-150 1.39734e-30 -3.59953e-30)
(-6.1439e-144 1.69876e-30 -4.38178e-30)
(-1.11614e-137 2.06438e-30 -5.33054e-30)
(-1.91615e-131 2.50681e-30 -6.47958e-30)
(-3.09908e-125 3.04039e-30 -7.86971e-30)
(-4.70431e-119 3.68071e-30 -9.55063e-30)
(-6.67232e-113 4.44354e-30 -1.15831e-29)
(-8.79551e-107 5.34226e-30 -1.40412e-29)
(-1.07073e-100 6.38236e-30 -1.70136e-29)
(-1.19455e-94 7.55024e-30 -2.06032e-29)
(-1.20997e-88 8.79054e-30 -2.49217e-29)
(-1.09992e-82 9.96161e-30 -3.00726e-29)
(-8.84334e-77 1.07508e-29 -3.611e-29)
(-6.16995e-71 1.05239e-29 -4.29336e-29)
(-3.64108e-65 8.09982e-30 -5.00267e-29)
(-1.75269e-59 1.57992e-30 -5.58742e-29)
(-6.51352e-54 -1.11975e-29 -5.70947e-29)
(-1.70458e-48 -3.04174e-29 -4.9215e-29)
(2.42583e-288 4.484e-32 -1.03413e-32)
(7.00464e-282 4.66052e-32 -3.1662e-32)
(1.96028e-275 5.02587e-32 -5.43923e-32)
(5.29538e-269 5.59318e-32 -7.91163e-32)
(1.37291e-262 6.38345e-32 -1.06762e-31)
(3.38711e-256 7.42582e-32 -1.38352e-31)
(7.84115e-250 8.75879e-32 -1.75064e-31)
(1.65971e-243 1.04317e-31 -2.18277e-31)
(3.02993e-237 1.25069e-31 -2.69623e-31)
(3.93365e-231 1.50617e-31 -3.31055e-31)
(-9.17452e-226 1.81919e-31 -4.04923e-31)
(-3.15216e-218 2.20152e-31 -4.94076e-31)
(-1.52131e-211 2.66765e-31 -6.01984e-31)
(-5.48883e-205 3.23527e-31 -7.32884e-31)
(-1.71992e-198 3.92612e-31 -8.91963e-31)
(-4.91065e-192 4.76673e-31 -1.08557e-30)
(-1.30449e-185 5.7896e-31 -1.32145e-30)
(-3.25795e-179 7.03438e-31 -1.60903e-30)
(-7.69148e-173 8.54939e-31 -1.95973e-30)
(-1.72116e-166 1.03933e-30 -2.38727e-30)
(-3.6545e-160 1.2637e-30 -2.9081e-30)
(-7.36171e-154 1.53659e-30 -3.54181e-30)
(-1.40555e-147 1.86815e-30 -4.31171e-30)
(-2.53914e-141 2.27038e-30 -5.24565e-30)
(-4.32982e-135 2.75726e-30 -6.37703e-30)
(-6.94833e-129 3.34466e-30 -7.74634e-30)
(-1.04544e-122 4.05e-30 -9.40312e-30)
(-1.46816e-116 4.89112e-30 -1.14083e-29)
(-1.91401e-110 5.88371e-30 -1.3837e-29)
(-2.30132e-104 7.03571e-30 -1.67806e-29)
(-2.53179e-98 8.33583e-30 -2.03483e-29)
(-2.52378e-92 9.73005e-30 -2.46646e-29)
(-2.25185e-86 1.1075e-29 -2.98598e-29)
(-1.77038e-80 1.20467e-29 -3.6039e-29)
(-1.20104e-74 1.19721e-29 -4.3194e-29)
(-6.82894e-69 9.55582e-30 -5.09463e-29)
(-3.11525e-63 2.6136e-30 -5.78967e-29)
(-1.05944e-57 -1.15458e-29 -6.0478e-29)
(-2.3023e-52 -3.37511e-29 -5.34972e-29)
(-1.00255e-287 4.88282e-32 -1.01568e-32)
(-3.186e-281 5.0753e-32 -3.10956e-32)
(-9.93804e-275 5.47329e-32 -5.34176e-32)
(-3.04088e-268 6.09117e-32 -7.76977e-32)
(-9.12112e-262 6.95181e-32 -1.04847e-31)
(-2.68002e-255 8.08696e-32 -1.3587e-31)
(-7.70798e-249 9.53856e-32 -1.71923e-31)
(-2.16824e-242 1.13604e-31 -2.14361e-31)
(-5.96023e-236 1.36202e-31 -2.64785e-31)
(-1.59961e-229 1.64023e-31 -3.25115e-31)
(-4.18731e-223 1.9811e-31 -3.97657e-31)
(-1.068e-216 2.39746e-31 -4.8521e-31)
(-2.65115e-210 2.90505e-31 -5.91182e-31)
(-6.39735e-204 3.52318e-31 -7.19734e-31)
(-1.49866e-197 4.27549e-31 -8.75961e-31)
(-3.40351e-191 5.1909e-31 -1.0661e-30)
(-7.48187e-185 6.3048e-31 -1.29775e-30)
(-1.58938e-178 7.6604e-31 -1.58019e-30)
(-3.25681e-172 9.31034e-31 -1.92463e-30)
(-6.42444e-166 1.13186e-30 -2.34456e-30)
(-1.21732e-159 1.37625e-30 -2.85614e-30)
(-2.21026e-153 1.6735e-30 -3.47864e-30)
(-3.83516e-147 2.03472e-30 -4.23502e-30)
(-6.34036e-141 2.47301e-30 -5.15271e-30)
(-9.95321e-135 3.00368e-30 -6.26472e-30)
(-1.47796e-128 3.64417e-30 -7.61116e-30)
(-2.06687e-122 4.41376e-30 -9.24134e-30)
(-2.70843e-116 5.33248e-30 -1.12164e-29)
(-3.30618e-110 6.41855e-30 -1.36123e-29)
(-3.73364e-104 7.68284e-30 -1.65232e-29)
(-3.86844e-98 9.11729e-30 -2.00644e-29)
(-3.64048e-92 1.06712e-29 -2.43739e-29)
(-3.07295e-86 1.2203e-29 -2.96093e-29)
(-2.28959e-80 1.33845e-29 -3.59306e-29)
(-1.4741e-74 1.35148e-29 -4.34318e-29)
(-7.961e-69 1.11946e-29 -5.18984e-29)
(-3.44876e-63 3.93906e-30 -6.00945e-29)
(-1.11029e-57 -1.15698e-29 -6.43676e-29)
(-2.24534e-52 -3.68565e-29 -5.8122e-29)
(-3.33221e-284 5.27416e-32 -9.95649e-33)
(-1.06727e-277 5.48227e-32 -3.04811e-32)
(-3.3556e-271 5.91227e-32 -5.23606e-32)
(-1.03501e-264 6.57977e-32 -7.61593e-32)
(-3.12977e-258 7.50946e-32 -1.0277e-31)
(-9.27174e-252 8.73565e-32 -1.33178e-31)
(-2.68884e-245 1.03036e-31 -1.68517e-31)
(-7.62739e-239 1.22715e-31 -2.10114e-31)
(-2.11458e-232 1.47125e-31 -2.59539e-31)
(-5.72423e-226 1.77177e-31 -3.18673e-31)
(-1.51158e-219 2.13996e-31 -3.89778e-31)
(-3.8897e-213 2.58969e-31 -4.75597e-31)
(-9.74287e-207 3.13798e-31 -5.79469e-31)
(-2.37259e-200 3.80566e-31 -7.05475e-31)
(-5.60997e-194 4.61827e-31 -8.58609e-31)
(-1.28616e-187 5.60708e-31 -1.04498e-30)
(-2.85473e-181 6.8103e-31 -1.27206e-30)
(-6.12429e-175 8.27464e-31 -1.54892e-30)
(-1.26761e-168 1.0057e-30 -1.88656e-30)
(-2.52637e-162 1.22265e-30 -2.29823e-30)
(-4.83782e-156 1.48669e-30 -2.79977e-30)
(-8.87981e-150 1.80787e-30 -3.41011e-30)
(-1.55813e-143 2.19822e-30 -4.15181e-30)
(-2.60595e-137 2.67195e-30 -5.05186e-30)
(-4.14039e-131 3.24569e-30 -6.1428e-30)
(-6.22586e-125 3.93846e-30 -7.46433e-30)
(-8.82231e-119 4.77146e-30 -9.06546e-30)
(-1.17235e-112 5.76698e-30 -1.10074e-29)
(-1.45263e-106 6.94601e-30 -1.33669e-29)
(-1.66716e-100 8.32283e-30 -1.62409e-29)
(-1.75829e-94 9.89359e-30 -1.97506e-29)
(-1.68794e-88 1.16128e-29 -2.40475e-29)
(-1.4578e-82 1.33448e-29 -2.93171e-29)
(-1.11623e-76 1.47646e-29 -3.57766e-29)
(-7.43586e-71 1.51564e-29 -4.3632e-29)
(-4.20265e-65 1.30328e-29 -5.28615e-29)
(-1.94583e-59 5.59797e-30 -6.24496e-29)
(-7.00376e-54 -1.12005e-29 -6.86371e-29)
(-1.79528e-48 -3.98316e-29 -6.33453e-29)
(-4.70087e-284 5.6574e-32 -9.74071e-33)
(-1.45766e-277 5.88079e-32 -2.98195e-32)
(-4.42904e-271 6.34215e-32 -5.12226e-32)
(-1.31763e-264 7.05823e-32 -7.45033e-32)
(-3.83479e-258 8.05553e-32 -1.00535e-31)
(-1.09082e-251 9.37086e-32 -1.30282e-31)
(-3.02965e-245 1.10528e-31 -1.64851e-31)
(-8.20725e-239 1.31638e-31 -2.05543e-31)
(-2.16597e-232 1.57822e-31 -2.53893e-31)
(-5.56157e-226 1.90057e-31 -3.1174e-31)
(-1.38742e-219 2.29552e-31 -3.81298e-31)
(-3.35732e-213 2.77794e-31 -4.6525e-31)
(-7.86632e-207 3.36607e-31 -5.66863e-31)
(-1.78097e-200 4.08227e-31 -6.90128e-31)
(-3.88707e-194 4.95394e-31 -8.39933e-31)
(-8.1558e-188 6.01462e-31 -1.02226e-30)
(-1.63963e-181 7.30532e-31 -1.2444e-30)
(-3.14539e-175 8.87617e-31 -1.51526e-30)
(-5.72761e-169 1.07882e-30 -1.84559e-30)
(-9.83063e-163 1.31158e-30 -2.24836e-30)
(-1.57441e-156 1.59487e-30 -2.73909e-30)
(-2.31599e-150 1.9395e-30 -3.33633e-30)
(-3.04261e-144 2.35841e-30 -4.0622e-30)
(-3.35744e-138 2.8669e-30 -4.94322e-30)
(-2.54807e-132 3.48292e-30 -6.01142e-30)
(4.09546e-127 4.2271e-30 -7.30601e-30)
(6.65899e-120 5.12255e-30 -8.87564e-30)
(1.7012e-113 6.19396e-30 -1.07815e-29)
(3.12915e-107 7.46531e-30 -1.31011e-29)
(4.77338e-101 8.95473e-30 -1.59337e-29)
(6.29019e-95 1.06636e-29 -1.94064e-29)
(7.25123e-89 1.25535e-29 -2.36836e-29)
(7.31425e-83 1.44989e-29 -2.89789e-29)
(6.40706e-77 1.61861e-29 -3.55683e-29)
(4.80428e-71 1.68998e-29 -4.37781e-29)
(3.01567e-65 1.50855e-29 -5.38101e-29)
(1.53229e-59 7.63499e-30 -6.49411e-29)
(5.98261e-54 -1.03557e-29 -7.34536e-29)
(1.64545e-48 -4.1926e-29 -6.9462e-29)
(-1.82973e-287 6.03194e-32 -9.50983e-33)
(-5.61061e-281 6.27025e-32 -2.91118e-32)
(-1.68476e-274 6.76224e-32 -5.00057e-32)
(-4.94975e-268 7.5258e-32 -7.27325e-32)
(-1.42143e-261 8.58919e-32 -9.81451e-32)
(-3.98561e-255 9.99164e-32 -1.27184e-31)
(-1.08988e-248 1.1785e-31 -1.60931e-31)
(-2.90271e-242 1.40357e-31 -2.00655e-31)
(-7.51823e-236 1.68275e-31 -2.47856e-31)
(-1.89047e-229 2.02645e-31 -3.04327e-31)
(-4.6057e-223 2.44755e-31 -3.72231e-31)
(-1.08459e-216 2.9619e-31 -4.54186e-31)
(-2.46165e-210 3.58897e-31 -5.53383e-31)
(-5.36541e-204 4.35259e-31 -6.73717e-31)
(-1.11774e-197 5.28198e-31 -8.19962e-31)
(-2.21116e-191 6.4129e-31 -9.97954e-31)
(-4.11434e-185 7.78911e-31 -1.21483e-30)
(-7.0913e-179 9.46405e-31 -1.47926e-30)
(-1.10077e-172 1.15029e-30 -1.80177e-30)
(-1.44439e-166 1.39849e-30 -2.19502e-30)
(-1.29025e-160 1.7006e-30 -2.67419e-30)
(4.28084e-155 2.06818e-30 -3.25741e-30)
(5.84149e-148 2.51503e-30 -3.96633e-30)
(1.86531e-141 3.05756e-30 -4.82695e-30)
(4.44657e-135 3.71502e-30 -5.87076e-30)
(9.04837e-129 4.50963e-30 -7.1364e-30)
(1.64026e-122 5.46649e-30 -8.67209e-30)
(2.69461e-116 6.61275e-30 -1.05388e-29)
(4.03906e-110 7.97561e-30 -1.28148e-29)
(5.53227e-104 9.5775e-30 -1.56013e-29)
(6.91085e-98 1.14259e-29 -1.90309e-29)
(7.83756e-92 1.34916e-29 -2.32804e-29)
(8.01264e-86 1.5663e-29 -2.85906e-29)
(7.31132e-80 1.76467e-29 -3.52964e-29)
(5.87363e-74 1.87454e-29 -4.38521e-29)
(4.0762e-68 1.73658e-29 -5.47144e-29)
(2.37805e-62 1.00974e-29 -6.75378e-29)
(1.11988e-56 -8.96597e-30 -7.85493e-29)
(3.99911e-51 -4.32833e-29 -7.60295e-29)
(-3.26021e-284 6.39719e-32 -9.26423e-33)
(-1.04417e-277 6.65004e-32 -2.8359e-32)
(-3.28288e-271 7.17191e-32 -4.87115e-32)
(-1.01256e-264 7.98178e-32 -7.08494e-32)
(-3.06182e-258 9.1096e-32 -9.56036e-32)
(-9.07032e-252 1.0597e-31 -1.2389e-31)
(-2.63041e-245 1.2499e-31 -1.56763e-31)
(-7.46167e-239 1.4886e-31 -1.95458e-31)
(-2.06866e-232 1.78468e-31 -2.41436e-31)
(-5.60005e-226 2.1492e-31 -2.96444e-31)
(-1.47884e-219 2.5958e-31 -3.62589e-31)
(-3.80561e-213 3.1413e-31 -4.42422e-31)
(-9.5328e-207 3.80634e-31 -5.39049e-31)
(-2.32161e-200 4.6162e-31 -6.56268e-31)
(-5.48995e-194 5.60188e-31 -7.98726e-31)
(-1.25879e-187 6.80131e-31 -9.72114e-31)
(-2.79437e-181 8.2609e-31 -1.18338e-30)
(-5.99583e-175 1.00374e-30 -1.44098e-30)
(-1.24127e-168 1.21999e-30 -1.75517e-30)
(-2.4745e-162 1.48326e-30 -2.1383e-30)
(-4.73989e-156 1.80374e-30 -2.60516e-30)