/*--------------------------------*- C++ -*----------------------------------*\
| =========                 |                                                 |
| \\      /  F ield         | OpenFOAM: The Open Source CFD Toolbox           |
|  \\    /   O peration     | Version:  4.1                                   |
|   \\  /    A nd           | Web:      www.OpenFOAM.org                      |
|    \\/     M anipulation  |                                                 |
\*---------------------------------------------------------------------------*/
FoamFile
{
    version     2.0;
    format      ascii;
    class       volScalarField;
    location    "6";
    object      p;
}
// * * * * * * * * * * * * * * * * * * * * * * * * * * * * * * * * * * * * * //

dimensions      [0 2 -2 0 0 0 0];

internalField   nonuniform List<scalar> 
1705
(
7.79599e-29
4.05303e-28
7.52004e-28
9.10313e-28
1.06874e-27
1.37958e-27
1.76809e-27
1.93627e-27
2.10422e-27
2.41192e-27
2.86236e-27
3.04837e-27
3.37447e-27
3.89256e-27
4.10223e-27
4.31191e-27
4.6563e-27
5.28265e-27
5.52729e-27
5.91407e-27
6.6602e-27
6.94793e-27
7.23604e-27
7.66548e-27
8.58997e-27
8.93641e-27
9.28257e-27
9.76976e-27
1.09307e-26
1.13546e-26
1.19308e-26
1.33644e-26
1.38834e-26
1.44026e-26
1.50674e-26
1.69013e-26
1.75488e-26
1.83439e-26
2.06489e-26
2.14518e-26
2.20161e-26
2.23474e-26
2.28656e-26
2.34749e-26
-8.33075e-27
2.51497e-26
2.49532e-26
2.48414e-26
2.49147e-26
2.49974e-26
2.50894e-26
2.53735e-26
2.57501e-26
-7.19898e-27
2.55815e-26
2.51693e-26
2.48487e-26
2.47236e-26
2.46121e-26
2.45143e-26
2.46115e-26
2.48037e-26
-8.63064e-27
2.31906e-26
2.26158e-26
2.21493e-26
2.18842e-26
2.16395e-26
2.14156e-26
2.13869e-26
2.14622e-26
-1.02897e-26
1.36884e-26
1.31448e-26
1.27183e-26
1.24946e-26
1.23236e-26
1.22035e-26
1.22178e-26
1.23372e-26
-4.2964e-27
-4.80932e-27
-5.18942e-27
-5.44477e-27
-5.77596e-27
-5.99069e-27
-6.32554e-27
-6.56164e-27
-6.70759e-27
-6.93712e-27
-7.09756e-27
-7.18345e-27
-7.31431e-27
-7.37361e-27
-7.47973e-27
-7.55729e-27
-7.57098e-27
-7.62838e-27
-7.62409e-27
-7.64317e-27
-7.66741e-27
-7.63363e-27
-7.61352e-27
-7.61711e-27
-7.56361e-27
-7.5611e-27
-7.50362e-27
-7.45603e-27
-7.44753e-27
-7.38473e-27
-7.37702e-27
-7.31692e-27
-7.27183e-27
-7.26973e-27
-7.21619e-27
-7.18329e-27
-7.19249e-27
-7.15018e-27
-7.16719e-27
-7.13342e-27
-4.58128e-30
-4.77684e-30
-5.19942e-30
-5.88283e-30
-6.87618e-30
-8.23072e-30
-9.98496e-30
-1.21489e-29
-1.4692e-29
-1.75404e-29
-2.05932e-29
-2.37641e-29
-2.70552e-29
-3.06614e-29
-3.50922e-29
-4.12832e-29
-5.06546e-29
-6.50614e-29
-8.65833e-29
-1.1712e-28
-1.57798e-28
-2.08256e-28
-2.65938e-28
-3.25576e-28
-3.79133e-28
-4.16505e-28
-4.27432e-28
-4.05181e-28
-3.52447e-28
-2.89034e-28
-2.59108e-28
-3.33673e-28
-6.01991e-28
-1.14714e-27
-2.01143e-27
-3.16535e-27
-4.46699e-27
-5.74063e-27
-6.68668e-27
-4.57347e-30
-4.76838e-30
-5.18979e-30
-5.87184e-30
-6.86388e-30
-8.21743e-30
-9.97118e-30
-1.21352e-29
-1.46785e-29
-1.75265e-29
-2.05771e-29
-2.37419e-29
-2.70209e-29
-3.06068e-29
-3.50078e-29
-4.11601e-29
-5.04872e-29
-6.48505e-29
-8.63395e-29
-1.16865e-28
-1.57565e-28
-2.08086e-28
-2.65871e-28
-3.25642e-28
-3.79333e-28
-4.16784e-28
-4.27639e-28
-4.05023e-28
-3.51483e-28
-2.8677e-28
-2.55236e-28
-3.28455e-28
-5.96664e-28
-1.14388e-27
-2.01265e-27
-3.17384e-27
-4.48173e-27
-5.76263e-27
-6.71013e-27
-4.55869e-30
-4.75281e-30
-5.17262e-30
-5.85241e-30
-6.84169e-30
-8.19202e-30
-9.94208e-30
-1.21019e-29
-1.46401e-29
-1.74819e-29
-2.05242e-29
-2.36775e-29
-2.69402e-29
-3.05036e-29
-3.48742e-29
-4.09873e-29
-5.02662e-29
-6.45736e-29
-8.6001e-29
-1.16462e-28
-1.57099e-28
-2.0756e-28
-2.65289e-28
-3.25009e-28
-3.78648e-28
-4.16028e-28
-4.26755e-28
-4.03901e-28
-3.49982e-28
-2.84846e-28
-2.53191e-28
-3.27278e-28
-5.98315e-28
-1.15105e-27
-2.02775e-27
-3.19891e-27
-4.51452e-27
-5.80167e-27
-6.74956e-27
-4.53694e-30
-4.73009e-30
-5.14775e-30
-5.82437e-30
-6.80941e-30
-8.15432e-30
-9.89768e-30
-1.20493e-29
-1.45778e-29
-1.7408e-29
-2.04363e-29
-2.35729e-29
-2.6815e-29
-3.03525e-29
-3.469e-29
-4.07602e-29
-4.99834e-29
-6.42187e-29
-8.55535e-29
-1.15898e-28
-1.56392e-28
-2.06683e-28
-2.6422e-28
-3.23734e-28
-3.77167e-28
-4.14356e-28
-4.24916e-28
-4.0193e-28
-3.47977e-28
-2.83128e-28
-2.52576e-28
-3.29403e-28
-6.05837e-28
-1.16723e-27
-2.05516e-27
-3.23902e-27
-4.56398e-27
-5.85678e-27
-6.80383e-27
-4.50825e-30
-4.70016e-30
-5.11512e-30
-5.7876e-30
-6.7669e-30
-8.10426e-30
-9.83802e-30
-1.19778e-29
-1.44921e-29
-1.73057e-29
-2.0315e-29
-2.34297e-29
-2.66468e-29
-3.01543e-29
-3.44545e-29
-4.0476e-29
-4.96332e-29
-6.37775e-29
-8.49875e-29
-1.15164e-28
-1.5544e-28
-2.05462e-28
-2.62685e-28
-3.2186e-28
-3.74958e-28
-4.11858e-28
-4.22219e-28
-3.9919e-28
-3.45488e-28
-2.81511e-28
-2.53085e-28
-3.34251e-28
-6.18347e-28
-1.19126e-27
-2.09347e-27
-3.29271e-27
-4.62861e-27
-5.92655e-27
-6.8726e-27
-4.47262e-30
-4.66303e-30
-5.07469e-30
-5.74204e-30
-6.71411e-30
-8.04182e-30
-9.76318e-30
-1.18876e-29
-1.43836e-29
-1.71759e-29
-2.01612e-29
-2.32493e-29
-2.64365e-29
-2.99096e-29
-3.41673e-29
-4.01329e-29
-4.92121e-29
-6.32451e-29
-8.4297e-29
-1.14256e-28
-1.54243e-28
-2.03903e-28
-2.60702e-28
-3.19417e-28
-3.72067e-28
-4.08592e-28
-4.18731e-28
-3.95737e-28
-3.42526e-28
-2.79915e-28
-2.54486e-28
-3.41382e-28
-6.35146e-28
-1.22216e-27
-2.14145e-27
-3.3585e-27
-4.70672e-27
-6.00915e-27
-6.95247e-27
-4.43012e-30
-4.61873e-30
-5.0265e-30
-5.68771e-30
-6.65106e-30
-7.96704e-30
-9.67328e-30
-1.1779e-29
-1.42525e-29
-1.70191e-29
-1.99757e-29
-2.30324e-29
-2.61851e-29
-2.96189e-29
-3.38285e-29
-3.973e-29
-4.87183e-29
-6.26188e-29
-8.34793e-29
-1.1317e-28
-1.528e-28
-2.02011e-28
-2.58281e-28
-3.16426e-28
-3.68526e-28
-4.04602e-28
-4.14498e-28
-3.91607e-28
-3.39096e-28
-2.78277e-28
-2.56601e-28
-3.50441e-28
-6.55652e-28
-1.25908e-27
-2.19792e-27
-3.4349e-27
-4.79641e-27
-6.10233e-27
-7.04245e-27
-4.3808e-30
-4.56732e-30
-4.97058e-30
-5.62465e-30
-6.5778e-30
-7.88e-30
-9.56843e-30
-1.1652e-29
-1.40993e-29
-1.68358e-29
-1.97591e-29
-2.27797e-29
-2.58932e-29
-2.92828e-29
-3.34384e-29
-3.92674e-29
-4.81513e-29
-6.18976e-29
-8.25332e-29
-1.11907e-28
-1.51113e-28
-1.9979e-28
-2.55434e-28
-3.12905e-28
-3.64358e-28
-3.99918e-28
-4.09553e-28
-3.86828e-28
-3.35201e-28
-2.76546e-28
-2.59282e-28
-3.61129e-28
-6.7934e-28
-1.30118e-27
-2.26168e-27
-3.52025e-27
-4.89557e-27
-6.20341e-27
-7.13801e-27
-4.32472e-30
-4.50887e-30
-4.90701e-30
-5.55294e-30
-6.49442e-30
-7.78081e-30
-9.4488e-30
-1.15071e-29
-1.39242e-29
-1.66264e-29
-1.95118e-29
-2.24917e-29
-2.55615e-29
-2.89019e-29
-3.29974e-29
-3.87451e-29
-4.75111e-29
-6.10817e-29
-8.14591e-29
-1.10468e-28
-1.49185e-28
-1.97245e-28
-2.52169e-28
-3.08867e-28
-3.59583e-28
-3.94561e-28
-4.0392e-28
-3.81419e-28
-3.3084e-28
-2.74676e-28
-2.62398e-28
-3.73165e-28
-7.05703e-28
-1.34765e-27
-2.33147e-27
-3.61276e-27
-5.00181e-27
-6.30935e-27
-7.23548e-27
-4.26198e-30
-4.44346e-30
-4.83588e-30
-5.47268e-30
-6.40102e-30
-7.66961e-30
-9.31456e-30
-1.13443e-29
-1.37276e-29
-1.63912e-29
-1.92344e-29
-2.21691e-29
-2.51905e-29
-2.84768e-29
-3.25062e-29
-3.8164e-29
-4.67984e-29
-6.01718e-29
-8.02581e-29
-1.08855e-28
-1.47019e-28
-1.94384e-28
-2.48494e-28
-3.04324e-28
-3.54216e-28
-3.88553e-28
-3.9762e-28
-3.75394e-28
-3.26012e-28
-2.72625e-28
-2.65821e-28
-3.86273e-28
-7.34222e-28
-1.39762e-27
-2.40592e-27
-3.71047e-27
-5.1125e-27
-6.41682e-27
-7.33317e-27
-4.19267e-30
-4.3712e-30
-4.7573e-30
-5.38399e-30
-6.29776e-30
-7.54657e-30
-9.16592e-30
-1.11639e-29
-1.35097e-29
-1.61306e-29
-1.89272e-29
-2.18124e-29
-2.47809e-29
-2.80083e-29
-3.19654e-29
-3.75247e-29
-4.60141e-29
-5.9169e-29
-7.89321e-29
-1.0707e-28
-1.44619e-28
-1.9121e-28
-2.44418e-28
-2.99287e-28
-3.48273e-28
-3.81911e-28
-3.90672e-28
-3.68771e-28
-3.20716e-28
-2.7035e-28
-2.69426e-28
-4.00172e-28
-7.64353e-28
-1.45014e-27
-2.48358e-27
-3.81123e-27
-5.22479e-27
-6.52213e-27
-7.42486e-27
-4.11689e-30
-4.29221e-30
-4.67139e-30
-5.287e-30
-6.18478e-30
-7.41186e-30
-9.00309e-30
-1.09663e-29
-1.32709e-29
-1.58451e-29
-1.85909e-29
-2.14221e-29
-2.43334e-29
-2.7497e-29
-3.1376e-29
-3.68283e-29
-4.51595e-29
-5.8075e-29
-7.7483e-29
-1.05117e-28
-1.41989e-28
-1.87731e-28
-2.3995e-28
-2.93769e-28
-3.41769e-28
-3.74653e-28
-3.83096e-28
-3.61563e-28
-3.1495e-28
-2.67811e-28
-2.73084e-28
-4.14567e-28
-7.95524e-28
-1.50423e-27
-2.56287e-27
-3.91275e-27
-5.33562e-27
-6.62138e-27
-7.50581e-27
-4.03478e-30
-4.2066e-30
-4.57829e-30
-5.18187e-30
-6.06225e-30
-7.2657e-30
-8.82632e-30
-1.07517e-29
-1.30115e-29
-1.55351e-29
-1.82259e-29
-2.09989e-29
-2.38486e-29
-2.69438e-29
-3.07389e-29
-3.60759e-29
-4.42358e-29
-5.68915e-29
-7.59135e-29
-1.02999e-28
-1.39136e-28
-1.83954e-28
-2.35101e-28
-2.87782e-28
-3.34719e-28
-3.66798e-28
-3.74911e-28
-3.53787e-28
-3.08716e-28
-2.64965e-28
-2.76664e-28
-4.29155e-28
-8.27134e-28
-1.55885e-27
-2.64215e-27
-4.01261e-27
-5.44178e-27
-6.71055e-27
-7.57393e-27
-3.94646e-30
-4.11452e-30
-4.47814e-30
-5.06875e-30
-5.93037e-30
-7.1083e-30
-8.63589e-30
-1.05204e-29
-1.27319e-29
-1.52011e-29
-1.78327e-29
-2.05433e-29
-2.33272e-29
-2.63495e-29
-3.00551e-29
-3.52687e-29
-4.32447e-29
-5.56207e-29
-7.42263e-29
-1.0072e-28
-1.36063e-28
-1.79887e-28
-2.29879e-28
-2.8134e-28
-3.27141e-28
-3.58365e-28
-3.66137e-28
-3.45458e-28
-3.02013e-28
-2.61773e-28
-2.80033e-28
-4.4362e-28
-8.58555e-28
-1.61289e-27
-2.71968e-27
-4.10829e-27
-5.53995e-27
-6.78547e-27
-7.62208e-27
-3.85207e-30
-4.0161e-30
-4.3711e-30
-4.94782e-30
-5.78934e-30
-6.93991e-30
-8.43206e-30
-1.02728e-29
-1.24326e-29
-1.48435e-29
-1.7412e-29
-2.00562e-29
-2.27701e-29
-2.5715e-29
-2.93257e-29
-3.44081e-29
-4.21878e-29
-5.42646e-29
-7.24245e-29
-9.82844e-29
-1.32777e-28
-1.75537e-28
-2.24296e-28
-2.74457e-28
-3.19051e-28
-3.49374e-28
-3.56795e-28
-3.36595e-28
-2.94845e-28
-2.58193e-28
-2.83053e-28
-4.57638e-28
-8.89137e-28
-1.66523e-27
-2.7937e-27
-4.19721e-27
-5.62677e-27
-6.84199e-27
-7.64818e-27
-3.75175e-30
-3.91152e-30
-4.25734e-30
-4.81928e-30
-5.63937e-30
-6.76078e-30
-8.21517e-30
-1.00092e-29
-1.2114e-29
-1.44628e-29
-1.69643e-29
-1.95382e-29
-2.21782e-29
-2.50414e-29
-2.85519e-29
-3.34953e-29
-4.10669e-29
-5.28256e-29
-7.05111e-29
-9.56962e-29
-1.29285e-28
-1.70913e-28
-2.18363e-28
-2.67146e-28
-3.10467e-28
-3.39845e-28
-3.46907e-28
-3.27217e-28
-2.87215e-28
-2.54188e-28
-2.85589e-28
-4.70882e-28
-9.18218e-28
-1.71469e-27
-2.86239e-27
-4.2768e-27
-5.69888e-27
-6.87593e-27
-7.64543e-27
-3.64567e-30
-3.80092e-30
-4.13703e-30
-4.68331e-30
-5.4807e-30
-6.57119e-30
-7.98553e-30
-9.7301e-30
-1.17766e-29
-1.40598e-29
-1.64904e-29
-1.899e-29
-2.15523e-29
-2.43297e-29
-2.77347e-29
-3.25319e-29
-3.98838e-29
-5.13063e-29
-6.84896e-29
-9.29603e-29
-1.25592e-28
-1.66025e-28
-2.12092e-28
-2.59424e-28
-3.01407e-28
-3.298e-28
-3.36497e-28
-3.17342e-28
-2.79128e-28
-2.49719e-28
-2.87504e-28
-4.83019e-28
-9.45129e-28
-1.76012e-27
-2.92396e-27
-4.34447e-27
-5.75298e-27
-6.88331e-27
-7.6092e-27
-3.534e-30
-3.68449e-30
-4.01037e-30
-4.54014e-30
-5.31358e-30
-6.37143e-30
-7.74349e-30
-9.43585e-30
-1.14208e-29
-1.36348e-29
-1.59909e-29
-1.84126e-29
-2.08933e-29
-2.35809e-29
-2.68757e-29
-3.15195e-29
-3.86405e-29
-4.9709e-29
-6.63635e-29
-9.00817e-29
-1.21706e-28
-1.6088e-28
-2.05495e-28
-2.51305e-28
-2.91891e-28
-3.19261e-28
-3.25586e-28
-3.06993e-28
-2.7059e-28
-2.44752e-28
-2.88668e-28
-4.93725e-28
-9.69207e-28
-1.80035e-27
-2.97663e-27
-4.39776e-27
-5.78592e-27
-6.86037e-27
-7.53779e-27
-3.4169e-30
-3.56241e-30
-3.87755e-30
-4.38999e-30
-5.13825e-30
-6.16179e-30
-7.48942e-30
-9.12691e-30
-1.10473e-29
-1.31887e-29
-1.54667e-29
-1.78068e-29
-2.02024e-29
-2.27963e-29
-2.59761e-29
-3.04597e-29
-3.73391e-29
-4.80367e-29
-6.41366e-29
-8.70654e-29
-1.17634e-28
-1.55489e-28
-1.98585e-28
-2.42807e-28
-2.81938e-28
-3.0825e-28
-3.14201e-28
-2.9619e-28
-2.61612e-28
-2.39256e-28
-2.88953e-28
-5.0268e-28
-9.89799e-28
-1.83424e-27
-3.01869e-27
-4.4343e-27
-5.79474e-27
-6.80366e-27
-7.42597e-27
-3.29457e-30
-3.43486e-30
-3.73878e-30
-4.23309e-30
-4.955e-30
-5.94262e-30
-7.22371e-30
-8.80374e-30
-1.06565e-29
-1.2722e-29
-1.49184e-29
-1.71734e-29
-1.94805e-29
-2.19771e-29
-2.50373e-29
-2.93542e-29
-3.59817e-29
-4.62922e-29
-6.18126e-29
-8.39169e-29
-1.13382e-28
-1.49862e-28
-1.91375e-28
-2.33944e-28
-2.71568e-28
-2.96791e-28
-3.02365e-28
-2.84958e-28
-2.52203e-28
-2.33203e-28
-2.88238e-28
-5.09578e-28
-1.00628e-27
-1.8607e-27
-3.04852e-27
-4.4519e-27
-5.77674e-27
-6.71001e-27
-7.27093e-27
-3.16719e-30
-3.30206e-30
-3.59429e-30
-4.06968e-30
-4.7641e-30
-5.71424e-30
-6.94676e-30
-8.46684e-30
-1.0249e-29
-1.22355e-29
-1.43469e-29
-1.65136e-29
-1.87287e-29
-2.11245e-29
-2.40608e-29
-2.82048e-29
-3.45706e-29
-4.44782e-29
-5.93956e-29
-8.06416e-29
-1.08959e-28
-1.44009e-28
-1.83879e-28
-2.24735e-28
-2.60801e-28
-2.84906e-28
-2.90103e-28
-2.73318e-28
-2.42376e-28
-2.2657e-28
-2.86414e-28
-5.14129e-28
-1.01804e-27
-1.87868e-27
-3.06459e-27
-4.4486e-27
-5.72956e-27
-6.57673e-27
-7.07226e-27
-3.03496e-30
-3.16421e-30
-3.44428e-30
-3.90002e-30
-4.56586e-30
-5.477e-30
-6.65899e-30
-8.11671e-30
-9.82559e-30
-1.17298e-29
-1.37531e-29
-1.58282e-29
-1.79481e-29
-2.02398e-29
-2.30482e-29
-2.70134e-29
-3.3108e-29
-4.25979e-29
-5.68896e-29
-7.7245e-29
-1.04372e-28
-1.3794e-28
-1.76109e-28
-2.15196e-28
-2.49659e-28
-2.7262e-28
-2.77441e-28
-2.61296e-28
-2.32146e-28
-2.1934e-28
-2.8338e-28
-5.16067e-28
-1.02453e-27
-1.88722e-27
-3.06553e-27
-4.4227e-27
-5.65124e-27
-6.40144e-27
-6.82883e-27
-2.8981e-30
-3.02151e-30
-3.28901e-30
-3.72437e-30
-4.36057e-30
-5.23127e-30
-6.36085e-30
-7.75389e-30
-9.38674e-30
-1.12058e-29
-1.31379e-29
-1.51182e-29
-1.71401e-29
-1.93244e-29
-2.2001e-29
-2.57817e-29
-3.15964e-29
-4.06544e-29
-5.42987e-29
-7.37329e-29
-9.96294e-29
-1.31667e-28
-1.68079e-28
-2.05344e-28
-2.3816e-28
-2.59955e-28
-2.64404e-28
-2.48915e-28
-2.21529e-28
-2.11502e-28
-2.79049e-28
-5.15152e-28
-1.02526e-27
-1.88546e-27
-3.05014e-27
-4.37284e-27
-5.54027e-27
-6.18214e-27
-6.54224e-27
-2.75681e-30
-2.87421e-30
-3.1287e-30
-3.54301e-30
-4.14856e-30
-4.97742e-30
-6.05279e-30
-7.37892e-30
-8.93316e-30
-1.06642e-29
-1.25021e-29
-1.43849e-29
-1.63058e-29
-1.83798e-29
-2.09209e-29
-2.45119e-29
-3.00382e-29
-3.86508e-29
-5.16274e-29
-7.01112e-29
-9.47386e-29
-1.25198e-28
-1.59804e-28
-1.95197e-28
-2.26327e-28
-2.46936e-28
-2.51017e-28
-2.36202e-28
-2.10544e-28
-2.03049e-28
-2.73352e-28
-5.11175e-28
-1.01977e-27
-1.87262e-27
-3.01741e-27
-4.29797e-27
-5.39571e-27
-5.91704e-27
-6.21657e-27
-2.61132e-30
-2.72251e-30
-2.96361e-30
-3.35621e-30
-3.93015e-30
-4.71585e-30
-5.73527e-30
-6.99238e-30
-8.46554e-30
-1.01059e-29
-1.18468e-29
-1.36292e-29
-1.54464e-29
-1.74073e-29
-1.98096e-29
-2.32059e-29
-2.84358e-29
-3.65905e-29
-4.88799e-29
-6.63859e-29
-8.97079e-29
-1.18546e-28
-1.51297e-28
-1.84772e-28
-2.14179e-28
-2.33585e-28
-2.37305e-28
-2.23181e-28
-1.99213e-28
-1.93983e-28
-2.66232e-28
-5.03962e-28
-1.0077e-27
-1.84806e-27
-2.96651e-27
-4.19745e-27
-5.21725e-27
-5.60433e-27
-5.85989e-27
-2.46184e-30
-2.56667e-30
-2.794e-30
-3.16427e-30
-3.70569e-30
-4.44696e-30
-5.4088e-30
-6.59486e-30
-7.98459e-30
-9.53168e-30
-1.1173e-29
-1.28524e-29
-1.45634e-29
-1.64086e-29
-1.86688e-29
-2.18659e-29
-2.6792e-29
-3.44766e-29
-4.60607e-29
-6.25629e-29
-8.45455e-29
-1.11721e-28
-1.42572e-28
-1.74086e-28
-2.01737e-28
-2.19925e-28
-2.23293e-28
-2.09878e-28
-1.87558e-28
-1.84312e-28
-2.57652e-28
-4.93379e-28
-9.88744e-28
-1.81127e-27
-2.89686e-27
-4.07106e-27
-5.00533e-27
-5.24164e-27
-5.51692e-27
-2.30862e-30
-2.40692e-30
-2.62013e-30
-2.96749e-30
-3.47551e-30
-4.17116e-30
-5.07385e-30
-6.18696e-30
-7.49104e-30
-8.94243e-30
-1.04816e-29
-1.20556e-29
-1.36581e-29
-1.53851e-29
-1.75004e-29
-2.04938e-29
-2.51092e-29
-3.23127e-29
-4.31744e-29
-5.86484e-29
-7.92596e-29
-1.04734e-28
-1.33644e-28
-1.63156e-28
-1.89021e-28
-2.05978e-28
-2.09005e-28
-1.96318e-28
-1.75603e-28
-1.74053e-28
-2.47595e-28
-4.79334e-28
-9.62693e-28
-1.7619e-27
-2.80809e-27
-3.91898e-27
-4.76133e-27
-4.82412e-27
-4.84767e-27
-2.15189e-30
-2.24351e-30
-2.44227e-30
-2.76616e-30
-3.23998e-30
-3.88887e-30
-4.73096e-30
-5.7693e-30
-6.98564e-30
-8.33905e-30
-9.77371e-30
-1.124e-29
-1.27317e-29
-1.43384e-29
-1.63061e-29
-1.9092e-29
-2.33902e-29
-3.01021e-29
-4.02254e-29
-5.46485e-29
-7.38585e-29
-9.75963e-29
-1.24525e-28
-1.52e-28
-1.76051e-28
-1.91768e-28
-1.94466e-28
-1.82527e-28
-1.63377e-28
-1.63228e-28
-2.36064e-28
-4.61778e-28
-9.29423e-28
-1.69972e-27
-2.70008e-27
-3.74181e-27
-4.48786e-27
-4.35768e-27
-3.89278e-27
-1.99189e-30
-2.0767e-30
-2.26069e-30
-2.56061e-30
-2.99945e-30
-3.60054e-30
-4.38064e-30
-5.34252e-30
-6.46916e-30
-7.72245e-30
-9.05045e-30
-1.04069e-29
-1.17859e-29
-1.32702e-29
-1.50879e-29
-1.76626e-29
-2.16378e-29
-2.78484e-29
-3.72184e-29
-5.05695e-29
-6.83504e-29
-9.03181e-29
-1.15231e-28
-1.40633e-28
-1.62846e-28
-1.77315e-28
-1.79697e-28
-1.68529e-28
-1.50906e-28
-1.51869e-28
-2.23081e-28
-4.40711e-28
-8.88902e-28
-1.62467e-27
-2.57291e-27
-3.54055e-27
-4.18874e-27
-3.85585e-27
-2.65634e-27
-1.82887e-30
-1.90673e-30
-2.07568e-30
-2.35115e-30
-2.75431e-30
-3.30661e-30
-4.02343e-30
-4.90728e-30
-5.94239e-30
-7.09357e-30
-8.31289e-30
-9.55762e-30
-1.08221e-29
-1.21822e-29
-1.38476e-29
-1.62079e-29
-1.98546e-29
-2.55551e-29
-3.41581e-29
-4.64175e-29
-6.27438e-29
-8.29106e-29
-1.05773e-28
-1.29074e-28
-1.49426e-28
-1.6264e-28
-1.64722e-28
-1.54348e-28
-1.3822e-28
-1.40012e-28
-2.0869e-28
-4.16179e-28
-8.41192e-28
-1.53687e-27
-2.42693e-27
-3.31647e-27
-3.86871e-27
-3.34169e-27
-1.00006e-27
-1.66308e-30
-1.73388e-30
-1.88751e-30
-2.1381e-30
-2.50492e-30
-3.00752e-30
-3.65988e-30
-4.46423e-30
-5.40612e-30
-6.45338e-30
-7.56216e-30
-8.69337e-30
-9.84162e-30
-1.1076e-29
-1.25872e-29
-1.47302e-29
-1.80435e-29
-2.32258e-29
-3.10491e-29
-4.21989e-29
-5.70468e-29
-7.53844e-29
-9.61673e-29
-1.17337e-28
-1.35809e-28
-1.47765e-28
-1.49562e-28
-1.4001e-28
-1.25351e-28
-1.27704e-28
-1.92958e-28
-3.88279e-28
-7.86452e-28
-1.43656e-27
-2.26266e-27
-3.07109e-27
-3.53292e-27
-2.85494e-27
3.18477e-30
-1.49477e-30
-1.55841e-30
-1.6965e-30
-1.92179e-30
-2.25168e-30
-2.70375e-30
-3.29056e-30
-4.01407e-30
-4.86119e-30
-5.80285e-30
-6.79941e-30
-7.81552e-30
-8.84613e-30
-9.95331e-30
-1.13087e-29
-1.32318e-29
-1.62073e-29
-2.0864e-29
-2.78962e-29
-3.79199e-29
-5.12678e-29
-6.77505e-29
-8.64258e-29
-1.0544e-28
-1.22014e-28
-1.32709e-28
-1.34238e-28
-1.25536e-28
-1.12329e-28
-1.14996e-28
-1.75969e-28
-3.57152e-28
-7.24937e-28
-1.32418e-27
-2.08084e-27
-2.80605e-27
-3.18563e-27
-2.41247e-27
5.60785e-28
-1.32421e-30
-1.38059e-30
-1.50292e-30
-1.70257e-30
-1.99498e-30
-2.39575e-30
-2.91602e-30
-3.55747e-30
-4.30842e-30
-5.14297e-30
-6.02581e-30
-6.92541e-30
-7.83715e-30
-8.81597e-30
-1.00142e-29
-1.17151e-29
-1.4349e-29
-1.84734e-29
-2.47042e-29
-3.35868e-29
-4.54152e-29
-6.00195e-29
-7.65622e-29
-9.33971e-29
-1.08058e-28
-1.17491e-28
-1.18771e-28
-1.10951e-28
-9.91862e-29
-1.01944e-28
-1.57829e-28
-3.22989e-28
-6.56997e-28
-1.2003e-27
-1.88239e-27
-2.52301e-27
-2.82991e-27
-2.01776e-27
8.30843e-28
-1.15166e-30
-1.20069e-30
-1.30707e-30
-1.48076e-30
-1.7352e-30
-2.084e-30
-2.53684e-30
-3.09514e-30
-3.74867e-30
-4.47476e-30
-5.24255e-30
-6.02442e-30
-6.81622e-30
-7.66571e-30
-8.7055e-30
-1.01825e-29
-1.24713e-29
-1.60578e-29
-2.14778e-29
-2.92059e-29
-3.9497e-29
-5.22019e-29
-6.65897e-29
-8.12255e-29
-9.39603e-29
-1.0213e-28
-1.03179e-28
-9.62741e-29
-8.5956e-29
-8.86108e-29
-1.3866e-28
-2.86026e-28
-5.8307e-28
-1.06564e-27
-1.6684e-27
-2.22365e-27
-2.46773e-27
-1.66744e-27
9.10603e-28
-9.77385e-31
-1.01899e-30
-1.10926e-30
-1.25671e-30
-1.47277e-30
-1.76899e-30
-2.15361e-30
-2.62779e-30
-3.18278e-30
-3.79925e-30
-4.45083e-30
-5.11395e-30
-5.78495e-30
-6.50434e-30
-7.38483e-30
-8.63628e-30
-1.05773e-29
-1.36206e-29
-1.82218e-29
-2.47835e-29
-3.35216e-29
-4.43083e-29
-5.65213e-29
-6.894e-29
-7.97368e-29
-8.66437e-29
-8.74813e-29
-8.15277e-29
-7.26703e-29
-7.5064e-29
-1.18604e-28
-2.46538e-28
-5.03684e-28
-9.2109e-28
-1.44016e-27
-1.90965e-27
-2.1002e-27
-1.35485e-27
8.73996e-28
-8.01647e-31
-8.35771e-31
-9.09801e-31
-1.03076e-30
-1.20807e-30
-1.4512e-30
-1.76691e-30
-2.15613e-30
-2.61164e-30
-3.11746e-30
-3.65187e-30
-4.19539e-30
-4.74492e-30
-5.33368e-30
-6.05423e-30
-7.079e-30
-8.66979e-30
-1.11658e-29
-1.49409e-29
-2.03258e-29
-2.74972e-29
-3.63492e-29
-4.63699e-29
-5.65558e-29
-6.54047e-29
-7.10508e-29
-7.16954e-29
-6.6731e-29
-5.9361e-29
-6.13736e-29
-9.78163e-29
-2.04843e-28
-4.19444e-28
-7.67643e-28
-1.19907e-27
-1.58273e-27
-1.72791e-27
-1.07237e-27
7.70236e-28
-6.24717e-31
-6.51308e-31
-7.08988e-31
-8.03273e-31
-9.41518e-31
-1.13113e-30
-1.37735e-30
-1.6809e-30
-2.03611e-30
-2.43045e-30
-2.8469e-30
-3.27017e-30
-3.69776e-30
-4.15556e-30
-4.71578e-30
-5.51307e-30
-6.75184e-30
-8.69689e-30
-1.16401e-29
-1.58392e-29
-2.14319e-29
-2.8335e-29
-3.61482e-29
-4.40879e-29
-5.09807e-29
-5.53679e-29
-5.58382e-29
-5.1903e-29
-4.60596e-29
-4.76125e-29
-7.64642e-29
-1.6129e-28
-3.31032e-28
-6.06439e-28
-9.46705e-28
-1.24464e-27
-1.35115e-27
-8.12792e-28
6.2574e-28
-4.46866e-31
-4.65887e-31
-5.07135e-31
-5.74591e-31
-6.73529e-31
-8.09252e-31
-9.85517e-31
-1.20283e-30
-1.45708e-30
-1.73927e-30
-2.03716e-30
-2.33971e-30
-2.6451e-30
-2.97182e-30
-3.3716e-30
-3.94095e-30
-4.82638e-30
-6.21769e-30
-8.32401e-30
-1.133e-29
-1.53339e-29
-2.0276e-29
-2.5869e-29
-3.1551e-29
-3.64809e-29
-3.96117e-29
-3.99262e-29
-3.70613e-29
-3.27964e-29
-3.3855e-29
-5.47271e-29
-1.1626e-28
-2.39191e-28
-4.38728e-28
-6.84771e-28
-8.97202e-28
-9.7015e-28
-5.69706e-28
4.60135e-28
-2.68366e-31
-2.79788e-31
-3.04551e-31
-3.45068e-31
-4.04514e-31
-4.86081e-31
-5.92024e-31
-7.22638e-31
-8.75442e-31
-1.045e-30
-1.22389e-30
-1.40547e-30
-1.58858e-30
-1.78432e-30
-2.02379e-30
-2.36508e-30
-2.89637e-30
-3.7319e-30
-4.99753e-30
-6.80432e-30
-9.21137e-30
-1.21825e-29
-1.55447e-29
-1.89599e-29
-2.19216e-29
-2.37986e-29
-2.39751e-29
-2.22226e-29
-1.96003e-29
-2.01761e-29
-3.2792e-29
-7.0159e-29
-1.44724e-28
-2.65867e-28
-4.151e-28
-5.42342e-28
-5.85162e-28
-3.37734e-28
2.81175e-28
-8.94901e-32
-9.32959e-32
-1.01548e-31
-1.15058e-31
-1.34889e-31
-1.6211e-31
-1.97475e-31
-2.4108e-31
-2.92093e-31
-3.48685e-31
-4.08368e-31
-4.68892e-31
-5.29848e-31
-5.94917e-31
-6.74482e-31
-7.87946e-31
-9.64799e-31
-1.24326e-30
-1.66544e-30
-2.26853e-30
-3.07231e-30
-4.06473e-30
-5.18802e-30
-6.3291e-30
-7.31857e-30
-7.94488e-30
-8.00014e-30
-7.40289e-30
-6.49904e-30
-6.65008e-30
-1.08511e-29
-2.34115e-29
-4.84761e-29
-8.93032e-29
-1.39631e-28
-1.8207e-28
-1.96563e-28
-1.12299e-28
9.45099e-29
-1.13124e-20
-6.00493e-21
-3.7346e-21
-1.38894e-21
-1.63637e-21
-6.18751e-22
-3.21173e-22
-1.70137e-22
-1.05817e-22
-8.54819e-23
-3.28605e-23
-1.66784e-23
-9.39233e-24
-6.21183e-24
-4.21379e-24
-1.53297e-24
-6.80712e-25
-2.95235e-25
-9.4562e-26
3.44204e-26
1.36704e-25
1.73548e-25
1.86038e-25
1.88785e-25
1.87e-25
)
;

boundaryField
{
    fixedWallsLeftTop
    {
        type            zeroGradient;
    }
    backFaceLeftTop
    {
        type            zeroGradient;
    }
    frontFaceLeftTop
    {
        type            zeroGradient;
    }
    symmetryWallLeftTop
    {
        type            fixedValue;
        value           uniform 0;
    }
    topToBottom
    {
        type            zeroGradient;
    }
    plug
    {
        type            cyclicAMI;
        value           nonuniform List<scalar> 
40
(
7.70106e-26
7.72315e-26
7.75769e-26
7.79832e-26
8.68881e-26
7.90997e-26
7.89687e-26
7.88941e-26
7.95382e-26
7.95933e-26
7.96547e-26
7.9844e-26
8.00952e-26
8.83386e-26
7.99827e-26
7.97079e-26
7.85784e-26
7.8495e-26
7.84207e-26
7.83555e-26
7.84203e-26
7.85484e-26
8.62656e-26
7.7473e-26
7.29264e-26
7.26154e-26
7.24387e-26
7.22756e-26
7.21263e-26
7.21071e-26
7.21573e-26
7.93266e-26
5.46934e-26
5.43311e-26
5.40467e-26
5.38975e-26
5.37836e-26
5.37035e-26
5.3713e-26
5.37926e-26
)
;
    }
    fixedWallsChannel
    {
        type            zeroGradient;
    }
    inlet
    {
        type            zeroGradient;
    }
    outlet
    {
        type            cyclicAMI;
        value           nonuniform List<scalar> 5(7.94849e-26 8.11159e-26 7.95713e-26 7.3467e-26 5.39952e-26);
    }
    backFaceInletChannel
    {
        type            zeroGradient;
    }
    frontFaceInletChannel
    {
        type            zeroGradient;
    }
}


// ************************************************************************* //
