/*--------------------------------*- C++ -*----------------------------------*\
| =========                 |                                                 |
| \\      /  F ield         | OpenFOAM: The Open Source CFD Toolbox           |
|  \\    /   O peration     | Version:  4.1                                   |
|   \\  /    A nd           | Web:      www.OpenFOAM.org                      |
|    \\/     M anipulation  |                                                 |
\*---------------------------------------------------------------------------*/
FoamFile
{
    version     2.0;
    format      ascii;
    class       surfaceScalarField;
    location    "6";
    object      phi;
}
// * * * * * * * * * * * * * * * * * * * * * * * * * * * * * * * * * * * * * //

dimensions      [0 3 -1 0 0 0 0];

internalField   nonuniform List<scalar> 
3240
(
-7.88185e-25
-7.99914e-25
1.17333e-26
-7.99909e-25
-7.99909e-25
-7.99919e-25
-8.1987e-25
1.99653e-26
-8.19851e-25
-8.19851e-25
-8.19867e-25
-8.49872e-25
3.00291e-26
-8.49839e-25
-8.4986e-25
-9.07732e-25
5.79055e-26
-9.07683e-25
-9.07683e-25
-9.0771e-25
-9.83643e-25
7.59775e-26
-9.83576e-25
-9.8361e-25
-1.09724e-24
1.13687e-25
-1.09715e-24
-1.09715e-24
-1.0972e-24
-1.24623e-24
1.49107e-25
-1.24612e-24
-1.24612e-24
-1.24617e-24
-1.44468e-24
1.98587e-25
-1.44455e-24
-1.4446e-24
-1.7172e-24
2.72696e-25
-1.71704e-24
-1.71704e-24
-1.71711e-24
-2.08204e-24
3.65042e-25
-2.08185e-24
-2.08193e-24
-2.57304e-24
4.91243e-25
-2.57282e-24
-2.57282e-24
-2.42896e-24
-2.28472e-24
-2.14082e-24
-1.93388e-24
-1.38435e-24
-4.69546e-25
-1.19021e-24
-1.0435e-24
-8.97686e-25
-7.87918e-25
-6.78122e-25
-5.69614e-25
-4.60646e-25
-2.91137e-25
1.25155e-25
-3.96919e-25
2.85421e-25
3.96353e-25
4.68483e-25
5.41876e-25
6.15534e-25
6.88692e-25
7.62952e-25
8.94543e-25
1.25759e-24
-4.04505e-25
1.38425e-24
1.37902e-24
1.37385e-24
1.37017e-24
1.36725e-24
1.36436e-24
1.36286e-24
1.41338e-24
1.69052e-24
-4.35341e-25
1.42571e-24
1.1162e-24
8.06817e-25
4.98761e-25
1.91092e-25
-1.16965e-25
-4.25289e-25
-7.12934e-25
-6.34529e-25
-7.9236e-26
-5.52625e-25
-8.16596e-26
-5.52526e-25
-4.79606e-25
-7.28541e-26
-4.79525e-25
-4.08708e-25
-7.07947e-26
-3.62572e-25
-4.59996e-26
-3.6252e-25
-3.13832e-25
-4.86725e-26
-2.85147e-25
-2.85915e-26
-2.85109e-25
-2.52681e-25
-3.24021e-26
-2.52647e-25
-2.1782e-25
-3.48176e-26
-1.96232e-25
-2.15288e-26
-1.96201e-25
-1.72101e-25
-2.40855e-26
-1.7207e-25
-1.4783e-25
-2.42345e-26
-1.30267e-25
-1.75161e-26
-1.30233e-25
-1.12548e-25
-1.76809e-26
-9.87957e-26
-1.37075e-26
-9.87565e-26
-8.47421e-26
-1.40096e-26
-8.47001e-26
-7.27065e-26
-1.19916e-26
-6.14064e-26
-1.12525e-26
-6.13592e-26
-5.07118e-26
-1.06453e-26
-5.06621e-26
-4.23703e-26
-8.29087e-27
-3.31081e-26
-9.21041e-27
-3.30548e-26
-2.50194e-26
-8.03482e-27
-1.66428e-26
-8.3228e-27
-1.65874e-26
-7.99568e-27
-8.59112e-27
-7.93974e-27
-7.93951e-27
7.46443e-30
-7.46443e-30
1.5214e-29
-7.75461e-30
2.35547e-29
-8.34472e-30
3.28101e-29
-9.25685e-30
4.33386e-29
-1.05256e-29
5.55458e-29
-1.21989e-29
6.98994e-29
-1.43397e-29
8.69468e-29
-1.70291e-29
1.07335e-28
-2.03691e-29
1.31837e-28
-2.44881e-29
1.61383e-28
-2.95455e-29
1.971e-28
-3.57396e-29
2.40359e-28
-4.33155e-29
2.9284e-28
-5.25744e-29
3.56598e-28
-6.38846e-29
4.34151e-28
-7.76931e-29
5.28573e-28
-9.45377e-29
6.43603e-28
-1.15061e-28
7.83754e-28
-1.40027e-28
9.54449e-28
-1.7034e-28
1.16216e-27
-2.07071e-28
1.41456e-27
-2.51495e-28
1.72076e-27
-3.05137e-28
2.09156e-27
-3.69835e-28
2.53979e-27
-4.47796e-28
3.08074e-27
-5.41622e-28
3.73262e-27
-6.54254e-28
4.51676e-27
-7.8869e-28
5.45727e-27
-9.47321e-28
6.57932e-27
-1.13048e-27
7.90442e-27
-1.33358e-27
9.44017e-27
-1.54166e-27
1.11599e-26
-1.71968e-27
1.2966e-26
-1.79652e-27
1.46303e-26
-1.64257e-27
1.57145e-26
-1.0499e-27
1.55156e-26
2.44299e-28
1.31636e-26
2.40431e-27
5.27872e-27
7.4557e-30
-1.49243e-29
1.51966e-29
-1.55018e-29
2.35277e-29
-1.66768e-29
3.27725e-29
-1.84946e-29
4.32886e-29
-2.10252e-29
5.54815e-29
-2.43658e-29
6.98185e-29
-2.86446e-29
8.68462e-29
-3.40257e-29
1.07211e-28
-4.07158e-29
1.31685e-28
-4.89721e-29
1.61197e-28
-5.91127e-29
1.96871e-28
-7.15292e-29
2.4008e-28
-8.67021e-29
2.92498e-28
-1.05219e-28
3.5618e-28
-1.27799e-28
4.33641e-28
-1.55316e-28
5.27952e-28
-1.88831e-28
6.42846e-28
-2.2963e-28
7.82835e-28
-2.79265e-28
9.53336e-28
-3.39605e-28
1.16081e-27
-4.12893e-28
1.41294e-27
-5.0182e-28
1.71882e-27
-6.09591e-28
2.08922e-27
-7.40009e-28
2.53698e-27
-8.97521e-28
3.07739e-27
-1.08719e-27
3.72864e-27
-1.3145e-27
4.5121e-27
-1.5848e-27
5.45198e-27
-1.90201e-27
6.57365e-27
-2.26591e-27
7.89903e-27
-2.66681e-27
9.43654e-27
-3.07512e-27
1.11609e-26
-3.42237e-27
1.29769e-26
-3.56918e-27
1.46593e-26
-3.25927e-27
1.5772e-26
-2.07803e-27
1.56075e-26
5.06037e-28
1.32832e-26
4.8339e-27
1.00616e-26
7.43261e-30
-2.2361e-29
1.51496e-29
-2.32248e-29
2.3455e-29
-2.49832e-29
3.26712e-29
-2.77043e-29
4.3155e-29
-3.14934e-29
5.53103e-29
-3.64966e-29
6.96032e-29
-4.2907e-29
8.65786e-29
-5.09715e-29
1.06881e-28
-6.10005e-29
1.3128e-28
-7.33798e-29
1.607e-28
-8.85854e-29
1.96264e-28
-1.07202e-28
2.39339e-28
-1.29945e-28
2.91595e-28
-1.5769e-28
3.55079e-28
-1.91505e-28
4.323e-28
-2.32692e-28
5.2632e-28
-2.82837e-28
6.4086e-28
-3.43867e-28
7.80421e-28
-4.1812e-28
9.50405e-28
-5.08422e-28
1.15726e-27
-6.1818e-28
1.40863e-27
-7.51484e-28
1.7136e-27
-9.13204e-28
2.08292e-27
-1.10909e-27
2.5294e-27
-1.34583e-27
3.0683e-27
-1.63094e-27
3.71783e-27
-1.97251e-27
4.49941e-27
-2.37833e-27
5.43743e-27
-2.85401e-27
6.55761e-27
-3.39911e-27
7.8827e-27
-3.99932e-27
9.42265e-27
-4.61124e-27
1.11551e-26
-5.13425e-27
1.29893e-26
-5.36247e-27
1.47065e-26
-4.91451e-27
1.58753e-26
-3.16722e-27
1.57806e-26
6.91889e-28
1.34923e-26
7.22117e-27
1.53167e-26
7.39806e-30
-2.97629e-29
1.50792e-29
-3.09118e-29
2.33462e-29
-3.32511e-29
3.25197e-29
-3.68716e-29
4.29549e-29
-4.19137e-29
5.50539e-29
-4.85722e-29
6.92806e-29
-5.71046e-29
8.61774e-29
-6.78399e-29
1.06386e-28
-8.11918e-29
1.30671e-28
-9.76739e-29
1.59956e-28
-1.17919e-28
1.95355e-28
-1.42704e-28
2.38229e-28
-1.7298e-28
2.90242e-28
-2.09908e-28
3.53432e-28
-2.54907e-28
4.30294e-28
-3.09704e-28
5.23878e-28
-3.7641e-28
6.3789e-28
-4.57591e-28
7.76809e-28
-5.56366e-28
9.46014e-28
-6.76513e-28
1.15192e-27
-8.22593e-28
1.40216e-27
-1.00008e-27
1.70576e-27
-1.2155e-27
2.07345e-27
-1.47654e-27
2.51799e-27
-1.7921e-27
3.05463e-27
-2.1722e-27
3.7016e-27
-2.62756e-27
4.48039e-27
-3.16851e-27
5.41562e-27
-3.80258e-27
6.53361e-27
-4.52948e-27
7.85822e-27
-5.33096e-27
9.40173e-27
-6.15095e-27
1.11459e-26
-6.85866e-27
1.30072e-26
-7.18447e-27
1.47764e-26
-6.62447e-27
1.60297e-26
-4.34478e-27
1.60418e-26
7.65878e-28
1.38161e-26
9.54053e-27
2.1178e-26
7.35213e-30
-3.71189e-29
1.49857e-29
-3.8551e-29
2.32014e-29
-4.14677e-29
3.2318e-29
-4.59823e-29
4.26885e-29
-5.22698e-29
5.47126e-29
-6.05736e-29
6.88512e-29
-7.12149e-29
8.56434e-29
-8.46044e-29
1.05726e-28
-1.01258e-28
1.29862e-28
-1.21817e-28
1.58964e-28
-1.4707e-28
1.94144e-28
-1.77984e-28
2.36752e-28
-2.15745e-28
2.88442e-28
-2.61798e-28
3.5124e-28
-3.1791e-28
4.27626e-28
-3.86237e-28
5.20631e-28
-4.69406e-28
6.33939e-28
-5.70623e-28
7.72003e-28
-6.9378e-28
9.40171e-28
-8.43603e-28
1.14482e-27
-1.0258e-27
1.39355e-27
-1.24721e-27
1.69532e-27
-1.51601e-27
2.06083e-27
-1.8418e-27
2.50279e-27
-2.23572e-27
3.03642e-27
-2.71028e-27
3.67996e-27
-3.27889e-27
4.45502e-27
-3.95455e-27
5.38655e-27
-4.74694e-27
6.50155e-27
-5.65636e-27
7.82543e-27
-6.66144e-27
9.37342e-27
-7.69502e-27
1.11329e-26
-8.59869e-27
1.30296e-26
-9.04298e-27
1.48676e-26
-8.40521e-27
1.62341e-26
-5.63864e-27
1.63927e-26
6.89072e-28
1.42815e-26
1.1741e-26
2.63238e-26
7.29486e-30
-4.44175e-29
1.4869e-29
-4.61307e-29
2.30208e-29
-4.96203e-29
3.20665e-29
-5.50222e-29
4.23564e-29
-6.25456e-29
5.4287e-29
-7.24821e-29
6.83156e-29
-8.52159e-29
8.49772e-29
-1.01239e-28
1.04904e-28
-1.21169e-28
1.28851e-28
-1.45772e-28
1.57728e-28
-1.75992e-28
1.92633e-28
-2.12987e-28
2.3491e-28
-2.58174e-28
2.86198e-28
-3.13281e-28
3.48507e-28
-3.80421e-28
4.24299e-28
-4.62172e-28
5.16583e-28
-5.61682e-28
6.29013e-28
-6.82784e-28
7.6601e-28
-8.30144e-28
9.32883e-28
-1.00943e-27
1.13597e-27
-1.22747e-27
1.38279e-27
-1.49248e-27
1.68229e-27
-1.81427e-27
2.04507e-27
-2.20434e-27
2.4838e-27
-2.67607e-27
3.01367e-27
-3.24447e-27
3.65293e-27
-3.92573e-27
4.42333e-27
-4.73561e-27
5.35017e-27
-5.68621e-27
6.46134e-27
-6.77896e-27
7.78408e-27
-7.99037e-27
9.33728e-27
-9.24403e-27
1.11151e-26
-1.03572e-26
1.30552e-26
-1.09454e-26
1.49783e-26
-1.02726e-26
1.64872e-26
-7.07747e-27
1.68348e-26
4.19495e-28
1.48649e-26
1.37961e-26
3.29664e-26
7.22635e-30
-5.16475e-29
1.47294e-29
-5.36392e-29
2.28047e-29
-5.76965e-29
3.17656e-29
-6.39773e-29
4.19589e-29
-7.27252e-29
5.37776e-29
-8.4279e-29
6.76747e-29
-9.90859e-29
8.418e-29
-1.17718e-28
1.0392e-28
-1.40893e-28
1.27643e-28
-1.69502e-28
1.56248e-28
-2.04643e-28
1.90826e-28
-2.47661e-28
2.32705e-28
-3.00203e-28
2.83512e-28
-3.64278e-28
3.45237e-28
-4.42343e-28
4.20319e-28
-5.37396e-28
5.11738e-28
-6.53094e-28
6.23118e-28
-7.939e-28
7.58839e-28
-9.65243e-28
9.24162e-28
-1.17372e-27
1.12537e-27
-1.42728e-27
1.36992e-27
-1.73551e-27
1.66669e-27
-2.10981e-27
2.0262e-27
-2.56362e-27
2.46107e-27
-3.11251e-27
2.98642e-27
-3.77406e-27
3.62054e-27
-4.56724e-27
4.3853e-27
-5.51077e-27
5.30646e-27
-6.61944e-27
6.41289e-27
-7.89637e-27
7.73394e-27
-9.31716e-27
9.29275e-27
-1.07983e-26
1.10916e-26
-1.21365e-26
1.30821e-26
-1.28987e-26
1.51061e-26
-1.2242e-26
1.67871e-26
-8.69068e-27
1.73699e-26
-8.89788e-29
1.56317e-26
1.56158e-26
3.80135e-26
7.14671e-30
-5.87978e-29
1.45671e-29
-6.1065e-29
2.25535e-29
-6.56837e-29
3.14156e-29
-7.28338e-29
4.14968e-29
-8.27926e-29
5.31853e-29
-9.59461e-29
6.69294e-29
-1.12803e-28
8.3253e-29
-1.34015e-28
1.02776e-28
-1.604e-28
1.26237e-28
-1.92971e-28
1.54527e-28
-2.32978e-28
1.88724e-28
-2.81953e-28
2.30142e-28
-3.41769e-28
2.80389e-28
-4.14714e-28
3.41435e-28
-5.03584e-28
4.15691e-28
-6.11791e-28
5.06106e-28
-7.43502e-28
6.16265e-28
-9.03799e-28
7.505e-28
-1.09887e-27
9.14019e-28
-1.33622e-27
1.11304e-27
-1.62494e-27
1.35495e-27
-1.97593e-27
1.64854e-27
-2.4022e-27
2.00425e-27
-2.9191e-27
2.43461e-27
-3.54442e-27
2.9547e-27
-4.29831e-27
3.5828e-27
-5.20259e-27
4.34096e-27
-6.27908e-27
5.25539e-27
-7.54559e-27
6.35606e-27
-9.0076e-27
7.67469e-27
-1.0641e-26
9.23922e-27
-1.23578e-26
1.10611e-26
-1.39386e-26
1.31084e-26
-1.49089e-26
1.52482e-26
-1.43283e-26
1.71312e-26
-1.05082e-26
1.79981e-26
-8.85436e-28
1.65276e-26
1.7164e-26
4.33394e-26
7.05606e-30
-6.58574e-29
1.43824e-29
-6.83965e-29
2.22675e-29
-7.35696e-29
3.10173e-29
-8.15781e-29
4.09706e-29
-9.27325e-29
5.2511e-29
-1.07465e-28
6.60809e-29
-1.26347e-28
8.21976e-29
-1.50106e-28
1.01473e-28
-1.79659e-28
1.24637e-28
-2.16142e-28
1.52568e-28
-2.60954e-28
1.86332e-28
-3.1581e-28
2.27225e-28
-3.82807e-28
2.76835e-28
-4.6451e-28
3.37106e-28
-5.64048e-28
4.10423e-28
-6.85245e-28
4.99694e-28
-8.32767e-28
6.08462e-28
-1.01231e-27
7.41006e-28
-1.23081e-27
9.0247e-28
-1.49668e-27
1.099e-27
-1.82012e-27
1.3379e-27
-2.21335e-27
1.62786e-27
-2.69098e-27
1.97924e-27
-3.27025e-27
2.40445e-27
-3.97117e-27
2.91853e-27
-4.81646e-27
3.53974e-27
-5.83091e-27
4.2903e-27
-7.03954e-27
5.1969e-27
-8.46357e-27
6.29072e-27
-1.01115e-26
7.60602e-27
-1.19611e-26
9.17599e-27
-1.39222e-26
1.10223e-26
-1.57649e-26
1.31316e-26
-1.69814e-26
1.5401e-26
-1.65453e-26
1.75161e-26
-1.25602e-26
1.872e-26
-2.02312e-27
1.75746e-26
1.83833e-26
4.8965e-26
6.95452e-30
-7.28154e-29
1.41755e-29
-7.56226e-29
2.19471e-29
-8.13421e-29
3.05711e-29
-9.01965e-29
4.03813e-29
-1.02529e-28
5.17558e-29
-1.18819e-28
6.51306e-29
-1.39695e-28
8.10155e-29
-1.65966e-28
1.00013e-28
-1.98642e-28
1.22844e-28
-2.3898e-28
1.50374e-28
-2.88528e-28
1.83652e-28
-3.4918e-28
2.23957e-28
-4.23256e-28
2.72853e-28
-5.1359e-28
3.32259e-28
-6.23644e-28
4.04522e-28
-7.57643e-28
4.92513e-28
-9.20752e-28
5.99722e-28
-1.11927e-27
7.30371e-28
-1.36086e-27
8.89533e-28
-1.65486e-27
1.08327e-27
-2.01253e-27
1.31879e-27
-2.44742e-27
1.60469e-27
-2.97572e-27
1.9512e-27
-3.61653e-27
2.37064e-27
-4.39211e-27
2.87795e-27
-5.32777e-27
3.49139e-27
-6.4513e-27
4.23334e-27
-7.79114e-27
5.13099e-27
-9.37223e-27
6.21674e-27
-1.12069e-26
7.52758e-27
-1.3276e-26
9.10229e-27
-1.54908e-26
1.09737e-26
-1.76157e-26
1.3149e-26
-1.91201e-26
1.55604e-26
-1.89055e-26
1.79376e-26
-1.48769e-26
1.95363e-26
-3.56011e-27
1.87978e-26
1.91916e-26
5.37833e-26
6.84227e-30
-7.9661e-29
1.39467e-29
-8.27321e-29
2.15929e-29
-8.89891e-29
3.00778e-29
-9.86759e-29
3.97297e-29
-1.12168e-28
5.09207e-29
-1.29989e-28
6.40797e-29
-1.52829e-28
7.97084e-29
-1.81569e-28
9.83999e-29
-2.17318e-28
1.20862e-28
-2.6145e-28
1.47948e-28
-3.15656e-28
1.80689e-28
-3.82011e-28
2.20343e-28
-4.63052e-28
2.68451e-28
-5.61879e-28
3.26898e-28
-6.82278e-28
3.97997e-28
-8.28876e-28
4.84572e-28
-1.00732e-27
5.90058e-28
-1.22451e-27
7.18611e-28
-1.48883e-27
8.75226e-28
-1.81051e-27
1.06587e-27
-2.20187e-27
1.29766e-27
-2.67778e-27
1.57906e-27
-3.25598e-27
1.92018e-27
-3.95744e-27
2.33321e-27
-4.80662e-27
2.83301e-27
-5.83149e-27
3.4378e-27
-7.06288e-27
4.17009e-27
-8.53283e-27
5.0576e-27
-1.02704e-26
6.13397e-27
-1.22924e-26
7.43899e-27
-1.45846e-26
9.01729e-27
-1.70624e-26
1.09135e-26
-1.9491e-26
1.31576e-26
-2.13277e-26
1.57215e-26
-2.14195e-26
1.83903e-26
-1.7488e-26
2.04464e-26
-5.55945e-27
2.01814e-26
1.95222e-26
6.02731e-26
6.71947e-30
-8.63839e-29
1.36964e-29
-8.97139e-29
2.12055e-29
-9.64989e-29
2.95381e-29
-1.07003e-28
3.90169e-29
-1.21634e-28
5.00071e-29
-1.40959e-28
6.29301e-29
-1.65727e-28
7.82785e-29
-1.96893e-28
9.66347e-29
-2.3566e-28
1.18694e-28
-2.83517e-28
1.45293e-28
-3.42298e-28
1.77447e-28
-4.14254e-28
2.1639e-28
-5.02135e-28
2.63635e-28
-6.09302e-28
3.21035e-28
-7.39862e-28
3.9086e-28
-8.98832e-28
4.75884e-28
-1.09234e-27
5.79485e-28
-1.32786e-27
7.05744e-28
-1.61452e-27
8.59572e-28
-1.96338e-27
1.04684e-27
-2.38786e-27
1.27453e-27
-2.90408e-27
1.551e-27
-3.53133e-27
1.88621e-27
-4.29244e-27
2.29222e-27
-5.21408e-27
2.78375e-27
-6.32685e-27
3.379e-27
-7.66475e-27
4.10059e-27
-9.26353e-27
4.97672e-27
-1.11567e-26
6.04228e-27
-1.33665e-26
7.33988e-27
-1.58851e-26
8.92015e-27
-1.86352e-26
1.084e-26
-2.13895e-26
1.3154e-26
-2.36055e-26
1.58788e-26
-2.40959e-26
1.88674e-26
-2.04221e-26
2.14496e-26
-8.0903e-27
2.18114e-26
1.92221e-26
6.4409e-26
6.58631e-30
-9.29735e-29
1.3425e-29
-9.65575e-29
2.07853e-29
-1.0386e-28
2.89529e-29
-1.15165e-28
3.82439e-29
-1.30912e-28
4.90164e-29
-1.51712e-28
6.16835e-29
-1.78369e-28
7.67278e-29
-2.11913e-28
9.47204e-29
-2.53638e-28
1.16343e-28
-3.05146e-28
1.42415e-28
-3.68413e-28
1.73932e-28
-4.45859e-28
2.12103e-28
-5.40444e-28
2.58412e-28
-6.55787e-28
3.14676e-28
-7.96307e-28
3.83119e-28
-9.67405e-28
4.66463e-28
-1.17568e-27
5.68019e-28
-1.42918e-27
6.9179e-28
-1.73773e-27
8.42593e-28
-2.11325e-27
1.02619e-27
-2.5702e-27
1.24944e-27
-3.12596e-27
1.52055e-27
-3.80135e-27
1.84934e-27
-4.62102e-27
2.24771e-27
-5.61387e-27
2.73023e-27
-6.81313e-27
3.31505e-27
-8.256e-27
4.02487e-27
-9.98216e-27
4.88833e-27
-1.20299e-26
5.94154e-27
-1.44277e-26
7.22988e-27
-1.71757e-26
8.80998e-27
-2.02073e-26
1.07514e-26
-2.33091e-26
1.31344e-26
-2.59526e-26
1.60258e-26
-2.69405e-26
1.93607e-26
-2.37058e-26
2.25421e-26
-1.12262e-26
2.36188e-26
1.82033e-26
7.04994e-26
6.443e-30
-9.94197e-29
1.31329e-29
-1.03252e-28
2.03331e-29
-1.11061e-28
2.8323e-29
-1.2315e-28
3.74119e-29
-1.39989e-28
4.79502e-29
-1.62231e-28
6.03417e-29
-1.90736e-28
7.50588e-29
-2.26607e-28
9.266e-29
-2.71225e-28
1.13812e-28
-3.26306e-28
1.39317e-28
-3.9396e-28
1.70148e-28
-4.76776e-28
2.0749e-28
-5.7792e-28
2.52792e-28
-7.01261e-28
3.07832e-28
-8.51525e-28
3.74788e-28
-1.03449e-27
4.56323e-28
-1.25721e-27
5.55677e-28
-1.5283e-27
6.76769e-28
-1.85827e-27
8.24315e-28
-2.25988e-27
1.00396e-27
-2.74861e-27
1.22243e-27
-3.34309e-27
1.48777e-27
-4.06562e-27
1.80963e-27
-4.94269e-27
2.19974e-27
-6.00537e-27
2.67252e-27
-7.28956e-27
3.246e-27
-8.83572e-27
3.94295e-27
-1.06876e-26
4.79242e-27
-1.28887e-26
5.83162e-27
-1.54743e-26
7.10861e-27
-1.84542e-26
8.68591e-27
-2.17758e-26
1.06457e-26
-2.52467e-26
1.30949e-26
-2.83663e-26
1.61552e-26
-2.99559e-26
1.98599e-26
-2.7363e-26
2.37193e-26
-1.50462e-26
2.57105e-26
1.62664e-26
7.19511e-26
6.28976e-30
-1.05713e-28
1.28206e-29
-1.09788e-28
1.98495e-29
-1.1809e-28
2.76494e-29
-1.30945e-28
3.65222e-29
-1.4885e-28
4.68099e-29
-1.72499e-28
5.89068e-29
-2.02809e-28
7.3274e-29
-2.40951e-28
9.04568e-29
-2.88394e-28
1.11106e-28
-3.46962e-28
1.36005e-28
-4.18899e-28
1.66102e-28
-5.06958e-28
2.02556e-28
-6.14505e-28
2.46781e-28
-7.45654e-28
3.00513e-28
-9.05431e-28
3.65879e-28
-1.09998e-27
4.4548e-28
-1.3368e-27
5.42478e-28
-1.62507e-27
6.60704e-28
-1.97595e-27
8.04765e-28
-2.40305e-27
9.80178e-28
-2.92282e-27
1.19353e-27
-3.55513e-27
1.45268e-27
-4.32374e-27
1.76712e-27
-5.25694e-27
2.14837e-27
-6.38797e-27
2.61067e-27
-7.7554e-27
3.17192e-27
-9.40302e-27
3.85491e-27
-1.13788e-26
4.68899e-27
-1.37316e-26
5.71243e-27
-1.65046e-26
6.97575e-27
-1.97184e-26
8.54708e-27
-2.33378e-26
1.05209e-26
-2.7198e-26
1.30313e-26
-3.08417e-26
1.62589e-26
-3.31406e-26
2.03526e-26
-3.1413e-26
2.49718e-26
-1.96325e-26
2.79377e-26
1.33519e-26
7.57572e-26
6.12681e-30
-1.11842e-28
1.24884e-29
-1.16154e-28
1.93353e-29
-1.24938e-28
2.69332e-29
-1.38538e-28
3.55762e-29
-1.57481e-28
4.55975e-29
-1.82502e-28
5.73812e-29
-2.14569e-28
7.13763e-29
-2.54923e-28
8.81141e-29
-3.05118e-28
1.08228e-28
-3.67083e-28
1.32482e-28
-4.43193e-28
1.61801e-28
-5.36359e-28
1.9731e-28
-6.50144e-28
2.4039e-28
-7.88899e-28
2.92731e-28
-9.57942e-28
3.56406e-28
-1.16377e-27
4.33949e-28
-1.41434e-27
5.28442e-28
-1.71934e-27
6.4362e-28
-2.0906e-27
7.83974e-28
-2.54253e-27
9.54886e-28
-3.09257e-27
1.16278e-27
-3.76175e-27
1.41536e-27
-4.57531e-27
1.72188e-27
-5.56329e-27
2.09367e-27
-6.76108e-27
2.54477e-27
-8.20993e-27
3.0929e-27
-9.95697e-27
3.76079e-27
-1.20545e-26
4.57808e-27
-1.45573e-26
5.58388e-27
-1.75166e-26
6.83097e-27
-2.09656e-26
8.39267e-27
-2.48894e-26
1.03752e-26
-2.91577e-26
1.29393e-26
-3.33716e-26
1.63281e-26
-3.64886e-26
2.08239e-26
-3.5869e-26
2.62911e-26
-2.50736e-26
3.04339e-26
9.25865e-27
8.4593e-26
5.95442e-30
-1.178e-28
1.21371e-29
-1.22341e-28
1.87913e-29
-1.31593e-28
2.61755e-29
-1.45917e-28
3.45754e-29
-1.65869e-28
4.43148e-29
-1.92223e-28
5.5767e-29
-2.25999e-28
6.93685e-29
-2.68503e-28
8.56355e-29
-3.21372e-28
1.05184e-28
-3.86638e-28
1.28756e-28
-4.66803e-28
1.57249e-28
-5.64934e-28
1.9176e-28
-6.8478e-28
2.33628e-28
-8.30928e-28
2.84498e-28
-1.00898e-27
3.46384e-28
-1.22578e-27
4.21749e-28
-1.4897e-27
5.13592e-28
-1.81096e-27
6.25543e-28
-2.20204e-27
7.61973e-28
-2.67811e-27
9.28118e-28
-3.25757e-27
1.13024e-27
-3.96263e-27
1.37584e-27
-4.81993e-27
1.67397e-27
-5.86125e-27
2.03572e-27
-7.12411e-27
2.47489e-27
-8.65242e-27
3.009e-27
-1.04967e-26
3.66068e-27
-1.27136e-26
4.4597e-27
-1.53642e-26
5.44592e-27
-1.85084e-26
6.67402e-27
-2.21932e-26
8.22194e-27
-2.64267e-26
1.02066e-26
-3.11193e-26
1.28147e-26
-3.59461e-26
1.63529e-26
-3.99886e-26
2.12557e-26
-4.07363e-26
2.76644e-26
-3.14631e-26
3.34469e-26
3.52476e-27
8.31382e-26
5.77286e-30
-1.23576e-28
1.1767e-29
-1.28339e-28
1.82184e-29
-1.38045e-28
2.53774e-29
-1.53071e-28
3.35212e-29
-1.74001e-28
4.29637e-29
-2.01647e-28
5.40668e-29
-2.3708e-28
6.72537e-29
-2.81668e-28
8.30248e-29
-3.3713e-28
1.01977e-28
-4.05598e-28
1.2483e-28
-4.89694e-28
1.52455e-28
-5.92637e-28
1.85914e-28
-7.18361e-28
2.26506e-28
-8.71676e-28
2.75826e-28
-1.05846e-27
3.35827e-28
-1.2859e-27
4.08898e-28
-1.56277e-27
4.97948e-28
-1.8998e-27
6.065e-28
-2.3101e-27
7.38794e-28
-2.80959e-27
8.99916e-28
-3.41759e-27
1.09595e-27
-4.15746e-27
1.33418e-27
-5.05723e-27
1.62345e-27
-6.15035e-27
1.97458e-27
-7.47648e-27
2.40112e-27
-9.08215e-27
2.92032e-27
-1.10213e-26
3.55466e-27
-1.33551e-26
4.33394e-27
-1.61508e-26
5.29852e-27
-1.94779e-26
6.50468e-27
-2.33982e-26
8.03424e-27
-2.7945e-26
1.00135e-26
-3.30753e-26
1.2653e-26
-3.85528e-26
1.6323e-26
-4.36229e-26
2.16267e-26
-4.60087e-26
2.90639e-26
-3.88882e-26
3.66312e-26
-3.99335e-27
8.72548e-26
5.58239e-30
-1.29161e-28
1.13788e-29
-1.34139e-28
1.76173e-29
-1.44284e-28
2.45402e-29
-1.59989e-28
3.24154e-29
-1.81865e-28
4.15464e-29
-2.10761e-28
5.22833e-29
-2.47796e-28
6.50352e-29
-2.944e-28
8.02861e-29
-3.52369e-28
9.86135e-29
-4.23932e-28
1.20713e-28
-5.1183e-28
1.47426e-28
-6.19427e-28
1.79781e-28
-7.50835e-28
2.19035e-28
-9.11081e-28
2.66728e-28
-1.10631e-27
3.24752e-28
-1.34403e-27
3.95417e-28
-1.63343e-27
4.81537e-28
-1.98572e-27
5.8652e-28
-2.4146e-27
7.14474e-28
-2.93674e-27
8.70321e-28
-3.57237e-27
1.05996e-27
-4.34594e-27
1.29046e-27
-5.28682e-27
1.57041e-27
-6.43015e-27
1.91036e-27
-7.81763e-27
2.32355e-27
-9.49842e-27
2.82696e-27
-1.15298e-26
3.44283e-27
-1.39777e-26
4.20085e-27
-1.69157e-26
5.14171e-27
-2.04231e-26
6.32281e-27
-2.45775e-26
7.82902e-27
-2.94395e-26
9.79443e-27
-3.50174e-26
1.24502e-26
-4.11768e-26
1.62276e-26
-4.73675e-26
2.19116e-26
-5.16656e-26
3.04598e-26
-4.74311e-26
4.02808e-26
-1.37628e-26
9.88007e-26
5.38331e-30
-1.34547e-28
1.0973e-29
-1.39733e-28
1.69891e-29
-1.503e-28
2.36651e-29
-1.6666e-28
3.12595e-29
-1.89449e-28
4.00651e-29
-2.1955e-28
5.04191e-29
-2.58129e-28
6.27164e-29
-3.06677e-28
7.74236e-29
-3.67064e-28
9.50976e-29
-4.41612e-28
1.16409e-28
-5.33177e-28
1.4217e-28
-6.45262e-28
1.73371e-28
-7.82152e-28
2.11226e-28
-9.49083e-28
2.5722e-28
-1.15246e-27
3.13176e-28
-1.4001e-27
3.81325e-28
-1.70157e-27
4.64381e-28
-2.06858e-27
5.65635e-28
-2.51539e-27
6.89049e-28
-3.05939e-27
8.39378e-28
-3.72168e-27
1.02232e-27
-4.52776e-27
1.24472e-27
-5.50835e-27
1.51491e-27
-6.70019e-27
1.84313e-27
-8.147e-27
2.24229e-27
-9.90054e-27
2.72905e-27
-1.20215e-26
3.3253e-27
-1.45803e-26
4.06056e-27
-1.76574e-26
4.97554e-27
-2.13419e-26
6.12833e-27
-2.57278e-26
7.60591e-27
-3.09048e-26
9.54806e-27
-3.69361e-26
1.22026e-26
-4.38007e-26
1.60557e-26
-5.11907e-26
2.2081e-26
-5.76682e-26
3.18066e-26
-5.71583e-26
4.47826e-26
-2.66826e-26
9.47487e-26
5.17593e-30
-1.39725e-28
1.05503e-29
-1.45111e-28
1.63347e-29
-1.56085e-28
2.27536e-29
-1.73075e-28
3.00555e-29
-1.96741e-28
3.85219e-29
-2.28e-28
4.84772e-29
-2.68064e-28
6.03009e-29
-3.18481e-28
7.44417e-29
-3.81194e-28
9.1435e-29
-4.58612e-28
1.11925e-28
-5.53702e-28
1.36694e-28
-6.70103e-28
1.66694e-28
-8.12263e-28
2.03091e-28
-9.85621e-28
2.47314e-28
-1.19682e-27
3.01117e-28
-1.454e-27
3.66645e-28
-1.7671e-27
4.46509e-28
-2.14825e-27
5.43875e-28
-2.61231e-27
6.62557e-28
-3.17733e-27
8.07135e-28
-3.86526e-27
9.83097e-28
-4.70265e-27
1.19705e-27
-5.72147e-27
1.45703e-27
-6.96003e-27
1.77298e-27
-8.46406e-27
2.15746e-27
-1.02878e-26
2.6267e-27
-1.24954e-26
3.20222e-27
-1.51618e-26
3.91318e-27
-1.83742e-26
4.8001e-27
-2.2232e-26
5.92125e-27
-2.6846e-26
7.36466e-27
-3.23356e-26
9.27348e-27
-3.88217e-26
1.1907e-26
-4.64048e-26
1.57966e-26
-5.50535e-26
2.21015e-26
-6.39545e-26
3.30258e-26
-6.80908e-26
4.96396e-26
-4.32329e-26
9.81873e-26
4.96058e-30
-1.44689e-28
1.01113e-29
-1.50266e-28
1.56551e-29
-1.61629e-28
2.18069e-29
-1.79222e-28
2.88051e-29
-2.03729e-28
3.69193e-29
-2.36099e-28
4.64605e-29
-2.77586e-28
5.77924e-29
-3.29794e-28
7.13449e-29
-3.94735e-28
8.76313e-29
-4.74904e-28
1.07269e-28
-5.73374e-28
1.31008e-28
-6.9391e-28
1.5976e-28
-8.41122e-28
1.94643e-28
-1.02064e-27
2.37027e-28
-1.23935e-27
2.88593e-28
-1.50567e-27
3.51398e-28
-1.8299e-27
4.27946e-28
-2.22462e-27
5.21274e-28
-2.70521e-27
6.3504e-28
-3.29039e-27
7.73639e-28
-4.00291e-27
9.42344e-28
-4.87033e-27
1.14751e-27
-5.92583e-27
1.39687e-27
-7.20927e-27
1.70003e-27
-8.76829e-27
2.06915e-27
-1.06596e-26
2.52004e-27
-1.29507e-26
3.07373e-27
-1.57211e-26
3.75887e-27
-1.90647e-26
4.61554e-27
-2.30913e-26
5.70167e-27
-2.79287e-26
7.10522e-27
-3.37262e-26
8.97015e-27
-4.06635e-26
1.1561e-26
-4.89675e-26
1.54406e-26
-5.89094e-26
2.19362e-26
-7.04356e-26
3.40204e-26
-8.01894e-26
5.52953e-26
-6.44337e-26
8.24626e-26
4.73758e-30
-1.49429e-28
9.65681e-30
-1.55188e-28
1.49513e-29
-1.66924e-28
2.08267e-29
-1.85094e-28
2.75103e-29
-2.10403e-28
3.52598e-29
-2.43833e-28
4.43722e-29
-2.8668e-28
5.51948e-29
-3.40599e-28
6.81382e-29
-4.07668e-28
8.36925e-29
-4.90464e-28
1.02448e-28
-5.92161e-28
1.25119e-28
-7.16648e-28
1.52579e-28
-8.68684e-28
1.85894e-28
-1.05409e-27
2.26374e-28
-1.27996e-27
2.75624e-28
-1.55502e-27
3.35609e-28
-1.88988e-27
4.08723e-28
-2.29756e-27
4.97866e-28
-2.79394e-27
6.06538e-28
-3.39838e-27
7.38942e-28
-4.13441e-27
9.00124e-28
-5.03053e-27
1.09617e-27
-6.12112e-27
1.33451e-27
-7.4475e-27
1.62438e-27
-9.05917e-27
1.97751e-27
-1.10153e-26
2.40922e-27
-1.33866e-26
2.93998e-27
-1.62571e-26
3.5978e-27
-1.97275e-26
4.42204e-27
-2.39177e-26
5.46976e-27
-2.89724e-26
6.82773e-27
-3.5071e-26
8.63799e-27
-4.24509e-26
1.11634e-26
-5.14661e-26
1.49796e-26
-6.27052e-26
2.15461e-26
-7.69916e-26
3.4651e-26
-9.33146e-26
6.11703e-26
-9.08641e-26
7.0501e-26
4.50727e-30
-1.53938e-28
9.18737e-30
-1.59872e-28
1.42246e-29
-1.71961e-28
1.98143e-29
-1.90679e-28
2.61731e-29
-2.16753e-28
3.35459e-29
-2.51192e-28
4.22154e-29
-2.95332e-28
5.2512e-29
-3.50879e-28
6.48263e-29
-4.19973e-28
7.96247e-29
-5.05269e-28
9.74684e-29
-6.10035e-28
1.19038e-28
-7.38281e-28
1.45163e-28
-8.94907e-28
1.76859e-28
-1.08591e-27
2.15372e-28
-1.31861e-27
2.6223e-28
-1.60197e-27
3.19302e-28
-1.94695e-27
3.88868e-28
-2.36696e-27
4.73689e-28
-2.87837e-27
5.77097e-28
-3.50114e-27
7.03097e-28
-4.25955e-27
8.565e-28
-5.183e-27
1.04312e-27
-6.30702e-27
1.27005e-27
-7.67432e-27
1.54613e-27
-9.33622e-27
1.88266e-27
-1.13543e-26
2.2944e-27
-1.38022e-26
2.80117e-27
-1.67688e-26
3.4302e-27
-2.0361e-26
4.21985e-27
-2.4709e-26
5.22582e-27
-2.99741e-26
6.53253e-27
-3.63644e-26
8.27738e-27
-4.41732e-26
1.07138e-26
-5.38772e-26
1.44081e-26
-6.63825e-26
2.08933e-26
-8.34698e-26
3.47496e-26
-1.07197e-25
6.76236e-26
-1.23629e-25
5.6128e-26
4.27001e-30
-1.5821e-28
8.70378e-30
-1.64308e-28
1.34758e-29
-1.76734e-28
1.87714e-29
-1.95971e-28
2.47955e-29
-2.22768e-28
3.17803e-29
-2.58163e-28
3.99936e-29
-3.03529e-28
4.97482e-29
-3.60617e-28
6.14144e-29
-4.3163e-28
7.5434e-29
-5.19294e-28
9.23386e-29
-6.26969e-28
1.12773e-28
-7.58775e-28
1.37523e-28
-9.1975e-28
1.67551e-28
-1.11605e-27
2.04037e-28
-1.35522e-27
2.4843e-28
-1.64645e-27
3.02502e-28
-2.00102e-27
3.68411e-28
-2.43271e-27
4.48778e-28
-2.95836e-27
5.46761e-28
-3.59851e-27
6.66159e-28
-4.37813e-27
8.11539e-28
-5.3275e-27
9.88423e-28
-6.48322e-27
1.20357e-27
-7.88937e-27
1.46541e-27
-9.59898e-27
1.78474e-27
-1.16759e-26
2.17574e-27
-1.41969e-26
2.65748e-27
-1.7255e-26
3.25628e-27
-2.09638e-26
4.00925e-27
-2.54632e-26
4.9702e-27
-3.09304e-26
6.22018e-27
-3.76011e-26
7.88922e-27
-4.58202e-26
1.02136e-26
-5.61778e-26
1.37246e-26
-6.98798e-26
1.99443e-26
-8.96859e-26
3.40931e-26
-1.21376e-25
7.48304e-26
-1.64232e-25
5.13526e-26
4.02617e-30
-1.62239e-28
8.20676e-30
-1.68492e-28
1.27063e-29
-1.81234e-28
1.76995e-29
-2.00961e-28
2.33797e-29
-2.2844e-28
2.99657e-29
-2.64737e-28
3.771e-29
-3.11257e-28
4.69077e-29
-3.698e-28
5.79079e-29
-4.42621e-28
7.11269e-29
-5.32518e-28
8.70663e-29
-6.42936e-28
1.06334e-28
-7.781e-28
1.29671e-28
-9.43175e-28
1.57984e-28
-1.14448e-27
1.92388e-28
-1.38973e-27
2.34247e-28
-1.68839e-27
2.85234e-28
-2.052e-27
3.47385e-28
-2.49471e-27
4.23172e-28
-3.0338e-27
5.15576e-28
-3.69033e-27
6.28184e-28
-4.48997e-27
7.65311e-28
-5.4638e-27
9.32177e-28
-6.64945e-27
1.13518e-27
-8.09228e-27
1.38234e-27
-9.847e-27
1.6839e-27
-1.19796e-26
2.05341e-27
-1.45698e-26
2.50913e-27
-1.77149e-26
3.0763e-27
-2.15346e-26
3.79056e-27
-2.61783e-26
4.70337e-27
-3.18383e-26
5.89141e-27
-3.87758e-26
7.47491e-27
-4.73823e-26
9.66548e-27
-5.83461e-26
1.29324e-26
-7.31361e-26
1.86767e-26
-9.54297e-26
3.23801e-26
-1.35115e-25
8.34502e-26
-2.15136e-25
-3.01485e-25
3.77612e-30
-1.66017e-28
7.69709e-30
-1.72416e-28
1.19172e-29
-1.85454e-28
1.66004e-29
-2.05641e-28
2.19278e-29
-2.33759e-28
2.81049e-29
-2.70902e-28
3.53683e-29
-3.18506e-28
4.39949e-29
-3.78412e-28
5.4312e-29
-4.5293e-28
6.67102e-29
-5.44921e-28
8.16598e-29
-6.57912e-28
9.97308e-29
-7.96225e-28
1.21619e-28
-9.65146e-28
1.48174e-28
-1.17114e-27
1.80442e-28
-1.42211e-27
2.19703e-28
-1.72773e-27
2.67526e-28
-2.09982e-27
3.25822e-28
-2.55287e-27
3.9691e-28
-3.10455e-27
4.8359e-28
-3.77647e-27
5.8923e-28
-4.59488e-27
7.17884e-28
-5.59168e-27
8.74463e-28
-6.80543e-27
1.06499e-27
-8.28274e-27
1.29703e-27
-1.00799e-26
1.58029e-27
-1.22648e-26
1.9276e-27
-1.49203e-26
2.35634e-27
-1.81475e-26
2.89055e-27
-2.2072e-26
3.56415e-27
-2.68523e-26
4.42587e-27
-3.2695e-26
5.54715e-27
-3.9884e-26
7.03635e-27
-4.88508e-26
9.07387e-27
-6.03631e-26
1.20406e-26
-7.60954e-26
1.70892e-26
-1.00481e-25
2.91796e-26
-1.47246e-25
8.00141e-26
-2.65761e-25
-6.26982e-25
3.52026e-30
-1.69539e-28
7.17556e-30
-1.76073e-28
1.11098e-29
-1.89388e-28
1.54756e-29
-2.10003e-28
2.04421e-29
-2.38718e-28
2.62007e-29
-2.76649e-28
3.2972e-29
-3.25263e-28
4.10142e-29
-3.86441e-28
5.06323e-29
-4.6254e-28
6.21905e-29
-5.56484e-28
7.61272e-29
-6.71874e-28
9.29739e-29
-8.13122e-28
1.13379e-28
-9.85629e-28
1.38135e-28
-1.196e-27
1.68217e-28
-1.4523e-27
2.04819e-28
-1.7644e-27
2.49404e-28
-2.1444e-27
3.03754e-28
-2.60708e-27
3.70033e-28
-3.17052e-27
4.50853e-28
-3.85678e-27
5.49358e-28
-4.69271e-27
6.69334e-28
-5.71093e-27
8.15371e-28
-6.95091e-27
9.9311e-28
-8.46041e-27
1.20963e-27
-1.02971e-26
1.47407e-27
-1.25311e-26
1.79851e-27
-1.52476e-26
2.19936e-27
-1.85518e-26
2.69934e-27
-2.25748e-26
3.33045e-27
-2.74836e-26
4.13831e-27
-3.34977e-26
5.18848e-27
-4.09213e-26
6.57585e-27
-5.02182e-26
8.44456e-27
-6.22128e-26
1.10652e-26
-7.87114e-26
1.52184e-26
-1.04638e-25
2.44384e-26
-1.56511e-25
6.55701e-26
-3.06663e-25
-9.59329e-25
3.25896e-30
-1.728e-28
6.64296e-30
-1.7946e-28
1.02852e-29
-1.93031e-28
1.4327e-29
-2.14042e-28
1.89249e-29
-2.4331e-28
2.42561e-29
-2.81969e-28
3.05249e-29
-3.31519e-28
3.79702e-29
-3.93874e-28
4.68745e-29
-4.71437e-28
5.75749e-29
-5.67189e-28
7.04773e-29
-6.84799e-28
8.60736e-29
-8.28766e-28
1.04964e-28
-1.00459e-27
1.27883e-28
-1.21901e-27
1.55733e-28
-1.48024e-27
1.89619e-28
-1.79836e-27
2.30896e-28
-2.18568e-27
2.81216e-28
-2.65728e-27
3.42583e-28
-3.2316e-27