/*--------------------------------*- C++ -*----------------------------------*\
| =========                 |                                                 |
| \\      /  F ield         | OpenFOAM: The Open Source CFD Toolbox           |
|  \\    /   O peration     | Version:  4.1                                   |
|   \\  /    A nd           | Web:      www.OpenFOAM.org                      |
|    \\/     M anipulation  |                                                 |
\*---------------------------------------------------------------------------*/
FoamFile
{
    version     2.0;
    format      ascii;
    class       volVectorField;
    location    "6";
    object      U;
}
// * * * * * * * * * * * * * * * * * * * * * * * * * * * * * * * * * * * * * //

dimensions      [0 1 -1 0 0 0 0];

internalField   nonuniform List<vector> 
1705
(
(-3.84073e-61 -4.52705e-28 -5.62534e-30)
(-4.25407e-60 -1.7237e-28 1.39724e-29)
(7.17818e-61 -4.6154e-28 2.12984e-29)
(8.92989e-58 -7.08113e-28 4.49594e-30)
(3.65559e-55 -4.39545e-28 -1.35714e-29)
(9.77719e-53 -1.85608e-28 4.8542e-29)
(4.65434e-51 -5.06978e-28 1.41531e-29)
(1.43017e-48 -7.25615e-28 -1.08173e-29)
(2.52404e-46 -4.32687e-28 -2.16669e-29)
(8.87391e-44 -2.11113e-28 8.60128e-29)
(2.50627e-46 -5.6445e-28 5.64239e-30)
(1.11967e-48 -4.62921e-28 -8.17194e-30)
(2.31762e-50 -2.51214e-28 1.26215e-28)
(2.80174e-52 -6.22193e-28 2.79182e-29)
(7.23715e-50 -8.03532e-28 -1.77897e-30)
(1.80828e-47 -4.91215e-28 -1.8696e-29)
(1.19889e-46 -3.13089e-28 1.78949e-28)
(1.50974e-43 -7.26453e-28 1.93548e-29)
(1.10332e-45 -5.60497e-28 -3.57931e-30)
(1.7394e-47 -3.92454e-28 2.47349e-28)
(3.47066e-48 -8.37042e-28 5.15075e-29)
(1.11533e-45 -9.71208e-28 1.01598e-29)
(2.02751e-43 -6.36176e-28 -1.7804e-29)
(1.1642e-46 -5.00682e-28 3.34283e-28)
(7.83916e-48 -1.00818e-27 4.25288e-29)
(-3.1708e-45 -1.10322e-27 -1.19425e-29)
(-4.11105e-43 -7.38077e-28 -3.68697e-29)
(2.26513e-44 -6.37352e-28 4.45129e-28)
(-2.31898e-43 -1.22241e-27 2.75556e-29)
(-1.72098e-45 -9.01165e-28 -1.61692e-29)
(-2.94318e-46 -8.05671e-28 6.06697e-28)
(-3.76476e-43 -1.472e-27 8.3668e-29)
(-5.21139e-45 -1.52041e-27 2.75784e-30)
(-4.16976e-43 -1.08916e-27 -4.32128e-29)
(1.08422e-45 -1.03179e-27 8.04572e-28)
(7.081e-44 -1.83625e-27 6.7154e-29)
(6.84149e-41 -1.36466e-27 -9.30965e-30)
(3.77677e-38 -1.31331e-27 1.10049e-27)
(2.00018e-36 -2.27531e-27 1.61007e-28)
(1.47373e-33 -2.31249e-27 8.0617e-29)
(1.42725e-32 -2.51899e-27 6.7751e-27)
(1.31226e-32 -3.18192e-27 6.79493e-27)
(-1.68474e-34 -2.69117e-27 6.78149e-27)
(-1.41424e-30 2.63532e-26 9.56453e-27)
(2.75523e-31 -7.79399e-28 5.24856e-27)
(-1.41057e-30 -2.8895e-26 9.0863e-27)
(-1.92168e-33 -5.09425e-28 6.89717e-27)
(6.89631e-33 -1.82259e-29 6.85942e-27)
(-6.72485e-32 -6.63633e-28 7.23248e-27)
(-6.45187e-32 -9.24295e-28 7.23398e-27)
(-6.57579e-32 -1.60031e-27 7.17662e-27)
(-1.04041e-31 -1.14295e-27 7.20083e-27)
(-3.97471e-30 2.78293e-26 9.86662e-27)
(7.43704e-31 3.68447e-28 5.48397e-27)
(-3.95824e-30 -2.76597e-26 9.55127e-27)
(-1.97479e-33 8.39572e-28 7.27555e-27)
(1.43068e-31 1.27794e-27 7.40748e-27)
(4.92398e-32 5.81392e-28 7.46837e-27)
(4.83476e-32 2.90235e-28 7.48081e-27)
(4.95591e-32 -4.14118e-28 7.45986e-27)
(1.84726e-31 1.38413e-29 7.5138e-27)
(1.40659e-29 2.86921e-26 1.00314e-26)
(-2.69088e-30 1.13717e-27 5.48053e-27)
(1.38983e-29 -2.65772e-26 9.9148e-27)
(1.77416e-32 1.796e-27 7.20829e-27)
(4.35553e-32 2.15069e-27 7.21469e-27)
(4.50385e-32 1.39755e-27 7.28556e-27)
(4.61581e-32 1.05299e-27 7.32155e-27)
(4.68995e-32 3.00912e-28 7.32452e-27)
(6.85913e-33 6.57955e-28 7.39186e-27)
(-4.08477e-30 2.81774e-26 9.66975e-27)
(8.13416e-31 4.91962e-27 4.88001e-27)
(-4.31037e-30 -2.1774e-26 8.12452e-27)
(-8.152e-32 1.64412e-27 6.07719e-27)
(-4.13867e-32 1.72609e-27 6.08738e-27)
(-4.15425e-32 7.95198e-28 6.15152e-27)
(-4.20554e-32 2.39069e-28 6.17033e-27)
(-4.27694e-32 -5.11412e-28 6.15432e-27)
(-6.63651e-32 -7.45853e-28 6.14439e-27)
(-2.49096e-30 1.18841e-26 7.03506e-27)
(1.59539e-31 1.00738e-26 6.24387e-28)
(8.89321e-36 -3.32754e-28 -1.57588e-28)
(4.72547e-37 -3.31405e-28 2.61265e-30)
(8.60577e-41 -2.29541e-28 -1.39068e-28)
(1.66403e-42 -2.55722e-28 -9.33633e-30)
(5.38614e-46 -2.40953e-28 -1.25661e-28)
(1.12345e-47 -1.90557e-28 -9.4074e-29)
(2.41489e-46 -1.69389e-28 -2.53692e-30)
(3.52227e-43 -1.84534e-28 -8.7109e-29)
(-3.30583e-43 -1.36668e-28 -6.67873e-29)
(-2.74052e-46 -1.34156e-28 3.02404e-31)
(-6.22709e-48 -9.76062e-29 -6.43258e-29)
(9.02772e-47 -1.1921e-28 -5.49839e-30)
(1.89312e-43 -1.40353e-28 -6.18989e-29)
(-3.10739e-43 -8.3562e-29 -4.84566e-29)
(-2.70157e-46 -9.80243e-29 -3.19735e-30)
(-3.83296e-47 -7.41828e-29 -4.71281e-29)
(-1.39557e-43 -9.31181e-29 -7.37541e-30)
(2.97153e-43 -1.11331e-28 -4.64168e-29)
(-2.98674e-43 -4.91786e-29 -3.67377e-29)
(-2.53001e-46 -7.78543e-29 -4.916e-30)
(-9.845e-48 -9.86074e-29 -3.56484e-29)
(-9.51858e-48 -3.85333e-29 -2.92231e-29)
(-2.43883e-46 -6.54262e-29 -2.25086e-30)
(-2.80631e-43 -5.22976e-29 -2.8324e-29)
(-2.4408e-46 -6.50783e-29 -4.87178e-30)
(-9.57376e-48 -7.29241e-29 -2.72878e-29)
(-9.63869e-48 -2.33061e-29 -2.2333e-29)
(-2.48483e-46 -4.45451e-29 -2.33855e-30)
(-2.84248e-43 -3.6918e-29 -2.19345e-29)
(-4.8543e-46 -4.35932e-29 -3.84223e-30)
(-2.61409e-43 -4.54672e-29 -2.13188e-29)
(-8.40236e-47 -1.3318e-29 -1.78503e-29)
(-2.52594e-46 -2.61623e-29 -1.69459e-30)
(-2.7238e-43 -2.93359e-29 -1.75385e-29)
(-7.8389e-47 -1.00825e-29 -1.56646e-29)
(-4.44024e-48 -4.72421e-30 9.27828e-34)
(-9.01834e-48 -7.10386e-30 -1.60395e-29)
(-2.28423e-46 -1.96248e-30 5.57662e-31)
(-2.52234e-43 3.05785e-30 -1.61326e-29)
(-1.18462e-281 2.48813e-33 -1.24407e-32)
(-3.3375e-275 2.58489e-33 -3.77973e-32)
(-9.22219e-269 2.78162e-33 -6.46143e-32)
(-2.49769e-262 3.08567e-33 -9.39411e-32)
(-6.62575e-256 3.50859e-33 -1.26914e-31)
(-1.72032e-249 4.06634e-33 -1.64807e-31)
(-4.36847e-243 4.77993e-33 -2.09075e-31)
(-1.08402e-236 5.67636e-33 -2.6141e-31)
(-2.62638e-230 6.78972e-33 -3.23803e-31)
(-6.20709e-224 8.16271e-33 -3.9862e-31)
(-1.42954e-217 9.84853e-33 -4.887e-31)
(-3.20498e-211 1.19133e-32 -5.9747e-31)
(-6.98684e-205 1.44385e-32 -7.29096e-31)
(-1.47922e-198 1.75248e-32 -8.88663e-31)
(-3.03744e-192 2.12949e-32 -1.08239e-30)
(-6.04075e-186 2.58977e-32 -1.31791e-30)
(-1.16175e-179 3.15126e-32 -1.60454e-30)
(-2.15699e-173 3.83538e-32 -1.95362e-30)
(-3.85923e-167 4.66757e-32 -2.37892e-30)
(-6.64057e-161 5.67799e-32 -2.897e-30)
(-1.0965e-154 6.90235e-32 -3.52767e-30)
(-1.73322e-148 8.38316e-32 -4.29452e-30)
(-2.61564e-142 1.01712e-31 -5.22553e-30)
(-3.75732e-136 1.23278e-31 -6.35386e-30)
(-5.12027e-130 1.49265e-31 -7.71889e-30)
(-6.59436e-124 1.8054e-31 -9.36753e-30)
(-7.99174e-118 2.18084e-31 -1.13556e-29)
(-9.06872e-112 2.62896e-31 -1.37489e-29)
(-9.58057e-106 3.15773e-31 -1.66234e-29)
(-9.35951e-100 3.76827e-31 -2.0061e-29)
(-8.38804e-94 4.44527e-31 -2.41395e-29)
(-6.83008e-88 5.13888e-31 -2.89076e-29)
(-4.99349e-82 5.73227e-31 -3.43335e-29)
(-3.22944e-76 5.98841e-31 -4.02099e-29)
(-1.8123e-70 5.47523e-31 -4.59939e-29)
(-8.60015e-65 3.49963e-31 -5.05748e-29)
(-3.32844e-59 -8.14377e-32 -5.20505e-29)
(-9.95407e-54 -8.01446e-31 -4.7799e-29)
(-2.10674e-48 -1.75952e-30 -3.6305e-29)
(-3.80225e-285 7.46294e-33 -1.24261e-32)
(-1.0645e-278 7.75214e-33 -3.77536e-32)
(-2.92273e-272 8.34051e-33 -6.45403e-32)
(-7.86477e-266 9.25048e-33 -9.38333e-32)
(-2.07271e-259 1.05169e-32 -1.26768e-31)
(-5.34604e-253 1.21882e-32 -1.64616e-31)
(-1.34843e-246 1.43281e-32 -2.08832e-31)
(-3.32331e-240 1.70183e-32 -2.61107e-31)
(-7.99617e-234 2.03617e-32 -3.23428e-31)
(-1.87653e-227 2.44867e-32 -3.98159e-31)
(-4.29099e-221 2.95527e-32 -4.88135e-31)
(-9.55053e-215 3.57563e-32 -5.96778e-31)
(-2.06666e-208 4.33392e-32 -7.28249e-31)
(-4.34255e-202 5.2598e-32 -8.87626e-31)
(-8.84877e-196 6.38947e-32 -1.08113e-30)
(-1.74606e-189 7.76697e-32 -1.31636e-30)
(-3.33119e-183 9.44563e-32 -1.60265e-30)
(-6.13435e-177 1.14897e-31 -1.95132e-30)
(-1.08834e-170 1.39764e-31 -2.37613e-30)
(-1.85658e-164 1.69981e-31 -2.89361e-30)
(-3.03842e-158 2.06655e-31 -3.52357e-30)
(-4.75881e-152 2.51105e-31 -4.28958e-30)
(-7.11346e-146 3.04909e-31 -5.21958e-30)
(-1.01174e-139 3.69948e-31 -6.34671e-30)
(-1.36451e-133 4.48439e-31 -7.71031e-30)
(-1.73828e-127 5.42937e-31 -9.35725e-30)
(-2.08242e-121 6.56253e-31 -1.13433e-29)
(-2.33405e-115 7.91165e-31 -1.37345e-29)
(-2.43313e-109 9.49777e-31 -1.66068e-29)
(-2.34257e-103 1.13213e-30 -2.00427e-29)
(-2.06562e-97 1.33347e-30 -2.41211e-29)
(-1.65123e-91 1.53893e-30 -2.88926e-29)
(-1.18151e-85 1.71402e-30 -3.43291e-29)
(-7.44486e-80 1.78857e-30 -4.02298e-29)
(-4.0423e-74 1.63395e-30 -4.60605e-29)
(-1.8345e-68 1.04264e-30 -5.0719e-29)
(-6.64431e-63 -2.50114e-31 -5.22996e-29)
(-1.77312e-57 -2.41274e-30 -4.81518e-29)
(-2.91388e-52 -5.11347e-30 -3.63326e-29)
(6.88762e-283 1.24284e-32 -1.23876e-32)
(1.92681e-276 1.29088e-32 -3.76368e-32)
(5.28589e-270 1.38867e-32 -6.43408e-32)
(1.42109e-263 1.53997e-32 -9.35435e-32)
(3.74156e-257 1.75062e-32 -1.26377e-31)
(9.64041e-251 2.02875e-32 -1.64108e-31)
(2.42893e-244 2.38505e-32 -2.08188e-31)
(5.97937e-238 2.83324e-32 -2.60302e-31)
(1.43694e-231 3.39054e-32 -3.22431e-31)
(3.36793e-225 4.0784e-32 -3.96933e-31)
(7.69123e-219 4.92327e-32 -4.86631e-31)
(1.70953e-212 5.95771e-32 -5.94939e-31)
(3.69416e-206 7.22157e-32 -7.26003e-31)
(7.75137e-200 8.76365e-32 -8.84886e-31)
(1.57723e-193 1.06435e-31 -1.07779e-30)
(3.10777e-187 1.29336e-31 -1.31229e-30)
(5.92065e-181 1.57223e-31 -1.59769e-30)
(1.08876e-174 1.91166e-31 -1.94529e-30)
(1.92906e-168 2.32462e-31 -2.36879e-30)
(3.28656e-162 2.82676e-31 -2.8847e-30)
(5.3724e-156 3.43691e-31 -3.51276e-30)
(8.40576e-150 4.17768e-31 -4.27646e-30)
(1.25546e-143 5.07599e-31 -5.2037e-30)
(1.78463e-137 6.16368e-31 -6.32751e-30)
(2.40635e-131 7.47783e-31 -7.68717e-30)
(3.06614e-125 9.06043e-31 -9.32945e-30)
(3.67606e-119 1.09567e-30 -1.13102e-29)
(4.12655e-113 1.32104e-30 -1.36954e-29)
(4.3125e-107 1.58534e-30 -1.65614e-29)
(4.16778e-101 1.88834e-30 -1.99917e-29)
(3.69548e-95 2.22205e-30 -2.40671e-29)
(2.97768e-89 2.56212e-30 -2.88422e-29)
(2.15492e-83 2.85221e-30 -3.42962e-29)
(1.38017e-77 2.97721e-30 -4.02407e-29)
(7.67591e-72 2.72459e-30 -4.61599e-29)
(3.61388e-66 1.74841e-30 -5.09701e-29)
(1.38997e-60 -3.99314e-31 -5.27604e-29)
(4.14164e-55 -4.01836e-30 -4.87889e-29)
(8.76376e-50 -8.45942e-30 -3.64366e-29)
(-1.15175e-281 1.73746e-32 -1.233e-32)
(-3.24606e-275 1.80455e-32 -3.7462e-32)
(-8.97281e-269 1.94114e-32 -6.40422e-32)
(-2.43105e-262 2.15253e-32 -9.31094e-32)
(-6.45143e-256 2.4469e-32 -1.2579e-31)
(-1.67571e-249 2.83563e-32 -1.63347e-31)
(-4.25688e-243 3.33372e-32 -2.07223e-31)
(-1.05676e-236 3.96038e-32 -2.59096e-31)
(-2.5614e-230 4.73974e-32 -3.20937e-31)
(-6.05608e-224 5.70179e-32 -3.95094e-31)
(-1.39538e-217 6.88349e-32 -4.84376e-31)
(-3.1298e-211 8.33021e-32 -5.92182e-31)
(-6.82612e-205 1.00975e-31 -7.22637e-31)
(-1.44589e-198 1.22533e-31 -8.80782e-31)
(-2.9705e-192 1.48804e-31 -1.07279e-30)
(-5.91073e-186 1.80799e-31 -1.30621e-30)
(-1.13737e-179 2.19749e-31 -1.59028e-30)
(-2.11295e-173 2.67153e-31 -1.93627e-30)
(-3.78276e-167 3.24829e-31 -2.35782e-30)
(-6.51325e-161 3.94978e-31 -2.87136e-30)
(-1.07623e-154 4.80258e-31 -3.49655e-30)
(-1.70248e-148 5.83855e-31 -4.25679e-30)
(-2.57137e-142 7.09569e-31 -5.17986e-30)
(-3.69708e-136 8.61878e-31 -6.29867e-30)
(-5.04323e-130 1.04597e-30 -7.65238e-30)
(-6.50241e-124 1.26771e-30 -9.28767e-30)
(-7.89024e-118 1.53336e-30 -1.12603e-29)
(-8.96635e-112 1.84895e-30 -1.36366e-29)
(-9.48795e-106 2.21886e-30 -1.64933e-29)
(-9.2866e-100 2.64287e-30 -1.99153e-29)
(-8.34111e-94 3.11009e-30 -2.39863e-29)
(-6.80959e-88 3.5874e-30 -2.87665e-29)
(-4.99398e-82 3.99764e-30 -3.42461e-29)
(-3.24188e-76 4.18231e-30 -4.02553e-29)
(-1.82765e-70 3.84632e-30 -4.63062e-29)
(-8.72284e-65 2.50399e-30 -5.13438e-29)
(-3.40069e-59 -4.8593e-31 -5.3453e-29)
(-1.02666e-53 -5.58724e-30 -4.97639e-29)
(-2.19831e-48 -1.21649e-29 -3.74301e-29)
(2.81558e-283 2.2294e-32 -1.22535e-32)
(7.87273e-277 2.31543e-32 -3.72295e-32)
(2.15866e-270 2.49063e-32 -6.36448e-32)
(5.80048e-264 2.7618e-32 -9.25319e-32)
(1.52638e-257 3.13945e-32 -1.2501e-31)
(3.93067e-251 3.6382e-32 -1.62335e-31)
(9.89784e-245 4.27732e-32 -2.05939e-31)
(2.43516e-238 5.08148e-32 -2.5749e-31)
(5.84856e-232 6.08167e-32 -3.18949e-31)
(1.36994e-225 7.31636e-32 -3.92645e-31)
(3.12648e-219 8.83296e-32 -4.81374e-31)
(6.94464e-213 1.06896e-31 -5.88511e-31)
(1.49965e-206 1.29575e-31 -7.18157e-31)
(3.14444e-200 1.57235e-31 -8.7532e-31)
(6.3935e-194 1.90939e-31 -1.06613e-30)
(1.25881e-187 2.3198e-31 -1.29811e-30)
(2.39627e-181 2.81939e-31 -1.58042e-30)
(4.40291e-175 3.42738e-31 -1.92428e-30)
(7.79432e-169 4.16715e-31 -2.34323e-30)
(1.32674e-162 5.06706e-31 -2.85361e-30)
(2.16673e-156 6.1613e-31 -3.47498e-30)
(3.3868e-150 7.49098e-31 -4.2306e-30)
(5.05324e-144 9.10504e-31 -5.14809e-30)
(7.17543e-138 1.10611e-30 -6.26023e-30)
(9.66421e-132 1.34261e-30 -7.606e-30)
(1.22993e-125 1.62749e-30 -9.23198e-30)
(1.47274e-119 1.96882e-30 -1.11939e-29)
(1.65102e-113 2.37435e-30 -1.35583e-29)
(1.723e-107 2.84984e-30 -1.64026e-29)
(1.66272e-101 3.39528e-30 -1.98134e-29)
(1.47201e-95 3.99747e-30 -2.38782e-29)
(1.18418e-89 4.61532e-30 -2.86647e-29)
(8.5557e-84 5.15245e-30 -3.41772e-29)
(5.47088e-78 5.40915e-30 -4.02709e-29)
(3.03815e-72 5.00989e-30 -4.64956e-29)
(1.42869e-66 3.3278e-30 -5.18365e-29)
(5.49126e-61 -4.84993e-31 -5.43787e-29)
(1.63604e-55 -7.09384e-30 -5.11247e-29)
(3.46169e-50 -1.58338e-29 -3.92572e-29)
(-7.00117e-282 2.71788e-32 -1.2158e-32)
(-2.00474e-275 2.82272e-32 -3.69396e-32)
(-5.62881e-269 3.03627e-32 -6.31494e-32)
(-1.54869e-262 3.36682e-32 -9.18118e-32)
(-4.17263e-256 3.82718e-32 -1.24038e-31)
(-1.10011e-249 4.43519e-32 -1.61072e-31)
(-2.83601e-243 5.21436e-32 -2.04337e-31)
(-7.14291e-237 6.19478e-32 -2.55487e-31)
(-1.75614e-230 7.41424e-32 -3.16468e-31)
(-4.21077e-224 8.91963e-32 -3.89591e-31)
(-9.83672e-218 1.07687e-31 -4.7763e-31)
(-2.2365e-211 1.30324e-31 -5.83933e-31)
(-4.94337e-205 1.57973e-31 -7.12569e-31)
(-1.06093e-198 1.91693e-31 -8.68509e-31)
(-2.20794e-192 2.32777e-31 -1.05784e-30)
(-4.44951e-186 2.82803e-31 -1.28801e-30)
(-8.66945e-180 3.43696e-31 -1.56813e-30)
(-1.63043e-173 4.17802e-31 -1.90932e-30)
(-2.95428e-167 5.07975e-31 -2.32503e-30)
(-5.14725e-161 6.17676e-31 -2.83148e-30)
(-8.60445e-155 7.51088e-31 -3.44807e-30)
(-1.37672e-148 9.13232e-31 -4.19792e-30)
(-2.10269e-142 1.11009e-30 -5.10845e-30)
(-3.05647e-136 1.34872e-30 -6.21225e-30)
(-4.21425e-130 1.63726e-30 -7.5481e-30)
(-5.49081e-124 1.98492e-30 -9.16243e-30)
(-6.7313e-118 2.40154e-30 -1.1111e-29)
(-7.72619e-112 2.89672e-30 -1.34604e-29)
(-8.25571e-106 3.47772e-30 -1.62891e-29)
(-8.15757e-100 4.14511e-30 -1.96858e-29)
(-7.395e-94 4.88394e-30 -2.37423e-29)
(-6.09164e-88 5.64635e-30 -2.85355e-29)
(-4.50664e-82 6.31862e-30 -3.40873e-29)
(-2.95053e-76 6.66279e-30 -4.02838e-29)
(-1.67732e-70 6.22592e-30 -4.67225e-29)
(-8.07125e-65 4.23869e-30 -5.24428e-29)
(-3.172e-59 -3.69535e-31 -5.55373e-29)
(-9.64779e-54 -8.51238e-30 -5.28337e-29)
(-2.07695e-48 -1.97636e-29 -4.06905e-29)
(-7.49685e-282 3.20217e-32 -1.20438e-32)
(-2.14534e-275 3.32567e-32 -3.65928e-32)
(-6.01999e-269 3.57723e-32 -6.25566e-32)
(-1.65538e-262 3.96665e-32 -9.09501e-32)
(-4.45766e-256 4.50903e-32 -1.22874e-31)
(-1.17465e-249 5.22537e-32 -1.5956e-31)
(-3.02669e-243 6.14339e-32 -2.0242e-31)
(-7.61959e-237 7.29856e-32 -2.5309e-31)
(-1.87251e-230 8.73539e-32 -3.13499e-31)
(-4.48788e-224 1.05091e-31 -3.85936e-31)
(-1.04799e-217 1.26878e-31 -4.73149e-31)
(-2.38183e-211 1.5355e-31 -5.78454e-31)
(-5.26271e-205 1.86125e-31 -7.05883e-31)
(-1.12908e-198 2.25853e-31 -8.60359e-31)
(-2.34902e-192 2.74255e-31 -1.04791e-30)
(-4.73237e-186 3.33189e-31 -1.27592e-30)
(-9.21792e-180 4.04925e-31 -1.55342e-30)
(-1.7331e-173 4.92228e-31 -1.89142e-30)
(-3.13951e-167 5.98463e-31 -2.30325e-30)
(-5.46863e-161 7.27714e-31 -2.80499e-30)
(-9.13952e-155 8.84917e-31 -3.41587e-30)
(-1.462e-148 1.076e-30 -4.1588e-30)
(-2.23245e-142 1.30803e-30 -5.061e-30)
(-3.24438e-136 1.58932e-30 -6.1548e-30)
(-4.47241e-130 1.92953e-30 -7.47876e-30)
(-5.82593e-124 2.33951e-30 -9.07912e-30)
(-7.1406e-118 2.83099e-30 -1.10116e-29)
(-8.19418e-112 3.41546e-30 -1.3343e-29)
(-8.75377e-106 4.10188e-30 -1.61529e-29)
(-8.64763e-100 4.89178e-30 -1.95322e-29)
(-7.83724e-94 5.76918e-30 -2.3578e-29)
(-6.4542e-88 6.68077e-30 -2.83777e-29)
(-4.77358e-82 7.49789e-30 -3.39739e-29)
(-3.12456e-76 7.94802e-30 -4.02895e-29)
(-1.77606e-70 7.50485e-30 -4.69804e-29)
(-8.54862e-65 5.25604e-30 -5.31556e-29)
(-3.36362e-59 -1.10187e-31 -5.69289e-29)
(-1.02667e-53 -9.80401e-30 -5.50034e-29)
(-2.23124e-48 -2.366e-29 -4.38804e-29)
(-2.52273e-285 3.68151e-32 -1.19111e-32)
(-7.17288e-279 3.82347e-32 -3.61896e-32)
(-1.99969e-272 4.11267e-32 -6.18674e-32)
(-5.46257e-266 4.56037e-32 -8.99482e-32)
(-1.46116e-259 5.18393e-32 -1.2152e-31)
(-3.8243e-253 6.0075e-32 -1.57803e-31)
(-9.7864e-247 7.06297e-32 -2.0019e-31)
(-2.44656e-240 8.3911e-32 -2.50303e-31)
(-5.96995e-234 1.00431e-31 -3.10047e-31)
(-1.42058e-227 1.20824e-31 -3.81686e-31)
(-3.29313e-221 1.45874e-31 -4.67938e-31)
(-7.42914e-215 1.76538e-31 -5.72083e-31)
(-1.62915e-208 2.13991e-31 -6.98108e-31)
(-3.46849e-202 2.59664e-31 -8.50883e-31)
(-7.15989e-196 3.15309e-31 -1.03637e-30)
(-1.43099e-189 3.83062e-31 -1.26187e-30)
(-2.76477e-183 4.65532e-31 -1.53632e-30)
(-5.15514e-177 5.65899e-31 -1.87061e-30)
(-9.25944e-171 6.88037e-31 -2.27793e-30)
(-1.59888e-164 8.36645e-31 -2.77419e-30)
(-2.64832e-158 1.01741e-30 -3.37842e-30)
(-4.19748e-152 1.23715e-30 -4.1133e-30)
(-6.34875e-146 1.50401e-30 -5.00579e-30)
(-9.13589e-140 1.82757e-30 -6.08795e-30)
(-1.24651e-133 2.21898e-30 -7.39806e-30)
(-1.60638e-127 2.69079e-30 -8.98214e-30)
(-1.94669e-121 3.25661e-30 -1.08958e-29)
(-2.2072e-115 3.92995e-30 -1.32062e-29)
(-2.3277e-109 4.72168e-30 -1.59939e-29)
(-2.26746e-103 5.63466e-30 -1.93523e-29)
(-2.0234e-97 6.65273e-30 -2.33845e-29)
(-1.63752e-91 7.71869e-30 -2.81898e-29)
(-1.1869e-85 8.69172e-30 -3.38339e-29)
(-7.58292e-80 9.26919e-30 -4.02824e-29)
(-4.18089e-74 8.85677e-30 -4.72609e-29)
(-1.9317e-68 6.39961e-30 -5.39658e-29)
(-7.15685e-63 3.24786e-31 -5.85493e-29)
(-1.9737e-57 -1.09266e-29 -5.75436e-29)
(-3.45374e-52 -2.71175e-29 -4.70293e-29)
(4.37462e-286 4.15517e-32 -1.176e-32)
(8.95664e-280 4.31538e-32 -3.57306e-32)
(1.55493e-273 4.64178e-32 -6.10829e-32)
(1.74966e-267 5.14706e-32 -8.88076e-32)
(-1.80688e-261 5.85084e-32 -1.19979e-31)
(-2.12155e-254 6.78038e-32 -1.55802e-31)
(-9.52628e-248 7.97167e-32 -1.97653e-31)
(-3.37645e-241 9.47071e-32 -2.4713e-31)
(-1.05975e-234 1.13353e-31 -3.06116e-31)
(-3.06704e-228 1.36371e-31 -3.76848e-31)
(-8.33828e-222 1.64644e-31 -4.62006e-31)
(-2.15042e-215 1.99254e-31 -5.6483e-31)
(-5.28983e-209 2.41525e-31 -6.89258e-31)
(-1.24506e-202 2.93075e-31 -8.40096e-31)
(-2.80868e-196 3.55877e-31 -1.02323e-30)
(-6.07713e-190 4.32345e-31 -1.24588e-30)
(-1.26128e-183 5.25423e-31 -1.51686e-30)
(-2.50982e-177 6.38703e-31 -1.84692e-30)
(-4.78428e-171 7.76559e-31 -2.2491e-30)
(-8.72554e-165 9.44301e-31 -2.73912e-30)
(-1.52013e-158 1.14835e-30 -3.33577e-30)
(-2.52487e-152 1.39643e-30 -4.06148e-30)
(-3.98909e-146 1.69773e-30 -4.94291e-30)
(-5.97896e-140 2.06312e-30 -6.0118e-30)
(-8.47512e-134 2.5052e-30 -7.30612e-30)
(-1.13207e-127 3.03826e-30 -8.8716e-30)
(-1.41905e-121 3.67783e-30 -1.07637e-29)
(-1.66115e-115 4.43954e-30 -1.305e-29)
(-1.80562e-109 5.33639e-30 -1.5812e-29)
(-1.81013e-103 6.37304e-30 -1.9146e-29)
(-1.66007e-97 7.53404e-30 -2.31612e-29)
(-1.37899e-91 8.76e-30 -2.79699e-29)
(-1.0248e-85 9.90116e-30 -3.36638e-29)
(-6.706e-80 1.06301e-29 -4.02565e-29)
(-3.7835e-74 1.02912e-29 -4.75543e-29)
(-1.78718e-68 7.68946e-30 -5.4862e-29)
(-6.76281e-63 9.69496e-31 -6.03941e-29)
(-1.90257e-57 -1.18491e-29 -6.04919e-29)
(-3.39227e-52 -3.07683e-29 -4.99075e-29)
(9.79282e-283 4.62243e-32 -1.15908e-32)
(1.79285e-276 4.80064e-32 -3.52165e-32)
(2.2795e-270 5.16372e-32 -6.02041e-32)
(-1.08114e-264 5.72582e-32 -8.75301e-32)
(-2.21382e-257 6.50873e-32 -1.18254e-31)
(-1.07565e-250 7.54281e-32 -1.53561e-31)
(-4.00421e-244 8.86807e-32 -1.9481e-31)
(-1.30963e-237 1.05357e-31 -2.43576e-31)
(-3.93875e-231 1.261e-31 -3.01714e-31)
(-1.11184e-224 1.51708e-31 -3.71428e-31)
(-2.97733e-218 1.83161e-31 -4.55362e-31)
(-7.60872e-212 2.21663e-31 -5.56707e-31)
(-1.86207e-205 2.68688e-31 -6.79344e-31)
(-4.37241e-199 3.26034e-31 -8.28013e-31)
(-9.86048e-193 3.95897e-31 -1.00852e-30)
(-2.1362e-186 4.80963e-31 -1.22796e-30)
(-4.44466e-180 5.84506e-31 -1.49505e-30)
(-8.8756e-174 7.10526e-31 -1.82038e-30)
(-1.69931e-167 8.63891e-31 -2.21681e-30)
(-3.11512e-161 1.05052e-30 -2.69983e-30)
(-5.45863e-155 1.27755e-30 -3.28799e-30)
(-9.12513e-149 1.55359e-30 -4.00342e-30)
(-1.4519e-142 1.8889e-30 -4.87245e-30)
(-2.19287e-136 2.29559e-30 -5.92646e-30)
(-3.13422e-130 2.78776e-30 -7.20304e-30)
(-4.22422e-124 3.38141e-30 -8.74761e-30)
(-5.34665e-118 4.09407e-30 -1.06155e-29)
(-6.32515e-112 4.94356e-30 -1.28745e-29)
(-6.95508e-106 5.94527e-30 -1.56072e-29)
(-7.06208e-100 7.10614e-30 -1.89128e-29)
(-6.57009e-94 8.41237e-30 -2.29071e-29)
(-5.54774e-88 9.80434e-30 -2.77164e-29)
(-4.2026e-82 1.11269e-29 -3.34598e-29)
(-2.81462e-76 1.20338e-29 -4.02044e-29)
(-1.63529e-70 1.18169e-29 -4.7849e-29)
(-8.03534e-65 9.1457e-30 -5.58301e-29)
(-3.22201e-59 1.86105e-30 -6.2457e-29)
(-9.99277e-54 -1.2525e-29 -6.38911e-29)
(-2.19503e-48 -3.42495e-29 -5.48177e-29)
(4.43112e-286 5.08255e-32 -1.14037e-32)
(9.11937e-280 5.27849e-32 -3.46481e-32)
(1.60035e-273 5.67771e-32 -5.92325e-32)
(1.87253e-267 6.29575e-32 -8.61176e-32)
(-1.48459e-261 7.15659e-32 -1.16345e-31)
(-2.0396e-254 8.29361e-32 -1.51083e-31)
(-9.32444e-248 9.75081e-32 -1.91667e-31)
(-3.32834e-241 1.15845e-31 -2.39646e-31)
(-1.04867e-234 1.38654e-31 -2.96846e-31)
(-3.04238e-228 1.6681e-31 -3.65436e-31)
(-8.28551e-222 2.01395e-31 -4.48015e-31)
(-2.13957e-215 2.4373e-31 -5.47725e-31)
(-5.26851e-209 2.95436e-31 -6.68384e-31)
(-1.24107e-202 3.5849e-31 -8.14654e-31)
(-2.80165e-196 4.35307e-31 -9.92245e-31)
(-6.06558e-190 5.2884e-31 -1.20816e-30)
(-1.25955e-183 6.42691e-31 -1.47094e-30)
(-2.50757e-177 7.81258e-31 -1.79104e-30)
(-4.78207e-171 9.499e-31 -2.18111e-30)
(-8.72504e-165 1.15512e-30 -2.65639e-30)
(-1.52062e-158 1.4048e-30 -3.23515e-30)
(-2.52661e-152 1.7084e-30 -3.93921e-30)
(-3.99327e-146 2.07723e-30 -4.79451e-30)
(-5.98736e-140 2.52466e-30 -5.83203e-30)
(-8.49011e-134 3.06625e-30 -7.08895e-30)
(-1.1345e-127 3.71975e-30 -8.61033e-30)
(-1.42267e-121 4.50473e-30 -1.04513e-29)
(-1.66611e-115 5.44132e-30 -1.26798e-29)
(-1.81189e-109 6.54753e-30 -1.53794e-29)
(-1.81742e-103 7.83309e-30 -1.86526e-29)
(-1.66783e-97 9.28688e-30 -2.26215e-29)
(-1.38651e-91 1.0851e-29 -2.7427e-29)
(-1.03138e-85 1.23689e-29 -3.32179e-29)
(-6.75744e-80 1.34826e-29 -4.01184e-29)
(-3.81893e-74 1.34416e-29 -4.81319e-29)
(-1.80829e-68 1.07883e-29 -5.68532e-29)
(-6.86885e-63 3.03982e-30 -6.47283e-29)
(-1.94593e-57 -1.29046e-29 -6.7714e-29)
(-3.52909e-52 -3.80186e-29 -5.96981e-29)
(-5.42123e-285 5.53483e-32 -1.1199e-32)
(-1.50589e-278 5.7482e-32 -3.40263e-32)
(-4.10206e-272 6.18293e-32 -5.81696e-32)
(-1.09508e-265 6.85597e-32 -8.45723e-32)
(-2.86302e-259 7.79342e-32 -1.14258e-31)
(-7.32529e-253 9.03162e-32 -1.48373e-31)
(-1.83278e-246 1.06185e-31 -1.88228e-31)
(-4.4805e-240 1.26154e-31 -2.35347e-31)
(-1.06929e-233 1.50993e-31 -2.91521e-31)
(-2.48891e-227 1.81656e-31 -3.5888e-31)
(-5.6447e-221 2.19318e-31 -4.39978e-31)
(-1.24603e-214 2.65422e-31 -5.37899e-31)
(-2.67411e-208 3.21729e-31 -6.56392e-31)
(-5.57259e-202 3.90394e-31 -8.00039e-31)
(-1.12614e-195 4.74047e-31 -9.74446e-31)
(-2.20374e-189 5.75903e-31 -1.18649e-30)
(-4.1696e-183 6.99887e-31 -1.44457e-30)
(-7.61485e-177 8.5079e-31 -1.75894e-30)
(-1.33987e-170 1.03445e-30 -2.14204e-30)
(-2.26688e-164 1.25796e-30 -2.60885e-30)
(-3.67956e-158 1.52991e-30 -3.17733e-30)
(-5.71615e-152 1.86062e-30 -3.86894e-30)
(-8.47565e-146 2.26244e-30 -4.7092e-30)
(-1.19588e-139 2.74996e-30 -5.72865e-30)
(-1.60019e-133 3.34024e-30 -6.96402e-30)
(-2.02278e-127 4.05278e-30 -8.45992e-30)
(-2.40499e-121 4.90921e-30 -1.02712e-29)
(-2.67589e-115 5.93212e-30 -1.24659e-29)
(-2.76989e-109 7.14235e-30 -1.51288e-29)
(-2.64905e-103 8.55295e-30 -1.83649e-29)
(-2.32145e-97 1.01566e-29 -2.23035e-29)
(-1.84549e-91 1.18992e-29 -2.71e-29)
(-1.31438e-85 1.36268e-29 -3.29335e-29)
(-8.25415e-80 1.49777e-29 -3.99899e-29)
(-4.47499e-74 1.51718e-29 -4.83879e-29)
(-2.03375e-68 1.26367e-29 -5.79105e-29)
(-7.41194e-63 4.54988e-30 -6.71956e-29)
(-2.0079e-57 -1.29148e-29 -7.21029e-29)
(-3.42064e-52 -4.1561e-29 -6.48328e-29)
(-1.57462e-281 5.97858e-32 -1.09771e-32)
(-4.40426e-275 6.20905e-32 -3.3352e-32)
(-1.20813e-268 6.67863e-32 -5.7017e-32)
(-3.24804e-262 7.40562e-32 -8.28966e-32)
(-8.55261e-256 8.41822e-32 -1.11994e-31)
(-2.2041e-249 9.7557e-32 -1.45433e-31)
(-5.55501e-243 1.14698e-31 -1.84499e-31)
(-1.36807e-236 1.36269e-31 -2.30685e-31)
(-3.28944e-230 1.63099e-31 -2.85746e-31)
(-7.71484e-224 1.96221e-31 -3.51771e-31)
(-1.76317e-217 2.36904e-31 -4.31262e-31)
(-3.92253e-211 2.86704e-31 -5.27243e-31)
(-8.48498e-205 3.47526e-31 -6.43389e-31)
(-1.78246e-198 4.21696e-31 -7.8419e-31)
(-3.63166e-192 5.12056e-31 -9.55144e-31)
(-7.16623e-186 6.22079e-31 -1.16299e-30)
(-1.36745e-179 7.56006e-31 -1.41597e-30)
(-2.51909e-173 9.19014e-31 -1.72413e-30)
(-4.47196e-167 1.11742e-30 -2.09967e-30)
(-7.63503e-161 1.35888e-30 -2.55729e-30)
(-1.25093e-154 1.65268e-30 -3.11462e-30)
(-1.9621e-148 2.01001e-30 -3.7927e-30)
(-2.93839e-142 2.44423e-30 -4.61664e-30)
(-4.18896e-136 2.97115e-30 -5.61647e-30)
(-5.66581e-130 3.60932e-30 -6.82839e-30)
(-7.24334e-124 4.37999e-30 -8.29654e-30)
(-8.71517e-118 5.30691e-30 -1.00754e-29)
(-9.82065e-112 6.41523e-30 -1.22331e-29)
(-1.03054e-105 7.72887e-30 -1.48553e-29)
(-1.00036e-99 9.26473e-30 -1.80497e-29)
(-8.91256e-94 1.10202e-29 -2.19523e-29)
(-7.21916e-88 1.29475e-29 -2.6733e-29)
(-5.25508e-82 1.48995e-29 -3.26022e-29)
(-3.38835e-76 1.65193e-29 -3.98095e-29)
(-1.89948e-70 1.70121e-29 -4.86001e-29)
(-9.03165e-65 1.47093e-29 -5.89775e-29)
(-3.51866e-59 6.43878e-30 -6.98386e-29)
(-1.06681e-53 -1.24752e-29 -7.69362e-29)
(-2.31453e-48 -4.49693e-29 -7.08764e-29)
(-1.72385e-281 6.4131e-32 -1.07383e-32)
(-4.63431e-275 6.66032e-32 -3.26264e-32)
(-1.21902e-268 7.16402e-32 -5.57764e-32)
(-3.13468e-262 7.94385e-32 -8.10931e-32)
(-7.87263e-256 9.03005e-32 -1.09558e-31)
(-1.92901e-249 1.04647e-31 -1.4227e-31)
(-4.6062e-243 1.23035e-31 -1.80486e-31)
(-1.07052e-236 1.46173e-31 -2.25667e-31)
(-2.41811e-230 1.74954e-31 -2.7953e-31)
(-5.3003e-224 2.10484e-31 -3.44119e-31)
(-1.12533e-217 2.54124e-31 -4.21881e-31)
(-2.30946e-211 3.07545e-31 -5.15774e-31)
(-4.57006e-205 3.72788e-31 -6.29394e-31)
(-8.69408e-199 4.52349e-31 -7.67133e-31)
(-1.58424e-192 5.49277e-31 -9.34369e-31)
(-2.75206e-186 6.67298e-31 -1.1377e-30)
(-4.5286e-180 8.10962e-31 -1.38518e-30)
(-6.99444e-174 9.85826e-31 -1.68666e-30)
(-9.99499e-168 1.19866e-30 -2.05407e-30)
(-1.28821e-161 1.45771e-30 -2.5018e-30)
(-1.4177e-155 1.77294e-30 -3.04711e-30)
(-1.12523e-149 2.15635e-30 -3.71063e-30)
(-2.33327e-145 2.62232e-30 -4.51697e-30)
(2.3587e-137 3.18791e-30 -5.49564e-30)
(6.45502e-131 3.87308e-30 -6.68225e-30)
(1.24615e-124 4.70089e-30 -8.1204e-30)
(2.00977e-118 5.69724e-30 -9.86417e-30)
(2.8439e-112 6.88992e-30 -1.19815e-29)
(3.59585e-106 8.30621e-30 -1.45589e-29)
(4.08735e-100 9.96734e-30 -1.77067e-29)
(4.17541e-94 1.18766e-29 -2.1567e-29)
(3.8156e-88 1.39944e-29 -2.63241e-29)
(3.09324e-82 1.61853e-29 -3.22192e-29)
(2.1975e-76 1.81063e-29 -3.95674e-29)
(1.34489e-70 1.89654e-29 -4.87499e-29)
(6.92397e-65 1.70229e-29 -6.00252e-29)
(2.89846e-59 8.7574e-30 -7.26325e-29)
(9.37576e-54 -1.14899e-29 -8.23845e-29)
(2.16079e-48 -4.74836e-29 -7.77055e-29)
(-8.05995e-285 6.83774e-32 -1.04829e-32)
(-2.14887e-278 7.10132e-32 -3.18504e-32)
(-5.6028e-272 7.63837e-32 -5.44499e-32)
(-1.42722e-265 8.46982e-32 -7.91646e-32)
(-3.5481e-259 9.62795e-32 -1.06952e-31)
(-8.59787e-253 1.11577e-31 -1.38886e-31)
(-2.02806e-246 1.31182e-31 -1.76194e-31)
(-4.64928e-240 1.55853e-31 -2.20301e-31)
(-1.034e-233 1.8654e-31 -2.72884e-31)
(-2.22613e-227 2.24422e-31 -3.35937e-31)
(-4.62758e-221 2.70953e-31 -4.1185e-31)
(-9.25819e-215 3.27911e-31 -5.0351e-31)
(-1.77524e-208 3.97475e-31 -6.14428e-31)
(-3.24408e-202 4.82305e-31 -7.48892e-31)
(-5.60408e-196 5.85652e-31 -9.12154e-31)
(-9.03625e-190 7.11489e-31 -1.11065e-30)
(-1.3302e-183 8.6467e-31 -1.35226e-30)
(-1.70708e-177 1.05112e-30 -1.64659e-30)
(-1.67505e-171 1.27807e-30 -2.0053e-30)
(-4.7472e-166 1.55431e-30 -2.44244e-30)
(3.26643e-159 1.89048e-30 -2.97489e-30)
(1.17197e-152 2.29941e-30 -3.62283e-30)
(2.78808e-146 2.79646e-30 -4.41033e-30)
(5.52461e-140 3.39988e-30 -5.36632e-30)
(9.69559e-134 4.13111e-30 -6.52579e-30)
(1.54362e-127 5.01499e-30 -7.93171e-30)
(2.25285e-121 6.07958e-30 -9.63763e-30)
(3.02629e-115 7.35545e-30 -1.17113e-29)
(3.74337e-109 8.87345e-30 -1.42398e-29)
(4.25498e-103 1.06596e-29 -1.73356e-29)
(4.42628e-97 1.27242e-29 -2.11469e-29)
(4.18851e-91 1.50379e-29 -2.58713e-29)
(3.57585e-85 1.74816e-29 -3.17798e-29)
(2.72425e-79 1.9736e-29 -3.92534e-29)
(1.82533e-73 2.10321e-29 -4.88168e-29)
(1.05474e-67 1.9592e-29 -6.10192e-29)
(5.11641e-62 1.15595e-29 -7.55411e-29)
(2.00692e-56 -9.87281e-30 -8.81843e-29)
(6.04442e-51 -4.92361e-29 -8.53958e-29)
(-1.54076e-281 7.25183e-32 -1.02113e-32)
(-4.30954e-275 7.53137e-32 -3.10253e-32)
(-1.18216e-268 8.10094e-32 -5.30394e-32)
(-3.17828e-262 8.98274e-32 -7.7114e-32)
(-8.36914e-256 1.0211e-31 -1.04182e-31)
(-2.15689e-249 1.18334e-31 -1.35289e-31)
(-5.43627e-243 1.39126e-31 -1.7163e-31)
(-1.3389e-236 1.65291e-31 -2.14595e-31)
(-3.21952e-230 1.97837e-31 -2.65816e-31)
(-7.55148e-224 2.38015e-31 -3.27236e-31)
(-1.726e-217 2.87364e-31 -4.01183e-31)
(-3.84029e-211 3.47773e-31 -4.9047e-31)
(-8.30821e-205 4.2155e-31 -5.98515e-31)
(-1.74561e-198 5.11518e-31 -7.29497e-31)
(-3.55723e-192 6.21125e-31 -8.88532e-31)
(-7.02088e-186 7.54584e-31 -1.08189e-30)
(-1.34005e-179 9.17047e-31 -1.31725e-30)
(-2.46935e-173 1.1148e-30 -1.60398e-30)
(-4.38516e-167 1.35552e-30 -1.95343e-30)
(-7.48983e-161 1.64853e-30 -2.37932e-30)
(-1.22772e-154 2.00513e-30 -2.89809e-30)