/*--------------------------------*- C++ -*----------------------------------*\
| =========                 |                                                 |
| \\      /  F ield         | OpenFOAM: The Open Source CFD Toolbox           |
|  \\    /   O peration     | Version:  4.1                                   |
|   \\  /    A nd           | Web:      www.OpenFOAM.org                      |
|    \\/     M anipulation  |                                                 |
\*---------------------------------------------------------------------------*/
FoamFile
{
    version     2.0;
    format      ascii;
    class       volScalarField;
    location    "22";
    object      p;
}
// * * * * * * * * * * * * * * * * * * * * * * * * * * * * * * * * * * * * * //

dimensions      [0 2 -2 0 0 0 0];

internalField   nonuniform List<scalar> 
26785
(
1.43212
0.761933
0.659674
0.407477
0.23131
0.131649
0.262207
0.484912
0.844811
1.33192
1.96734
2.76586
3.70081
4.79336
6.02084
7.40934
8.92617
10.6234
12.452
14.4823
16.6768
19.059
21.5772
24.2507
27.0454
29.9374
32.8722
35.8208
38.7363
41.5895
44.2993
46.8133
49.0605
51.0119
52.6376
53.9448
54.9377
55.6457
56.0919
56.292
56.2611
56.0317
55.6365
55.0779
54.347
53.4343
52.3533
51.1434
49.7793
48.3079
46.7019
45.0369
43.288
41.5288
39.7171
37.9142
36.0768
34.2752
32.4623
30.7026
28.9573
27.2906
25.6575
24.1058
22.5951
21.1701
19.7916
18.4941
17.2456
16.078
14.9616
13.9198
12.928
12.0061
11.1319
10.3197
9.55136
8.83856
8.16544
7.54028
6.95008
6.40151
5.88357
5.40078
4.94407
4.51683
4.11135
3.72979
3.36579
3.02094
2.68994
2.37388
2.06847
1.77452
1.48871
1.21117
0.941291
0.673475
0.416523
0.114786
1.40395
0.757387
0.658335
0.403292
0.228361
0.129087
0.259673
0.482155
0.842445
1.32973
1.96534
2.76396
3.69864
4.79103
6.01778
7.40609
8.92222
10.6194
12.4473
14.4776
16.6718
19.0542
21.5718
24.2457
27.0408
29.9332
32.8688
35.8193
38.7373
41.5936
44.306
46.8228
49.0719
51.0246
52.6509
53.9588
54.9513
55.659
56.1051
56.3044
56.2719
56.0418
55.6465
55.088
54.3571
53.444
52.3623
51.1518
49.7861
48.3132
46.7049
45.0389
43.2883
41.5287
39.7154
37.9117
36.0724
34.2698
32.4551
30.695
28.9488
27.2822
25.6486
24.097
22.5858
21.1609
19.782
18.4846
17.2359
16.0684
14.952
13.9104
12.9187
11.9971
11.1232
10.3114
9.54335
8.83093
8.15818
7.53342
6.94363
6.39547
5.87795
5.39556
4.93927
4.51241
4.10732
3.72611
3.36247
3.01793
2.68726
2.37147
2.06635
1.77261
1.48704
1.20946
0.940291
0.671203
0.436552
0.091242
1.35626
0.752959
0.657449
0.395985
0.22305
0.124591
0.254806
0.476684
0.837379
1.32493
1.96083
2.75963
3.69391
4.78591
6.01137
7.39896
8.91361
10.6103
12.4368
14.4667
16.6604
19.0427
21.5593
24.2338
27.0298
29.9232
32.8602
35.8146
38.7384
41.6017
44.3204
46.844
49.0981
51.0543
52.6823
53.9916
54.9834
55.6904
56.1365
56.3342
56.2985
56.067
55.6709
55.1123
54.3814
53.4679
52.3852
51.1735
49.8048
48.3289
46.7162
45.0475
43.2936
41.5324
39.716
37.91
36.0671
34.262
32.4445
30.683
28.9354
27.2684
25.6341
24.0822
22.5706
21.1454
19.7662
18.4688
17.2201
16.0529
14.9368
13.8958
12.9046
11.9836
11.1104
10.2992
9.53191
8.82012
8.14811
7.52399
6.93495
6.38742
5.87061
5.38883
4.93321
4.50691
4.10242
3.72171
3.3586
3.01449
2.68428
2.36885
2.06411
1.77067
1.4854
1.20786
0.938945
0.66905
0.439204
0.0973012
1.29343
0.751177
0.656117
0.384725
0.214704
0.117412
0.246807
0.46773
0.828899
1.31693
1.95333
2.75248
3.68632
4.77767
6.00144
7.38777
8.90031
10.5961
12.4211
14.4504
16.6436
19.0257
21.5411
24.2171
27.0147
29.9094
32.8485
35.8086
38.7407
41.6134
44.3408
46.8733
49.1339
51.0937
52.7235
54.0335
55.0231
55.7282
56.1738
56.3689
56.3295
56.0962
55.6983
55.1385
54.4067
53.4919
52.4077
51.1943
49.8225
48.3429
46.7261
45.0543
43.2979
41.5343
39.7157
37.9068
36.0615
34.2536
32.4348
30.6719
28.9246
27.2569
25.6228
24.0702
22.5588
21.1327
19.7536
18.4554
17.2073
16.0397
14.9243
13.8832
12.8929
11.9719
11.0994
10.2884
9.52183
8.81022
8.13887
7.51498
6.9266
6.37936
5.86318
5.38172
4.9267
4.50073
4.09678
3.71639
3.35375
3.00992
2.68011
2.36493
2.06054
1.76732
1.48226
1.20502
0.935106
0.667236
0.417672
0.119616
1.22218
0.755463
0.654933
0.370863
0.204507
0.10857
0.236632
0.456328
0.818017
1.30673
1.94383
2.74349
3.67695
4.76756
5.98959
7.37448
8.8849
10.5798
12.4035
14.4327
16.6262
19.0082
21.5231
24.2009
27.001
29.8971
32.8388
35.8047
38.7454
41.627
44.3619
46.9017
49.1667
51.1276
52.7582
54.0677
55.0541
55.756
56.2009
56.3928
56.3513
56.1182
55.719
55.1575
54.4236
53.5067
52.4206
51.2054
49.831
48.3485
46.7294
45.055
43.2973
41.5311
39.7106
37.8983
36.0512
34.2406
32.4214
30.6575
28.9111
27.2428
25.6095
24.0561
22.5452
21.1181
19.7394
18.4408
17.1934
16.0258
14.9113
13.8704
12.8811
11.9605
11.0888
10.2781
9.5123
8.80102
8.13038
7.50688
6.91921
6.37243
5.85695
5.376
4.92167
4.49622
4.09293
3.71304
3.351
3.00764
2.67834
2.36358
2.05965
1.76681
1.48206
1.20518
0.934511
0.667428
0.405181
0.134979
1.15034
0.763779
0.651036
0.35419
0.192729
0.0984932
0.225089
0.443736
0.806167
1.29589
1.93389
2.73421
3.66738
4.75726
5.97779
7.36141
8.87033
10.5646
12.3874
14.417
16.6116
18.994
21.509
24.1889
26.9911
29.8886
32.8329
35.804
38.7519
41.6401
44.3802
46.9245
49.1908
51.15
52.7807
54.0899
55.0739
55.7732
56.2176
56.4054
56.3617
56.1299
55.7311
55.1698
54.4347
53.5156
52.4276
51.2098
49.8331
48.3476
46.727
45.0505
43.2923
41.5238
39.7019
37.8867
36.0384
34.2254
32.4062
30.6414
28.8957
27.2265
25.5934
24.0388
22.5275
21.0992
19.7203
18.421
17.1739
16.0061
14.8922
13.8515
12.8629
11.9425
11.0715
10.2611
9.49598
8.7851
8.11511
7.49213
6.9052
6.35905
5.84438
5.36415
4.91067
4.48597
4.08352
3.70438
3.34315
3.0005
2.67194
2.35784
2.05458
1.76233
1.4781
1.20168
0.930775
0.663939
0.398096
0.136985
1.09062
0.775593
0.644405
0.336875
0.181312
0.0890677
0.214214
0.432127
0.795352
1.28616
1.92496
2.7258
3.65862
4.74771
5.96689
7.34927
8.85727
10.5511
12.3733
14.4029
16.5989
18.9816
21.4973
24.1786
26.9823
29.8805
32.8276
35.803
38.7568
41.6499
44.3937
46.9412
49.2085
51.1652
52.7956
54.1049
55.0886
55.7872
56.2332
56.4175
56.3697
56.1361
55.738
55.1793
54.4453
53.5258
52.4368
51.217
49.838
48.3496
46.7269
45.0475
43.2871
41.5147
39.6894
37.8696
36.0183
34.202
32.3814
30.6151
28.8691
27.1988
25.565
24.0091
22.4973
21.068
19.6889
18.3895
17.143
15.9757
14.8628
13.823
12.8355
11.916
11.0461
10.2367
9.47267
8.76277
8.09393
7.47203
6.88632
6.34134
5.82793
5.34891
4.89669
4.4732
4.07196
3.69398
3.33389
2.99232
2.66482
2.35171
2.0494
1.75803
1.47459
1.19886
0.928242
0.661883
0.395957
0.136018
1.05488
0.789398
0.635353
0.320249
0.170719
0.0804187
0.204237
0.421792
0.785749
1.27755
1.91692
2.71799
3.65028
4.73833
5.95614
7.33691
8.84416
10.5374
12.3591
14.3878
16.5843
18.9666
21.4831
24.1654
26.9694
29.8678
32.8174
35.7967
38.756
41.6537
44.4011
46.952
49.2226
51.1794
52.8103
54.12
55.1045
55.8039
56.2525
56.4369
56.3853
56.1458
55.7469
55.1917
54.4603
53.5412
52.4506
51.2273
49.8441
48.3507
46.7237
45.0398
43.2755
41.4981
39.6679
37.843
35.9878
34.1682
32.3459
30.5782
28.8317
27.1605
25.5261
23.9693
22.4571
21.0275
19.6487
18.3496
17.1041
15.9378
14.8263
13.7877
12.8016
11.8834
11.0149
10.2067
9.44405
8.73546
8.06801
7.44748
6.86324
6.31969
5.80778
5.33021
4.87946
4.45739
4.05756
3.68093
3.32216
2.98184
2.65555
2.3436
2.0424
1.75207
1.46957
1.19469
0.92475
0.658981
0.394493
0.133098
1.04122
0.7989
0.62386
0.305424
0.161284
0.0726661
0.195281
0.412756
0.777268
1.26986
1.90948
2.71038
3.64174
4.72838
5.94449
7.32287
8.82871
10.5207
12.3414
14.3685
16.5642
18.9448
21.4615
24.1443
26.9477
29.8456
32.7974
35.7803
38.7452
41.6481
44.4002
46.9547
49.231
51.1933
52.8269
54.1377
55.1241
55.8259
56.2777
56.4666
56.4107
56.1629
55.7613
55.2077
54.4774
53.5578
52.4652
51.2377
49.849
48.3495
46.7172
45.0281
43.2587
41.4754
39.6392
37.8085
35.9488
34.1255
32.3009
30.5317
28.7844
27.1122
25.4772
23.9198
22.4075
20.9778
19.5996
18.3014
17.0573
15.8923
14.7824
13.7454
12.761
11.8443
10.9774
10.1709
9.40986
8.70292
8.0372
7.4184
6.83595
6.29419
5.78409
5.30831
4.85935
4.43901
4.04088
3.66587
3.30866
2.96982
2.64497
2.33441
2.03454
1.74546
1.46412
1.19029
0.921386
0.656429
0.394188
0.130459
1.03894
0.794807
0.60816
0.291784
0.152184
0.0649464
0.186562
0.404119
0.768949
1.26197
1.90142
2.70162
3.63152
4.71602
5.92999
7.30531
8.80885
10.4989
12.3182
14.3431
16.5368
18.9147
21.4308
24.1137
26.9161
29.813
32.7664
35.7523
38.7224
41.631
44.3896
46.9495
49.234
51.2063
52.8464
54.1603
55.1499
55.8557
56.3114
56.5071
56.4458
56.1893
55.7847
55.2303
54.4985
53.5769
52.4815
51.249
49.8535
48.3463
46.7069
45.011
43.2348
41.4442
39.601
37.7639
35.8991
34.072
32.245
30.4741
28.7259
27.0529
25.4175
23.8598
22.3477
20.9186
19.5414
18.2445
17.002
15.8388
14.7308
13.6956
12.7132
11.7985
10.9336
10.129
9.36996
8.66504
8.00138
7.38467
6.80434
6.2647
5.75671
5.28302
4.83614
4.41782
4.02165
3.64851
3.29308
2.95593
2.63271
2.32371
2.02536
1.7377
1.4577
1.18509
0.91747
0.65353
0.393887
0.127713
1.04421
0.77509
0.5887
0.279226
0.143244
0.0569257
0.177411
0.394758
0.759486
1.25254
1.89147
2.69063
3.61874
4.70064
5.91209
7.28406
8.78455
10.4718
12.2892
14.3118
16.5029
18.8769
21.3915
24.0738
26.8749
29.77
32.7241
35.712
38.6868
41.6021
44.3684
46.9357
49.2311
51.2167
52.8668
54.1866
55.1806
55.8913
56.3514
56.5544
56.4891
56.2251
55.817
55.258
54.5212
53.596
52.4973
51.2593
49.8554
48.3389
46.6907
44.9867
43.2025
41.4039
39.553
37.7094
35.8395
34.0086
32.1789
30.4064
28.6572
26.9836
25.3479
23.7905
22.279
20.8509
19.4751
18.1799
16.9394
15.7783
14.6724
13.6395
12.6594
11.7469
10.8843
10.082
9.32529
8.62271
7.96144
7.34712
6.7692
6.23194
5.72634
5.255
4.81044
4.3944
4.00043
3.62939
3.27596
2.94071
2.61929
2.31204
2.01537
1.72929
1.45078
1.17953
0.913388
0.650655
0.393729
0.125329
1.07347
0.756153
0.570993
0.267555
0.132884
0.0466723
0.165962
0.383042
0.74764
1.24069
1.87909
2.67711
3.60328
4.68217
5.89062
7.25909
8.75604
10.4399
12.2545
14.2746
16.4627
18.8321
21.3442
24.0253
26.8243
29.7175
32.6712
35.6605
38.6405
41.5629
44.337
46.9143
49.2237
51.2251
52.8888
54.218
55.2184
55.9342
56.3998
56.6103
56.5423
56.2719
55.8589
55.2919
54.5472
53.6171
52.5141
51.269
49.8547
48.3267
46.6679
44.9542
43.1607
41.3532
39.4941
37.6437
35.7685
33.9338
32.1015
30.3274
28.5773
26.9034
25.2677
23.7108
22.2004
20.7738
19.3998
18.1068
16.8686
15.7101
14.6067
13.5764
12.5989
11.689
10.829
10.0294
9.27542
8.57552
7.91695
7.30535
6.73015
6.19559
5.69264
5.22393
4.78197
4.36845
3.97695
3.60826
3.25707
2.92394
2.60455
2.29922
2.00439
1.72005
1.44316
1.17343
0.908898
0.647531
0.393306
0.123141
1.10628
0.731446
0.549757
0.253424
0.119938
0.0340743
0.152448
0.369289
0.73377
1.22677
1.86457
2.66131
3.58531
4.661
5.86591
7.23055
8.72363
10.4035
12.2145
14.2317
16.4163
18.7809
21.2898
23.9686
26.7646
29.6553
32.6073
35.5987
38.5844
41.5127
44.2948
46.885
49.2113
51.2304
52.9102
54.2519
55.2613
55.9819
56.4532
56.6711
56.6013
56.3249
55.9065
55.3291
54.5744
53.6377
52.5288
51.2748
49.848
48.3071
46.6362
44.9121
43.1084
41.2917
39.4242
37.5672
35.6868
33.8486
32.0138
30.2385
28.4878
26.8139
25.1786
23.6227
22.1137
20.689
19.3173
18.0268
16.7914
15.6356
14.5352
13.5078
12.5332
11.6263
10.7692
9.97257
9.22156
8.52462
7.86903
7.26039
6.68816
6.15651
5.65647
5.1906
4.75144
4.34066
3.95181
3.58566
3.2369
2.90608
2.5889
2.28565
1.99278
1.71028
1.43512
1.167
0.904174
0.644283
0.392627
0.121263
1.1343
0.705371
0.527654
0.238009
0.105028
0.019148
0.136568
0.353142
0.717551
1.21052
1.84772
2.6431
3.56477
4.63698
5.83801
7.19841
8.68747
10.3628
12.1697
14.1835
16.3643
18.7237
21.2291
23.9044
26.6965
29.5843
32.5338
35.5282
38.5185
41.4514
44.2439
46.8498
49.195
51.2332
52.9325
54.2904
55.3111
56.0364
56.513
56.7384
56.6674
56.3853
55.9613
55.3717
54.6049
53.6594
52.5419
51.2763
49.835
48.2796
46.5955
44.8599
43.0453
41.2189
39.3427
37.479
35.5935
33.752
31.915
30.1387
28.3876
26.714
25.0794
23.5249
22.0178
20.5955
19.2265
17.9389
16.7065
15.554
14.4567
13.4326
12.4613
11.5577
10.704
9.91063
9.16295
8.46931
7.81701
7.21163
6.64265
6.1142
5.61733
5.15458
4.71848
4.31066
3.92469
3.5613
3.2152
2.88689
2.57212
2.27114
1.98041
1.69988
1.42657
1.16017
0.89913
0.640811
0.391572
0.119632
1.15449
0.679992
0.504335
0.220553
0.0879692
0.00213695
0.11879
0.33517
0.699581
1.19252
1.82906
2.62297
3.54208
4.61062
5.80744
7.16312
8.64779
10.3181
12.1204
14.1302
16.3066
18.6608
21.1621
23.8328
26.6202
29.5043
32.4513
35.448
38.4414
41.3801
44.1859
46.809
49.1728
51.2321
52.9543
54.3311
55.364
56.0936
56.5751
56.8075
56.7355
56.4487
56.0184
55.4156
54.6353
53.6784
52.5493
51.2699
49.8126
48.242
46.5441
44.7968
42.971
41.1349
39.2501
37.3801
35.4898
33.6453
31.8064
30.0295
28.2784
26.6056
24.9723
23.4196
21.9148
20.4953
19.1293
17.845
16.6161
15.467
14.3733
13.3527
12.385
11.485
10.6349
9.8451
9.10099
8.41092
7.76215
7.16028
6.59476
6.06971
5.57621
5.11676
4.68391
4.27922
3.89628
3.53581
3.1925
2.86686
2.55463
2.25606
1.96758
1.6891
1.41771
1.15311
0.893896
0.637213
0.390213
0.118233
1.16375
0.654514
0.478992
0.200691
0.0687458
-0.0170195
0.0989881
0.315233
0.679692
1.1726
1.80845
2.60077
3.51713
4.58172
5.77407
7.12473
8.60459
10.2696
12.0672
14.0724
16.2438
18.5928
21.0892
23.7548
26.5372
29.4164
32.3607
35.3584
38.3552
41.302
44.1223
46.763
49.1457
51.2294
52.9783
54.3761
55.4212
56.1555
56.6419
56.8803
56.8059
56.5173
56.0801
55.4634
54.6676
53.6959
52.5515
51.2559
49.7811
48.1946
46.4824
44.7227
42.8853
41.0395
39.1461
37.2699
35.3748
33.5276
31.6871
29.9099
28.1592
26.4876
24.8559
23.3055
21.8034
20.387
19.0244
17.7438
16.5187
15.3735
14.2836
13.2669
12.3031
11.4071
10.5608
9.77495
9.03471
8.34848
7.70356
7.10547
6.54369
6.02233
5.53246
5.07657
4.6472
4.24587
3.86617
3.5088
3.16849
2.8457
2.5362
2.2402
1.9541
1.67779
1.40841
1.14572
0.888387
0.633428
0.388534
0.117022
1.16445
0.629994
0.452716
0.179354
0.0481323
-0.037615
0.0777927
0.293898
0.658408
1.15123
1.7863
2.57694
3.49028
4.55076
5.73833
7.08364
8.55815
10.2174
12.01
14.0105
16.1761
18.5196
21.0105
23.6703
26.4478
29.3203
32.2615
35.26
38.2611
41.2172
44.0512
46.7092
49.1126
51.2244
53.0017
54.4208
55.4781
56.218
56.7091
56.9511
56.8726
56.5858
56.1415
55.5106
54.6973
53.7071
52.5446
51.2311
49.7383
48.1357
46.409
44.6371
42.7883
40.9329
39.0315
37.1494
35.25
33.4005
31.5588
29.7818
28.032
26.362
24.7323
23.1847
21.6857
20.2729
18.914
17.6375
16.4164
15.2754
14.1897
13.1772
12.2176
11.3257
10.4836
9.70184
8.96568
8.2835
7.64262
7.0485
6.49067
5.97318
5.48712
5.03496
4.60925
4.21144
3.83511
3.48096
3.14377
2.82397
2.5173
2.22396
1.94032
1.66623
1.39891
1.13817
0.882737
0.629552
0.386583
0.116083
1.15963
0.605966
0.425162
0.156047
0.0256211
-0.0601373
0.0547794
0.27083
0.63543
1.12816
1.7624
2.55125
3.46145
4.5175
5.70006
7.03986
8.50864
10.1619
11.9493
13.9447
16.104
18.4415
20.9269
23.5808
26.3526
29.2169
32.155
35.1552
38.1611
41.1256
43.9735
46.6488
49.0763
51.2192
53.0258
54.4668
55.5369
56.2836
56.7784
57.0222
56.9376
56.6566
56.2055
55.5592
54.7257
53.7133
52.5296
51.1968
49.6851
48.0661
46.3246
44.5401
42.6797
40.8151
38.9056
37.018
35.1146
33.2629
31.4204
29.6439
27.8953
26.2274
24.6003
23.0557
21.5603
20.1514
18.7966
17.5244
16.3078
15.1712
14.0901
13.0821
12.1269
11.2395
10.4019
9.62453
8.89275
8.21487
7.57828
6.9884
6.43476
5.92138
5.4394
4.99122
4.56938
4.1753
3.80256
3.45184
3.11797
2.80131
2.49763
2.20708
1.92602
1.65427
1.3891
1.13038
0.876855
0.625519
0.38425
0.115522
1.15043
0.582597
0.397238
0.131667
0.0020487
-0.083733
0.0307194
0.246687
0.611346
1.10391
1.73722
2.52414
3.431
4.48248
5.65964
6.9937
8.45635
10.1032
11.885
13.8752
16.0277
18.3584
20.8386
23.4863
26.2507
29.1059
32.0417
35.0434
38.0528
41.0251
43.8873
46.5807
49.0356
51.2106
53.046
54.509
55.5924
56.3465
56.8446
57.0881
56.9962
56.7225
56.2655
55.6031
54.7468
53.7095
52.5029
51.15
49.6194
47.9844
46.2281
44.4314
42.5598
40.6863
38.7695
36.8769
34.97
33.1169
31.2739
29.4984
27.7515
26.086
24.4619
22.921
21.4294
20.0248
18.6745
17.4069
16.195
15.0633
13.9869
12.9836
12.0332
11.1505
10.3175
9.54476
8.81756
8.14418
7.51204
6.92655
6.37727
5.86817
5.3904
4.94633
4.52851
4.1383
3.76928
3.42213
3.09168
2.77826
2.47765
2.18999
1.91158
1.64222
1.37924
1.12255
0.8709
0.621432
0.381584
0.115364
1.13614
0.558378
0.368136
0.105511
-0.0232211
-0.108993
0.00508178
0.221032
0.585771
1.07817
1.71051
2.49537
3.39877
4.44547
5.61691
6.94514
8.40137
10.0415
11.8178
13.8022
15.9477
18.2714
20.7464
23.3883
26.1426
28.9891
31.9236
34.9255
37.937
40.9177
43.7941
46.5081
48.9935
51.2004
53.0643
54.5496
55.6473
56.409
56.9102
57.1511
57.0509
56.7853
56.3228
55.643
54.7619
53.6978
52.4666
51.0927
49.5428
47.8915
46.1204
44.3112
42.4284
40.5464
38.6225
36.7253
34.8153
32.961
31.118
29.3438
27.5989
25.9364
24.3156
22.7786
21.2914
19.8913
18.5459
17.2833
16.0764
14.9497
13.8784
12.8802
11.9348
11.057
10.229
9.46112
8.73877
8.07015
7.4427
6.86184
6.31718
5.81258
5.33924
4.89949
4.48591
4.09977
3.7347
3.39131
3.06446
2.75442
2.45703
2.17238
1.89676
1.6299
1.36919
1.11459
0.864801
0.617234
0.378609
0.11541
1.11744
0.533795
0.338774
0.078546
-0.049296
-0.13504
-0.0213326
0.194563
0.559333
1.05149
1.68273
2.46543
3.36513
4.40698
5.57233
6.89446
8.34383
9.97704
11.7474
13.7258
15.8641
18.1805
20.6503
23.2858
26.0277
28.8665
31.7992
34.7995
37.8127
40.8024
43.693
46.4305
48.9474
51.185
53.0762
54.5837
55.6955
56.465
56.9696
57.2053
57.0948
56.837
56.3696
55.672
54.7652
53.6735
52.4173
51.0221
49.4533
47.7861
46.0005
44.1792
42.2859
40.3959
38.4657
36.5646
34.6521
32.7973
30.9548
29.1824
27.44
25.7808
24.1639
22.6312
21.1486
19.7536
18.4132
17.1558
15.9543
14.833
13.7669
12.774
11.8338
10.9612
10.1383
9.37542
8.6581
7.99439
7.3718
6.79573
6.25584
5.75588
5.28708
4.85175
4.44253
4.0606
3.6996
3.36009
3.03692
2.73035
2.43624
2.15468
1.88189
1.61761
1.3592
1.10669
0.858746
0.61305
0.375562
0.115455
1.09534
0.508399
0.308534
0.0500497
-0.0768895
-0.162541
-0.0491161
0.166792
0.531596
1.02351
1.65359
2.43405
3.3299
4.36668
5.52581
6.84165
8.2839
9.91019
11.6744
13.6468
15.7776
18.0868
20.5515
23.1789
25.9072
28.74
31.6698
34.6673
37.6822
40.6815
43.5872
46.3514
48.8997
51.1664
53.0847
54.6145
55.7407
56.5182
57.0245
57.251
57.1275
56.8784
56.4074
55.6918
54.759
53.6393
52.3573
50.9404
49.3524
47.6694
45.8691
44.0359
42.1321
40.2345
38.2983
36.3937
34.4792
32.6242
30.7827
29.0125
27.273
25.6175
24.0047
22.4768
20.9992
19.6095
18.2745
17.0227
15.8268
14.711
13.6506
12.6632
11.7285
10.8613
10.0437
9.28613
8.57406
7.91549
7.29801
6.72698
6.19208
5.69699
5.23296
4.80226
4.39759
4.02007
3.66332
3.32787
3.00858
2.70564
2.41495
2.13658
1.86674
1.60512
1.34911
1.09875
0.852657
0.608839
0.372486
0.115382
1.07197
0.483285
0.278443
0.0210411
-0.105069
-0.190595
-0.0774541
0.138421
0.503192
0.994788
1.6236
2.4017
3.29349
4.32505
5.4778
6.78698
8.22173
9.84077
11.5985
13.565
15.6877
17.9899
20.4495
23.0663
25.7813
28.6087
31.5342
34.5277
37.5446
40.5533
43.4762
46.2687
48.8464
51.1406
53.085
54.6361
55.777
56.5629
57.0689
57.2793
57.145
56.9044
56.4296
55.696
54.7378
53.5907
52.2832
50.8447
49.238
47.5398
45.7256
43.8811
41.9675
40.0631
38.1217
36.2144
34.2985
32.444
30.604
28.8365
27.1004
25.4491
23.8408
22.318
20.8458
19.4617
18.1324
16.8864
15.6963
14.5863
13.5317
12.55
11.6211
10.7594
9.94732
9.19517
8.48847
7.83517
7.22295
6.65709
6.12728
5.63718
5.17806
4.75215
4.35212
3.97909
3.62668
3.29539
2.98008
2.68088
2.39367
2.11852
1.85165
1.59273
1.33916
1.09097
0.846713
0.604737
0.36952
0.115245
1.04612
0.457283
0.247596
-0.00929748
-0.134598
-0.219908
-0.10698
0.108914
0.473652
0.964918
1.59241
2.36807
3.25571
4.28175
5.42812
6.73048
8.15748
9.7692
11.5206
13.4812
15.5953
17.891
20.3448
22.9493
25.6522
28.4749
31.3946
34.3831
37.4024
40.4209
43.3635
46.1848
48.7899
51.1105
53.0805
54.6526
55.8094
56.6033
57.1068
57.2905
57.1573
56.92
56.4389
55.6872
54.7045
53.5306
52.1974
50.7369
49.1114
47.3982
45.5704
43.7149
41.7919
39.881
37.9349
36.0252
34.1085
32.255
30.4169
28.6525
26.9202
25.2733
23.67
22.1526
20.6861
19.3079
17.9846
16.7447
15.5606
14.4568
13.4081
12.4324
11.5095
10.6537
9.84736
9.10085
8.39973
7.75194
7.14521
6.58472
6.0602
5.5753
5.12136
4.70045
4.30528
3.93692
3.58902
3.26204
2.9509
2.6556
2.37201
2.10018
1.83638
1.58025
1.32919
1.08321
0.840826
0.600693
0.366615
0.115045
1.01845
0.431024
0.216848
-0.0399693
-0.164525
-0.24958
-0.136875
0.0789889
0.443627
0.934479
1.56055
2.33363
3.21692
4.23732
5.37712
6.6724
8.09113
9.69526
11.4405
13.3948
15.5001
17.7895
20.2364
22.8275
25.52
28.3374
31.2491
34.2313
37.2536
40.2827
43.2469
46.0953
48.7254
51.0714
53.066
54.6581
55.8311
56.6329
57.1354
57.2819
57.1602
56.9198
56.4293
55.6599
54.6542
53.4548
52.0966
50.6144
48.9708
47.2435
45.4028
43.5373
41.6059
39.6895
37.7394
35.8282
33.9112
32.0594
30.2238
28.4632
26.7351
25.0931
23.4951
21.9835
20.5229
19.1509
17.8339
16.6003
15.4226
14.325
13.2825
12.3129
11.396
10.5463
9.74591
9.00518
8.30974
7.6676
7.06647
6.51147
5.99234
5.51275
5.06408
4.64831
4.25811
3.89451
3.5512
3.22862
2.92171
2.63041
2.35049
2.08202
1.82131
1.56798
1.31946
1.0757
0.835178
0.59685
0.363916
0.114833
0.987709
0.403276
0.185222
-0.0718548
-0.195664
-0.280355
-0.167793
0.0480902
0.41263
0.903052
1.52765
2.29806
3.17689
4.19148
5.32464
6.61272
8.02296
9.61969
11.3588
13.3066
15.4032
17.6867
20.1253
22.7031
25.387
28.1977
31.099
34.0748
37.101
40.142
43.1287
46.0024
48.6559
51.0269
53.0452
54.6578
55.8468
56.6556
57.1569
57.2598
57.1558
56.9071
56.4041
55.6178
54.5903
53.3662
51.983
50.4791
48.8176
47.0765
45.2233
43.3482
41.4089
39.4876
37.534
35.6217
33.7051
31.8553
30.0227
28.2662
26.5427
24.906
23.3136
21.808
20.3538
18.9882
17.6777
16.4507
15.2796
14.1886
13.1526
12.1893
11.2787
10.4351
9.641
8.90632
8.21681
7.58051
6.98522
6.43591
5.92241
5.44833
5.00514
4.59472
4.20969
3.85105
3.51252
3.1945
2.89199
2.60483
2.32872
2.06371
1.80616
1.55573
1.30979
1.06828
0.829667
0.593144
0.361385
0.114674
0.957033
0.375767
0.15386
-0.103901
-0.227051
-0.311342
-0.198931
0.016921
0.381294
0.871201
1.49421
2.26184
3.136
4.14477
5.27098
6.55152
7.95293
9.54216
11.2751
13.2162
15.3041
17.5815
20.0106
22.5756
25.2515
28.0529
30.9416
33.9118
36.9427
39.9966
43.0052
45.9014
48.5769
50.9719
53.0123
54.645
55.8481
56.6638
57.1622
57.2237
57.134
56.8742
56.358
55.5557
54.508
53.2605
51.8535
50.3287
48.6502
46.8963
45.0316
43.1479
41.2017
39.2765
37.3205
35.408
33.4923
31.6452
29.8163
28.0644
26.346
24.7151
23.1286
21.6294
20.1816
18.8227
17.5191
16.2988
15.1345
14.0502
13.021
12.0642
11.16
10.3227
9.53486
8.80636
8.12292
7.49258
6.90321
6.3597
5.85193
5.38348
4.94586
4.54087
4.16112
3.80754
3.47387
3.16049
2.86243
2.57947
2.30723
2.04571
1.79133
1.54379
1.30043
1.06117
0.824463
0.589723
0.359112
0.114779
0.925318
0.347388
0.121764
-0.137006
-0.259514
-0.343288
-0.230957
-0.0151008
0.349109
0.838493
1.45986
2.22461
3.09398
4.09682
5.21605
6.48889
7.8813
9.46328
11.1901
13.1244
15.204
17.475
19.8938
22.4472
25.1149
27.9046
30.7798
33.7461
36.7819
39.8495
42.8789
45.7956
48.4924
50.9106
52.972
54.6251
55.8394
56.6606
57.1536
57.1829
57.0993
56.826
56.2958
55.4778
54.4108
53.1406
51.7101
50.1647
48.4698
46.7034
44.8279
42.9362
40.9837
39.0551
37.0973
35.1852
33.2711
31.4271
29.6021
27.8552
26.1424
24.5175
22.9374
21.4448
20.0039
18.6519
17.3552
16.142
14.9848
13.9074
12.8851
11.9352
11.0376
10.2068
9.42546
8.70336
8.02627
7.40211
6.81886
6.28136
5.77956
5.31695
4.8851
4.48574
4.11148
3.76314
3.43452
3.12595
2.83249
2.55386
2.28561
2.02769
1.77655
1.53197
1.29122
1.05423
0.81944
0.586481
0.356995
0.115082
0.893253
0.319251
0.0899933
-0.170091
-0.29206
-0.375311
-0.26309
-0.047281
0.316702
0.805489
1.42511
2.18685
3.05126
4.0481
5.16017
6.4248
7.80784
9.38259
11.1036
13.0305
15.102
17.366
19.7739
22.3165
24.975
27.7506
30.6122
33.5755
36.6162
39.6977
42.7458
45.6807
48.3978
50.8373
52.9185
54.5903
55.812
56.6384
57.1242
57.1288
57.0456
56.7574
56.2123
55.3792
54.294
53.0026
51.5501
49.985
48.2748
46.4971
44.6119
42.7136
40.756
38.825
36.8663
34.9555
33.0438
31.2036
29.3831
27.6417
25.9348
24.3164
22.743
21.2574
19.8236
18.4788
17.1893
15.9833
14.8333
13.763
12.7477
11.8049
10.9141
10.09
9.31518
8.59956
7.92892
7.31107
6.73402
6.20262
5.70688
5.25022
4.82422
4.43056
4.06187
3.71887
3.39537
3.09168
2.80288
2.5286
2.26438
2.01011
1.76223
1.52059
1.28241
1.04765
0.814763
0.583519
0.355167
0.115318
0.859145
0.289887
0.0574057
-0.204134
-0.325545
-0.408153
-0.295981
-0.0801934
0.283566
0.771734
1.38959
2.1482
3.00757
3.9982
5.10325
6.35939
7.73304
9.30083
11.0162
12.9356
14.9991
17.2559
19.6528
22.1856
24.8336
27.5937
30.4423
33.4034
36.4489
39.5442
42.6092
45.5611
48.2976
50.7566
52.857
54.5461
55.7722
56.602
57.079
57.0631
56.9781
56.6741
56.1127
55.2641
54.1612
52.8494
51.3757
49.7912
48.0664
46.2779
44.3837
42.4794
40.5175
38.5848
36.6258
34.7169
32.8081
30.9722
29.1567
27.4212
25.7205
24.1089
22.5425
21.0643
19.6378
18.3004
17.0184
15.8199
14.6773
13.6145
12.6065
11.6707
10.7871
9.9699
9.2019
8.49296
7.82899
7.21767
6.64706
6.12196
5.63248
5.18198
4.76205
4.37429
4.01136
3.67387
3.35569
3.05704
2.77304
2.50322
2.24316
1.99261
1.74809
1.50944
1.27385
1.04132
0.810317
0.580703
0.353608
0.11513
0.824145
0.260277
0.0250224
-0.238065
-0.358985
-0.440952
-0.328865
-0.113153
0.250313
0.737775
1.35376
2.10914
2.96331
3.94761
5.04551
6.29257
7.65676
9.21774
10.9272
12.8386
14.8943
17.1435
19.5294
22.0526
24.6885
27.4315
30.2678
33.2266
36.2771
39.3852
42.465
45.4322
48.1864
50.6627
52.7811
54.4841
55.7127
56.5442
57.0081
56.9751
56.8889
56.5695
55.9914
55.1274
54.0077
52.6773
51.1843
49.5819
47.8436
46.0455
44.1433
42.2346
40.2695
38.3363
36.378
34.4719
32.5668
30.736
28.926
27.1969
25.5029
23.8984
22.3393
20.8686
19.4498
18.1201
16.8457
15.6549
14.52
13.4647
12.4641
11.5357
10.6593
9.84914
9.08804
8.38588
7.72866
7.12397
6.55987
6.04117
5.55803
5.11377
4.69998
4.3182
3.96108
3.62918
3.31638
3.02285
2.74367
2.47834
2.22245
1.97565
1.7345
1.49883
1.26578
1.03542
0.80627
0.57819
0.352401
0.114595
0.789204
0.229933
-0.00809519
-0.272851
-0.39325
-0.474445
-0.362381
-0.146732
0.216441
0.703179
1.31724
2.06928
2.91819
3.89608
4.98674
6.22442
7.57948
9.13416
10.8372
12.7406
14.789
17.0304
19.4058
21.9196
24.5418
27.2671
30.0918
33.0485
36.1043
39.2244
42.317
45.2988
48.0691
50.5611
52.6965
54.4114
55.6409
56.4707
56.9163
56.8718
56.7832
56.4484
55.853
54.9729
53.837
52.4891
50.978
49.3583
47.6074
45.8
43.8907
41.9782
40.0109
38.0778
36.1208
34.2181
32.3173
30.492
28.688
26.9657
25.2787
23.6817
22.1303
20.6674
19.2565
17.9348
16.6683
15.4854
14.3584
13.3109
12.318
11.3971
10.5282
9.72534
8.97139
8.27623
7.62597
7.0281
6.47075
5.95864
5.48207
5.04424
4.63681
4.2612
3.91006
3.58393
3.2767
2.98844
2.71422
2.45348
2.20186
1.9589
1.7212
1.48852
1.25805
1.02986
0.802513
0.575901
0.351325
0.114012
0.754919
0.199892
-0.0408791
-0.307406
-0.427347
-0.507805
-0.395813
-0.180274
0.182539
0.668485
1.2805
2.02911
2.87259
3.84413
4.92706
6.15493
7.50091
9.04933
10.7457
12.6407
14.682
16.9153
19.2803
21.7843
24.3907
27.0974
29.9112
32.866
35.9271
39.0576
42.1609
45.1557
47.9402
50.4461
52.5959
54.3185
55.5477
56.3723
56.7949
56.7453
56.6533
56.3037
55.6913
54.7956
53.6449
52.2815
50.7543
49.1192
47.3569
45.5415
43.6265
41.7114
39.7431
37.8114
35.8569
33.9585
32.0627
30.2436
28.4461
26.731
25.0516
23.4625
21.919
20.4642
19.0614
17.7478
16.4895
15.3147
14.1957
13.1561
12.1712
11.258
10.3967
9.60118
8.85448
8.16641
7.52317
6.93219
6.38165
5.87623
5.40626
4.97495
4.57394
4.20457
3.85948
3.53916
3.23754
2.95461
2.68539
2.42927
2.18192
1.9428
1.70853
1.47883
1.2509
1.02482
0.799187
0.573976
0.350342
0.113805
0.719461
0.169119
-0.0742841
-0.342686
-0.462145
-0.541755
-0.429784
-0.214341
0.148117
0.63325
1.24319
1.98824
2.82618
3.79139
4.86639
6.08446
7.42158
8.96395
10.6536
12.5402
14.5748
16.7998
19.155
21.6486
24.2377
26.9259
29.7298
32.683
35.7493
38.8887
42.0013
45.008
47.805
50.3232
52.4849
54.2116
55.4389
56.2531
56.6497
56.6023
56.5044
56.1403
55.5109
54.5996
53.435
52.0571
50.5154
48.8654
47.0925
45.2698
43.3499
41.4331
39.4645
37.5351
35.5837
33.6902
31.8
29.9875
28.1971
26.4896
24.818
23.2371
21.7019
20.2556
18.8612
17.5561
16.3062
15.1397
14.0291
12.9977
12.0208
11.1156
10.2621
9.47422
8.73499
8.05422
7.41821
6.83432
6.2908
5.79225
5.32912
4.90452
4.51013
4.14718
3.80834
3.494
3.19817
2.92071
2.65663
2.40524
2.16224
1.92702
1.69624
1.46955
1.24415
1.02018
0.796178
0.572309
0.3493
0.114032
0.683635
0.138413
-0.107374
-0.377646
-0.496678
-0.575504
-0.463613
-0.248301
0.113735
0.59798
1.20575
1.94716
2.77938
3.73829
4.80485
6.01284
7.34114
8.87745
10.5599
12.438
14.4659
16.6823
19.0278
21.5098
24.0798
26.7496
29.5443
32.496
35.5669
38.7132
41.8332
44.8501
47.6572
50.1851
52.354
54.0798
55.3036
56.1042
56.4721
56.4332
56.3281
55.9511
55.306
54.3805
53.2033
51.813
50.2589
48.596
46.814
44.9852
43.0619
41.145
39.1773
37.2512
35.3041
33.4165
31.5326
29.7275
27.9446
26.2452
24.5818
23.0094
21.4828
20.0453
18.6596
17.3631
16.1218
14.9639
13.8617
12.8387
11.87
10.9729
10.1273
9.3472
8.61554
7.94214
7.31343
6.73667
6.20022
5.70861
5.25236
4.83452
4.44681
4.09033
3.7578
3.44949
3.15947
2.88753
2.62861
2.38198
2.14332
1.91202
1.68471
1.46097
1.23802
1.01611
0.793639
0.571015
0.348308
0.114656
0.646206
0.106514
-0.141207
-0.41324
-0.531796
-0.609729
-0.497872
-0.282693
0.0789297
0.562254
1.16779
1.90544
2.7319
3.68453
4.74234
5.94032
7.26027
8.79059
10.4656
12.3353
14.3569
16.5646
18.9009
21.3702
23.92
26.5724
29.3588
32.3092
35.3839
38.535
41.6614
44.6873
47.5023
50.0368
52.2077
53.9293
55.148
55.9321
56.2676
56.2435
56.1295
55.7411
55.0809
54.1418
52.9529
51.5514
49.9864
48.3114
46.5214
44.6873
42.7613
40.8453
38.8795
36.9574
35.0154
33.1342
31.2573
29.46
27.6852
25.9942
24.3394
22.7758
21.2582
19.8296
18.453
17.1655
15.9332
14.7841
13.6906
12.6762
11.716
10.8271
9.98978
9.21758
8.4937
7.82789
7.20667
6.63725
6.10806
5.62358
5.17442
4.76353
4.3827
4.03289
3.70684
3.40475
3.12069
2.8544
2.60078
2.35904
2.12482
1.89748
1.67367
1.45288
1.2324
1.01253
0.791485
0.569991
0.347328
0.115502
0.610753
0.0751206
-0.174685
-0.448456
-0.566568
-0.643696
-0.53194
-0.316927
0.0442237
0.526562
1.12979
1.86356
2.68414
3.63044
4.67894
5.86668
7.17863
8.70263
10.3697
12.2313
14.2461