/*--------------------------------*- C++ -*----------------------------------*\
| =========                 |                                                 |
| \\      /  F ield         | OpenFOAM: The Open Source CFD Toolbox           |
|  \\    /   O peration     | Version:  4.1                                   |
|   \\  /    A nd           | Web:      www.OpenFOAM.org                      |
|    \\/     M anipulation  |                                                 |
\*---------------------------------------------------------------------------*/
FoamFile
{
    version     2.0;
    format      ascii;
    class       surfaceScalarField;
    location    "22";
    object      phi;
}
// * * * * * * * * * * * * * * * * * * * * * * * * * * * * * * * * * * * * * //

dimensions      [0 3 -1 0 0 0 0];

internalField   nonuniform List<scalar> 
52920
(
2009.35
-98.8692
2101.65
-94.2702
2195.32
-94.5695
2286.69
-93.2094
2379.02
-91.9198
2468.47
-90.9647
2558.38
-89.9876
2646.45
-88.9169
2734.15
-87.873
2820.53
-86.844
2905.77
-85.725
2989.89
-84.5088
3072.52
-83.0802
3153.31
-81.5003
3232.21
-79.6616
3309.45
-77.6915
3384.02
-75.4254
3456.74
-73.0671
3526.4
-70.3744
3593.54
-67.5804
3657.42
-64.4926
3718.32
-61.3351
3775.76
-57.9153
3829.82
-54.4084
3880.36
-50.8776
3927.62
-47.4855
3971.68
-44.2884
4013.08
-41.5617
4052.46
-39.5703
4091.05
-38.7005
4130.01
-39.097
4170.91
-40.9758
4215.23
-44.397
4264.56
-49.3566
4319.98
-55.4412
4382.27
-62.2638
4451.47
-69.2531
4527.41
-75.8787
4609.08
-81.773
4695.77
-86.9476
4786.91
-91.5188
4882.19
-95.8013
4981.77
-100.204
5085.79
-104.734
5194.5
-109.285
5307.32
-113.639
5423.52
-117.698
5544.86
-121.705
5668.54
-125.131
5796.75
-128.407
5926.29
-131.025
6059.54
-133.46
6193.22
-135.243
6329.84
-136.743
6466.07
-137.565
6604.29
-138.083
6741.1
-138.031
6879.05
-137.773
7015.21
-137.083
7151.82
-136.279
7286.22
-135.176
7420.56
-134.013
7552.64
-132.62
7684.22
-131.198
7813.43
-129.627
7941.82
-128.063
8067.94
-126.405
8193.01
-124.778
8315.89
-123.11
8437.6
-121.491
8557.28
-119.855
8675.72
-118.275
8792.27
-116.705
8907.57
-115.195
9021.14
-113.708
9133.5
-112.286
9244.27
-110.901
9353.89
-109.584
9462.08
-108.314
9569.21
-107.112
9675.05
-105.965
9779.95
-104.888
9883.7
-103.871
9986.62
-102.921
10088.5
-102.034
10189.8
-101.211
10290.1
-100.45
10389.9
-99.75
10488.9
-99.1089
10587.4
-98.5224
10685.3
-97.9911
10782.8
-97.5069
10879.8
-97.0742
10976.5
-96.674
11072.8
-96.3372
11168.7
-95.9279
11264.6
-95.861
11359.4
-94.8183
11457.5
-98.1397
-93.8982
2155.34
-206.349
2258.02
-199.366
2362.58
-200.215
2465.3
-197.931
2569.52
-195.752
2670.95
-194.05
2773.27
-192.443
2873.92
-190.531
2974.54
-188.741
3074.03
-186.866
3172.58
-184.853
3270.13
-182.514
3366.27
-179.773
3460.52
-176.557
3552.84
-172.862
3643.4
-168.779
3731.21
-164.173
3817.01
-159.258
3899.71
-153.824
3979.76
-148.082
4056.5
-141.853
4130.12
-135.406
4200.25
-128.524
4266.94
-121.436
4330.06
-114.331
4389.85
-107.487
4446.4
-101.058
4500.26
-95.5993
4552.11
-91.6384
4603.12
-89.8553
4654.44
-90.6097
4707.57
-94.1994
4763.94
-100.859
4825.05
-110.441
4891.91
-122.226
4965.15
-135.35
5044.69
-148.67
5130.21
-161.147
5220.58
-172.093
5314.99
-181.485
5412.81
-189.591
5513.7
-197.083
5617.73
-204.745
5724.93
-212.551
5835.43
-220.287
5948.59
-227.55
6063.65
-234.215
6182.21
-240.574
6301.58
-245.932
6423.8
-250.81
6545.87
-254.606
6670.04
-257.88
6793.24
-260.079
6917.86
-261.597
7040.83
-261.975
7164.43
-261.694
7285.53
-260.502
7406.63
-258.851
7525.01
-256.554
7642.88
-254.001
7757.8
-251.054
7871.88
-247.948
7983.08
-244.557
8093.15
-241.077
8200.36
-237.452
8306.23
-233.799
8409.43
-230.08
8511.16
-226.389
8610.35
-222.714
8708.01
-219.097
8803.33
-215.522
8897.1
-212.023
8988.69
-208.601
9078.74
-205.265
9166.78
-202.014
9253.32
-198.859
9337.98
-195.807
9421.19
-192.856
9502.67
-190.012
9582.78
-187.275
9661.27
-184.654
9738.46
-182.141
9814.16
-179.746
9888.65
-177.458
9961.75
-175.288
10033.7
-173.223
10104.4
-171.271
10174.1
-169.418
10242.5
-167.672
10310
-166.017
10376.3
-164.46
10441.8
-162.984
10506.3
-161.598
10569.9
-160.278
10632.5
-159.038
10694.4
-157.816
10755.2
-156.68
10815.8
-155.381
10872.3
-154.673
-154.921
2315.68
-321.583
2430.08
-315.563
2546.33
-317.33
2660.56
-313.933
2775.49
-310.288
2887
-307.006
2998.3
-303.793
3106.98
-300.005
3214.45
-296.345
3319.63
-292.461
3422.64
-288.293
3523.36
-283.572
3621.39
-278.211
3716.29
-272.084
3808.03
-265.31
3896.81
-257.962
3981.78
-249.947
4063.7
-241.5
4141.64
-232.459
4216.16
-223.024
4286.76
-213.059
4353.78
-202.865
4417.02
-192.24
4476.68
-181.454
4532.8
-170.798
4585.69
-160.614
4635.51
-151.123
4682.78
-143.037
4728.04
-137.081
4772.16
-134.093
4815.92
-134.513
4860.31
-138.676
4906.16
-146.812
4954.34
-158.69
5005.3
-173.278
5059.32
-189.41
5116.14
-205.635
5175.51
-220.561
5236.55
-233.335
5298.64
-243.945
5361.29
-252.718
5424.15
-260.588
5487.22
-268.561
5550.43
-276.599
5613.86
-284.378
5676.86
-291.512
5738.8
-297.964
5801.55
-303.728
5862.56
-308.72
5924.31
-312.77
5983.91
-316.035
6044.13
-318.301
6101.97
-319.857
6160.47
-320.191
6216.65
-319.798
6273.43
-318.227
6327.68
-316.291
6382.54
-313.399
6435.21
-310.39
6488.44
-306.717
6539.58
-303.168
6591.22
-299.077
6641.12
-295.113
6691.36
-290.733
6739.96
-286.557
6788.74
-282.07
6836.1
-277.776
6883.47
-273.284
6929.5
-269.015
6975.39
-264.623
7020.09
-260.418
7064.51
-256.151
7107.8
-252.069
7150.7
-247.967
7192.55
-244.027
7233.93
-240.101
7274.31
-236.339
7314.15
-232.618
7353.03
-229.054
7391.35
-225.551
7428.75
-222.212
7465.57
-218.948
7501.52
-215.849
7536.9
-212.835
7571.45
-209.988
7605.45
-207.233
7638.68
-204.642
7671.4
-202.143
7703.4
-199.806
7734.95
-197.558
7765.84
-195.464
7796.32
-193.456
7826.2
-191.586
7855.75
-189.811
7884.73
-188.098
7913.6
-186.658
7941.42
-184.567
7970.55
-184.488
7992.91
-177.075
-182.396
2454.67
-439.689
2572.31
-435.24
2689.25
-435.21
2801.83
-428.218
2912.48
-420.557
3017.3
-413.256
3119.32
-405.894
3216.3
-397.853
3309.6
-389.859
3398.16
-381.534
3482.14
-372.828
3561.47
-363.363
3635.88
-353.19
3705.06
-342.065
3769.16
-330.317
3828.57
-317.938
3882.64
-305.005
3932.38
-291.677
3977.05
-277.958
4017.46
-263.956
4053.32
-249.626
4085.23
-235.287
4113.14
-220.711
4137.52
-206.23
4158.48
-192.135
4176.44
-178.829
4191.55
-166.483
4204.25
-155.948
4214.81
-147.889
4223.76
-143.201
4231.35
-142.314
4238.02
-145.418
4243.89
-152.745
4249.18
-163.867
4253.79
-177.708
4257.73
-193.036
4260.72
-208.321
4262.9
-222.228
4263.8
-234.003
4263.22
-243.409
4260.93
-250.669
4256.87
-256.983
4251.24
-263.578
4244.17
-270.324
4236.06
-276.906
4226.54
-283.114
4215.54
-289.319
4206.32
-295.048
4196.46
-301.339
4190.08
-306.819
4184.15
-312.852
4183.06
-317.811
4183.39
-323.207
4189.7
-327.084
4198.26
-331.041
4213.18
-333.338
4230.16
-335.807
4253.35
-336.71
4278.65
-337.719
4309.5
-337.447
4341.9
-337.323
4378.99
-336.059
4417.31
-334.774
4459.33
-332.546
4501.97
-330.321
4547.38
-327.352
4593.1
-324.348
4640.74
-320.813
4688.29
-317.297
4737.1
-313.412
4785.62
-309.531
4834.85
-305.41
4883.58
-301.328
4932.64
-297.105
4981.08
-292.929
5029.57
-288.69
5077.35
-284.535
5124.99
-280.381
5171.91
-276.333
5218.58
-272.336
5264.52
-268.48
5310.17
-264.714
5355.15
-261.111
5399.85
-257.628
5443.95
-254.328
5487.81
-251.169
5531.16
-248.202
5574.36
-245.386
5617.14
-242.768
5659.86
-240.304
5702.28
-238.032
5744.73
-235.912
5786.99
-233.969
5829.38
-232.191
5871.68
-230.497
5914.22
-229.168
5956.71
-227.138
5999.36
-227.114
6042.95
-220.709
-222.883
2533.82
-546.977
2637.01
-539.944
2735.37
-534.391
2826.79
-521.299
2913.79
-507.193
2992.5
-493.388
3065.86
-479.296
3131.65
-464.463
3191.29
-449.631
3243.83
-434.531
3289.63
-419.102
3328.91
-403.024
3361.72
-386.452
3388.1
-369.175
3408.56
-351.606
3423.86
-333.72
3433.52
-315.665
3438.92
-297.476
3439.35
-279.285
3435.88
-261.04
3428.19
-242.754
3416.98
-224.668
3402.15
-206.542
3384.13
-188.689
3362.89
-171.391
3338.75
-155.008
3311.64
-139.705
3281.84
-126.356
3249.37
-115.668
3214.62
-108.553
3177.61
-105.456
3138.72
-106.586
3097.97
-112.083
3055.61
-121.556
3011.65
-133.835
2966.34
-147.743
2919.74
-161.94
2872.65
-175.087
2825.03
-186.626
2776.99
-195.938
2728.77
-203.298
2681.09
-210.544
2635.25
-219.238
2592.55
-229.339
2554.77
-240.501
2522.39
-252.824
2496.49
-267.369
2483.02
-282.556
2478.54
-300.598
2489.33
-318.155
2510
-337.191
2546.12
-354.501
2591.04
-371.767
2649.66
-386.025
2714.65
-398.938
2790.07
-408.469
2868.35
-416.623
2953.88
-421.835
3040.19
-425.828
3131.08
-427.613
3220.91
-428.556
3313.36
-427.781
3403.96
-426.26
3495.7
-423.458
3584.92
-420.17
3674.26
-415.975
3760.98
-411.426
3847.11
-406.287
3930.52
-400.976
4012.91
-395.297
4092.72
-389.515
4171.23
-383.527
4247.27
-377.534
4321.9
-371.456
4394.25
-365.423
4465.15
-359.4
4533.95
-353.494
4601.36
-347.673
4666.88
-342.013
4731.11
-336.501
4793.66
-331.201
4855.07
-326.096
4915.03
-321.236
4974.01
-316.605
5031.76
-312.246
5088.72
-308.137
5144.67
-304.309
5200.02
-300.742
5254.56
-297.456
5308.68
-294.428
5362.19
-291.671
5415.44
-289.16
5468.26
-286.899
5520.96
-284.879
5573.41
-283.035
5625.79
-281.517
5678.3
-279.717
5730.13
-278.922
5785.04
-275.657
-275.021
2510.99
-629.637
2586.72
-617.611
2655.2
-603.79
2715.06
-582.851
2768.66
-560.326
2811.81
-538.019
2847.75
-515.265
2874.56
-492.233
2894.32
-469.645
2906.65
-447.49
2912.59
-425.75
2912.98
-404.033
2908.41
-382.658
2899.32
-361.174
2886.51
-340.038
2870.95
-318.965
2852
-298.115
2831.11
-277.249
2807.14
-256.54
2781.01
-235.702
2751.88
-214.693
2720.14
-193.709
2685.11
-172.344
2646.83
-150.996
2604.74
-129.862
2558.77
-109.373
2508.42
-89.6965
2453.77
-71.9908
2394.76
-56.9952
2331.97
-45.9196
2265.7
-39.418
2197.05
-37.8874
2126.79
-41.7153
2056.35
-50.6671
1987
-63.8306
1920.19
-79.9736
1856.89
-97.58
1798.96
-115.475
1746.73
-133.232
1700.31
-149.075
1660.43
-163.501
1628.88
-179.641
1608.58
-200.021
1602.26
-224.385
1612.39
-251.678
1638.53
-281.125
1680.03
-313.298
1742.32
-345.933
1817.12
-379.678
1909.19
-411.107
2008.49
-440.801
2119.21
-466.35
2231.71
-488.613
2350.59
-505.934
2467.62
-519.601
2587.64
-528.991
2703.53
-535.769
2820.74
-539.444
2933.65
-541.276
3046.89
-540.965
3155.62
-539.423
3264
-536.247
3368.17
-532.049
3471.38
-526.648
3570.46
-520.584
3668.16
-513.695
3762.07
-506.358
3854.28
-498.525
3942.93
-490.489
4029.72
-482.181
4113.29
-473.781
4194.92
-465.278
4273.59
-456.812
4350.33
-448.365
4424.42
-440.03
4496.67
-431.815
4566.52
-423.799
4634.66
-415.983
4700.68
-408.422
4765.15
-401.128
4827.76
-394.148
4889.02
-387.485
4948.66
-381.173
5007.17
-375.214
5064.31
-369.632
5120.52
-364.422
5175.6
-359.597
5229.96
-355.147
5283.41
-351.078
5336.33
-347.372
5388.55
-344.026
5440.4
-341.022
5491.74
-338.35
5542.87
-335.995
5593.66
-333.913
5644.32
-332.151
5694.99
-330.446
5745.3
-329.211
5797.19
-327.589
-326.16
2396.06
-686.543
2443.29
-666.352
2479.62
-641.073
2504.83
-609.939
2522.3
-577.38
2528.81
-546.188
2529.26
-515.765
2522.86
-486.816
2512.93
-459.874
2499.78
-434.894
2484.97
-411.505
2469.56
-389.086
2454.07
-367.686
2438.55
-346.566
2423.34
-325.86
2408.86
-305.088
2393.62
-284.15
2378.54
-262.677
2361.56
-240.714
2343.05
-217.91
2321.42
-194.143
2296.55
-169.607
2267.11
-143.802
2232.72
-117.255
2192.34
-90.1726
2145.57
-63.0537
2091.58
-36.1941
2030.4
-11.1268
1962.18
10.8699
1888.02
28.0727
1808.68
39.6743
1726.06
44.6208
1641.9
42.2573
1559.47
31.6112
1482.51
12.867
1414.39
-12.0317
1357.08
-40.8528
1313.26
-71.7103
1283.08
-103.658
1265.63
-132.787
1260.85
-160.319
1269.7
-190.658
1294.49
-227.269
1336.58
-269.081
1396.01
-313.161
1469.64
-357.745
1554.62
-403.247
1654.94
-447.583
1760.98
-489.927
1876.53
-527.33
1991.63
-559.727
2110.9
-586.205
2226.51
-607.801
2344.45
-624.131
2458.59
-636.471
2574.76
-644.792
2687.09
-650.398
2801.15
-653.002
2911.78
-653.482
3023.32
-651.711
3131.06
-648.34
3238.78
-643.162
3342.69
-636.655
3445.76
-628.827
3544.86
-620.143
3642.54
-610.59
3736.47
-600.506
3828.6
-589.942
3917.14
-579.163
4003.68
-568.162
4086.94
-557.109
4168.14
-546.026
4246.32
-535.05
4322.46
-524.179
4395.87
-513.51
4467.35
-503.057
4536.37
-492.907
4603.6
-483.058
4668.65
-473.575
4732.08
-464.466
4793.59
-455.786
4853.69
-447.534
4912.13
-439.749
4969.37
-432.428
5025.2
-425.599
5080.03
-419.253
5133.7
-413.401
5186.58
-408.03
5238.52
-403.143
5289.86
-398.717
5340.46
-394.744
5390.65
-391.203
5440.27
-388.075
5489.64
-385.342
5538.61
-382.97
5587.44
-380.951
5636.14
-379.217
5684.71
-377.756
5733.98
-376.89
-375.263
2224.01
-716.271
2238.49
-682.876
2239.08
-642.704
2229.07
-601.89
2215.19
-562.932
2196.11
-528.893
2178.5
-498.193
2161.74
-471.28
2149.16
-447.662
2140.18
-426.77
2135.41
-407.68
2134.71
-389.224
2137.3
-371.266
2141.99
-352.676
2148.06
-333.477
2155.02
-313.108
2160.6
-291.438
2165.26
-268.175
2166.42
-243.343
2164.27
-216.715
2157
-188.125
2144.42
-157.924
2125.12
-125.448
2098.73
-91.4702
2064.16
-56.1766
2020.99
-20.1483
1968.27
16.25
1905.89
51.0719
1833.88
82.6635
1753.49
108.507
1666.25
126.925
1575.21
136.016
1483.67
134.274
1395.7
120.486
1314.84
94.9825
1245.78
58.7338
1192.6
14.3652
1158.22
-34.2217
1142.03
-84.9451
1141.71
-131.046
1155.73
-173.742
1183.53
-218.673
1226.31
-270.856
1284.07
-327.951
1355.69
-385.589
1438.04
-442.134
1528.64
-498.099
1630.85
-550.756
1734.61
-597.674
1843.4
-636.908
1948.97
-669.346
2057.83
-696.146
2164.52
-718.623
2276.09
-736.722
2386.99
-750.878
2502.5
-760.877
2616.27
-767.341
2732.9
-770.143
2846.82
-769.913
2961.69
-766.825
3072.68
-761.472
3183.23
-753.94
3289.63
-744.709
3394.68
-733.992
3495.42
-722.252
3594.3
-709.61
3689.13
-696.401
3781.82
-682.753
3870.68
-668.923
3957.28
-654.947
4040.43
-640.99
4121.32
-627.1
4199.04
-613.409
4274.58
-599.932
4347.3
-586.76
4417.96
-573.921
4486.08
-561.493
4552.32
-549.487
4616.31
-537.96
4678.61
-526.929
4738.93
-516.444
4797.77
-506.511
4854.9
-497.161
4910.77
-488.398
4965.18
-480.243
5018.54
-472.689
5070.69
-465.741
5122.01
-459.387
5172.33
-453.62
5222.02
-448.418
5270.91
-443.764
5319.35
-439.633
5367.18
-436.002
5414.7
-432.844
5461.79
-430.135
5508.7
-427.829
5555.4
-425.978
5602.01
-424.343
5648.92
-423.834
-422.083
1998.09
-713.082
1977.18
-663.696
1948.51
-615.229
1919.76
-575.501
1899.3
-542.033
1884.54
-516.192
1880.68
-494.44
1884.43
-476.221
1896.87
-460.315
1915.18
-445.729
1938.21
-431.33
1964.47
-415.972
1992.2
-399.518
2019.57
-381.006
2045.63
-360.575
2069.83
-337.913
2089.99
-312.891
2106.8
-285.477
2117.93
-255.638
2123.84
-223.326
2123
-188.38
2115.49
-151.172
2100.13
-110.997
2076.75
-68.7374
2044.44
-24.5652
2002.78
21.0656
1950.68
67.8974
1887.83
113.675
1814.22
156
1730.94
191.711
1639.29
218.446
1542.19
233.072
1443.08
233.242
1346.97
216.387
1259.61
181.913
1186.95
130.915
1133.97
66.3129
1103.26
-4.01461
1092.9
-75.5057
1099.16
-138.598
1119.24
-195.47
1151.77
-253.445
1197.63
-319.188
1256.28
-389.184
1327.14
-458.495
1408.02
-525.936
1495.69
-590.539
1591.55
-647.875
1685.5
-695.581
1783.17
-735.13
1879.79
-769.511
1983.92
-800.714
2090.59
-828.555
2205.58
-851.804
2321.95
-869.658
2443.39
-881.815
2562.84
-888.792
2684.24
-890.926
2802.01
-889.016
2919.72
-883.641
3032.77
-875.493
3144.64
-864.912
3251.84
-852.425
3357.21
-838.393
3457.94
-823.285
3556.5
-807.305
3650.81
-790.796
3742.77
-773.922
3830.76
-756.942
3916.36
-739.909
3998.39
-722.998
4078.07
-706.258
4154.5
-689.831
4228.68
-673.723
4299.97
-658.045
4369.14
-642.808
4435.72
-628.107
4500.37
-613.937
4562.72
-600.373
4623.34
-587.416
4681.93
-575.131
4739.01
-563.508
4794.33
-552.593
4848.35
-542.377
4900.87
-532.889
4952.31
-524.111
5002.5
-516.053
5051.82
-508.694
5100.1
-502.026
5147.71
-496.022
5194.49
-490.659
5240.78
-485.907
5286.41
-481.739
5331.71
-478.121
5376.52
-475.032
5421.13
-472.409
5465.45
-470.363
5509.68
-468.544
5553.94
-468.13
-466.28
1723.69
-673.629
1685.66
-628.049
1661.64
-592.527
1652.83
-569.096
1661.86
-550.488
1680.73
-537.152
1711.27
-525.126
1747.53
-513.897
1789.21
-502.501
1832.72
-490.243
1876.78
-476.474
1920.05
-460.21
1961.18
-441.712
1998.78
-420.153
2032.41
-395.844
2062.01
-368.655
2085.85
-338.511
2104.97
-305.515
2117.41
-269.578
2123.84
-230.762
2123.01
-188.822
2115.15
-144.205
2099.28
-96.031
2075.42
-45.3952
2042.72
7.66914
2000.71
62.9917
1948.47
120.062
1885.95
176.268
1813.07
228.959
1730.56
274.627
1639.26
310.202
1541.51
331.635
1440.5
335.226
1341.33
316.932
1250.09
274.88
1173.1
210.075
1116.48
125.632
1084.74
32.0386
1074.9
-61.7077
1082.01
-143.001
1102.09
-213.877
1133.4
-284.144
1176.67
-362.628
1231.78
-444.923
1299.36
-526.503
1376.36
-604.665
1456.67
-674.768
1541.08
-733.025
1623.37
-781.599
1713.77
-826.147
1809.59
-869.2
1918.14
-910.262
2031.9
-946.265
2154.15
-975.051
2276.75
-995.641
2402.82
-1008.51
2525.52
-1014.59
2648.92
-1014.9
2767.85
-1010.45
2886
-1002.14
2999.07
-990.727
3110.56
-976.73
3217.14
-960.711
3321.65
-943.124
3421.4
-924.452
3518.81
-904.953
3611.86
-884.981
3702.46
-864.729
3789.02
-844.457
3873.1
-824.234
3953.55
-804.239
4031.58
-784.531
4106.32
-765.249
4178.76
-746.408
4248.26
-728.113
4315.61
-710.386
4380.33
-693.313
4443.08
-676.896
4503.51
-661.203
4562.16
-646.244
4618.77
-632.075
4673.81
-618.695
4727.08
-606.141
4779.02
-594.41
4829.42
-583.523
4878.72
-573.467
4926.73
-564.243
4973.84
-555.83
5019.88
-548.214
5065.22
-541.363
5109.7
-535.25
5153.65
-529.839
5196.92
-525.098
5239.82
-520.985
5282.2
-517.481
5324.35
-514.511
5366.14
-512.212
5407.82
-510.186
5449.34
-509.694
-507.723
1446.04
-663.934
1452.47
-636.402
1475.81
-617.301
1511.31
-607.213
1559.17
-597.918
1610.22
-590.323
1666.35
-581.379
1722.18
-570.876
1778.25
-558.728
1831.91
-544.477
1882.75
-527.816
1930.17
-508.017
1973.46
-485.387
2011.76
-459.269
2045.06
-430.034
2073.56
-397.657
2095.85
-361.959
2113.1
-323.164
2123.5
-281.055
2127.84
-235.744
2124.94
-186.982
2115.12
-135.116
2097.46
-79.2915
2072.07
-20.6816
2037.92
41.0887
1994.46
105.977
1941.08
172.963
1877.88
239.181
1805.04
301.492
1723.46
356.064
1633.85
399.592
1538.09
427.217
1438.71
434.267
1340.05
415.109
1247.81
366.306
1168.52
288.353
1108.2
184.224
1074.01
64.8776
1062.99
-52.3413
1069.04
-150.907
1086.98
-233.884
1114.58
-314.29
1153.01
-403.777
1203.65
-498.316
1267.06
-592.107
1336.58
-677.248
1404.67
-747.663
1476.91
-806.516
1553.34
-861.891
1645.97
-919.196
1749.35
-975.897
1866.68
-1027.86
1987.99
-1070.51
2115.55
-1102.53
2241.58
-1123.79
2369.54
-1135.82
2493.22
-1140
2616.85
-1137.79
2735.61
-1130.33
2853.19
-1118.73
2965.49
-1103.8
3075.95
-1086.19
3181.37
-1066.5
3284.55
-1045.25
3382.88
-1022.95
3478.75
-999.876
3570.2
-976.415
3659.11
-952.768
3743.94
-929.209
3826.22
-905.804
3904.84
-882.75
3980.99
-860.096
4053.83
-837.999
4124.31
-816.454
4191.85
-795.588
4257.2
-775.403
4319.91
-756.002
4380.62
-737.367
4438.98
-719.585
4495.54
-702.649
4550.04
-686.63
4602.95
-671.51
4654.06
-657.34
4703.81
-644.104
4752.01
-631.833
4799.07
-620.5
4844.82
-610.113
4889.65
-600.642
4933.39
-592.072
4976.4
-584.363
5018.52
-577.486
5060.1
-571.399
5100.96
-566.064
5141.43
-561.434
5181.35
-557.486
5221.01
-554.14
5260.27
-551.534
5299.37
-549.264
5338.2
-548.565
-546.442
1324.1
-694.818
1367.72
-682.51
1423.09
-674.119
1484.17
-670.78
1551.12
-664.449
1615.58
-656.879
1680.31
-646.345
1741.08
-633.115
1799.36
-617.604
1853.32
-599.508
1903.15
-578.772
1948.69
-554.571
1989.58
-527.369
2025.18
-496.46
2055.65
-462.166
2081.31
-424.509
2100.8
-383.263
2115.36
-338.681
2123.22
-290.45
2125.2
-238.749
2120.12
-183.212
2108.34
-124.222
2089.02
-60.8738
2062.17
5.73391
2026.49
76.4112
1981.57
150.966
1926.74
227.892
1862.17
304.029
1788.29
375.684
1706.38
438.693
1617.45
489.323
1523.42
522.431
1426.32
532.706
1329.62
513.507
1238.21
459.695
1158.32
370.508
1095.85
249.477
1058.76
106.73
1046.23
-34.8515
1050.79
-151.717
1065.95
-246.474
1088.75
-335.843
1122.18
-436.917
1168.87
-545.297
1226.1
-649.519
1283.94
-736.649
1339.45
-806.991
1406.34
-873.966
1486.98
-946.105
1589.23
-1021.94
1702.52
-1092.87
1827.25
-1153.52
1953.27
-1200.31
2083.39
-1233.62
2210.69
-1254.36
2339
-1264.79
2462.53
-1266.57
2585.57
-1261.47
2703.48
-1250.74
2819.95
-1235.64
2930.97
-1217.03
3040
-1195.65
3143.89
-1172.15
3245.42
-1147.11
3342.04
-1121.06
3436.14
-1094.3
3525.77
-1067.24
3612.8
-1040.1
3695.72
-1013.14
3776.06
-986.461
3852.72
-960.246
3926.87
-934.557
3997.71
-909.544
4066.17
-885.211
4131.67
-861.679
4194.95
-838.956
4255.59
-817.136
4314.2
-796.21
4370.46
-776.255
4424.9
-757.273
4477.25
-739.325
4528
-722.403
4576.94
-706.548
4624.49
-691.753
4670.47
-678.037
4715.3
-665.382
4758.8
-653.784
4801.36
-643.215
4842.81
-633.652
4883.51
-625.055
4923.31
-617.385
4962.54
-610.596
5001.05
-604.645
5039.14
-599.478
5076.66
-595.067
5113.91
-591.326
5150.71
-588.384
5187.33
-585.848
5223.59
-584.863
-582.56
1280.05
-757.084
1350.5
-754.708
1425.32
-750.317
1498.71
-746.654
1572.24
-737.629
1639.36
-725.996
1704.03
-711.125
1763.14
-693.294
1818.78
-673.368
1869.62
-650.863
1916.13
-625.698
1958.31
-597.063
1995.92
-565.271
2028.38
-529.634
2055.87
-490.462
2078.71
-447.777
2095.58
-401.225
2107.67
-351.125
2113.24
-297.06
2113.12
-239.237
2106.14
-177.299
2092.7
-111.508
2071.98
-41.1235
2043.91
33.1307
2007.07
112.502
1961.09
196.455
1905.21
283.269
1839.5
369.428
1764.42
450.435
1681.45
521.483
1592.09
578.405
1498.64
615.607
1403.1
627.773
1308.31
607.619
1218.33
548.576
1138.75
448.642
1075.15
310.71
1035.06
144.468
1021.04
-23.4337
1024.27
-157.343
1036.59
-261.296
1054.62
-356.724
1084.24
-469.437
1126.68
-590.63
1174.13
-699.361
1218.95
-784.813
1268
-861.084
1339.61
-946.834
1431.43
-1041.67
1544.63
-1135.43
1665.64
-1216.93
1794.76
-1282.73
1922.99
-1331.2
2053.92
-1364.3
2181.28
-1383.59
2309.09
-1391.82
2431.82
-1390.82
2553.76
-1382.54
2670.4
-1368.33
2785.41
-1349.55
2894.89
-1327.14
3002.24
-1301.91
3104.4
-1274.55
3204.12
-1245.69
3298.9
-1215.88
3391.09
-1185.46
3478.8
-1154.83
3563.87
-1124.22
3644.83
-1093.93
3723.17
-1064.02
3797.83
-1034.71
3869.96
-1006.04
3938.76
-978.19
4005.18
-951.131
4068.63
-925.007
4129.86
-899.805
4188.43
-875.637
4244.96
-852.472
4299.13
-830.406
4351.46
-809.423
4401.7
-789.6
4450.32
-770.912
4497.12
-753.415
4542.52
-737.087
4586.34
-721.959
4628.99
-707.999
4670.31
-695.211
4710.67
-683.555
4749.9
-673.011
4788.39
-663.53
4825.96
-655.07
4862.96
-647.579
4899.21
-641.007
4935.05
-635.297
4970.31
-630.409
5005.27
-626.261
5039.77
-622.953
5074.08
-620.127
5107.97
-618.798
-616.283
1285.95
-840.5
1369.19
-840.235
1449.52
-832.088
1523.55
-823.08
1594.96
-808.782
1658.88
-791.972
1719.85
-772.417
1775.26
-750.212
1827.31
-726.108
1874.77
-699.469
1918.12
-670.23
1957.33
-637.352
1992.15
-601.246
2021.99
-561.128
2047.01
-517.209
2067.52
-469.547
2082.16
-417.748
2092.15
-362.137
2095.72
-302.236
2093.74
-238.345
2085.03
-169.967
2070.08
-97.4581
2048.03
-19.9727
2018.74
62.0847
1980.83
150.163
1933.98
243.525
1877.27
340.254
1810.75
436.42
1734.7
527.036
1650.6
606.601
1560.24
669.913
1466.39
711.023
1371.31
724.593
1277.66
703.326
1188.85
639.626
1109.71
530.142
1045.38
377.818
1002.65
192.064
987.485
-2.13256
989.827
-154.342
999.508
-266.942
1013.49
-368.544
1040.19
-495.192
1075.91
-626.141
1110.72
-734.004
1146.56
-822.093
1198.96
-917.293
1282.8
-1031.14
1387.15
-1149.47
1508.8
-1257.51
1634.37
-1346.04
1765.48
-1414.74
1894.36
-1463.74
2025.11
-1496.03
2151.86
-1513.56
2278.71
-1519.39
2400.3
-1515.43
2520.87
-1503.84
2636.02
-1486.03
2749.39
-1463.48
2857.17
-1437.18
2962.73
-1408.01
3063.05
-1376.72
3160.88
-1343.96
3253.75
-1310.32
3343.99
-1276.14
3429.75
-1241.86
3512.84
-1207.71
3591.82
-1173.98
3668.16
-1140.76
3740.82
-1108.26
3810.95
-1076.54
3877.75
-1045.75
3942.15
-1015.88
4003.59
-987.07
4062.79
-959.312
4119.35
-932.706
4173.85
-907.23
4225.99
-882.969
4276.28
-859.918
4324.48
-838.143
4371.05
-817.631
4415.8
-798.426
4459.13
-780.516
4500.89
-763.923
4541.46
-748.62
4580.7
-734.602
4618.97
-721.832
4656.13
-710.281
4692.53
-699.898
4728.01
-690.636
4762.91
-682.434
4797.08
-675.238
4830.83
-668.984
4864
-663.624
4896.88
-659.071
4929.28
-655.398
4961.49
-652.285
4993.26
-650.601
-647.862
1310.66
-927.066
1392.89
-923.925
1469.8
-910.279
1539.72
-895.298
1607.08
-875.796
1667.43
-854.158
1725.14
-830.195
1777.61
-803.647
1826.94
-775.476
1871.85
-744.791
1912.78
-711.447
1949.66
-674.428
1982.24
-633.996
2009.9
-589.372
2032.8
-540.797
2051.25
-488.3
2063.88
-431.392
2071.92
-370.436
2073.61
-304.909
2069.85
-235.134
2059.46
-160.654
2043.03
-81.7586
2019.63
2.40589
1989.06
91.9368
1949.97
188.417
1902.1
290.828
1844.46
397.267
1777.15
503.302
1700.23
603.456
1615.09
691.367
1523.56
760.907
1428.71
805.301
1333.19
819.271
1239.81
795.62
1151.61
726.263
1072.74
607.002
1007.77
439.693
962.421
234.03
946.056
10.3396
947.744
-159.2
955.187
-277.642
966.311
-383.18
989.505
-521.793
1014.95
-654.925
1038.01
-759.865
1073.63
-861.422
1138.27
-987.166
1236.68
-1130.8
1351.09
-1267.44
1477.84
-1384.41
1605.54
-1476.55
1737.22
-1546.32
1865.92
-1594.84
1996.02
-1625.71
2121.86
-1641.04
2247.53
-1644.14
2367.78
-1637
2486.83
-1621.9
2600.37
-1600.34
2712.01
-1573.92
2818
-1543.66
2921.7
-1510.51
3020.14
-1475.28
3116.06
-1438.65
3207.01
-1401.21
3295.31
-1363.33
3379.13
-1325.46
3460.26
-1287.82
3537.28
-1250.75
3611.67
-1214.29
3682.38
-1178.7
3750.54
-1144
3815.4
-1110.37
3877.85
-1077.78
3937.34
-1046.38
3994.6
-1016.15
4049.21
-987.199
4101.76
-959.485
4151.96
-933.115
4200.31
-908.06
4246.57
-884.408
4291.19
-862.125
4333.99
-841.275
4375.37
-821.828
4415.18
-803.82
4453.81
-787.21
4491.1
-772.002
4527.43
-758.146
4562.64
-745.617
4597.11
-734.355
4630.66
-724.31
4663.65
-715.414
4695.91
-707.607
4727.76
-700.821
4759.04
-694.993
4790.04
-690.042
4820.57
-686.001
4850.91
-682.597
4880.82
-680.555
-677.569
1330.06
-1009.77
1407.12
-1003.08
1479.96
-984.545
1546.67
-964.361
1611.23
-940.205
1669.1
-914.066
1724.46
-885.922
1774.68
-855.417
1821.81
-823.35
1864.57
-788.743
1903.37
-751.48
1938.15
-710.328
1968.64
-665.68
1994.25
-616.674
2015.12
-563.443
2031.57
-506.06
2042.25
-444.018
2048.4
-377.654
2048.24
-306.432
2042.73
-230.77
2030.69
-150.079
2012.79
-64.7761
1988
26.2989
1956.1
123.561
1915.76
228.571
1866.72
340.192
1808.02
456.348
1739.77
572.143
1661.96
681.948
1575.83
778.708
1483.08
854.997
1386.93
903.242
1290.34
917.788
1196.49
891.682
1108.2
816.838
1029.11
688.314
963.222
508.022
915.165
286.474
898.057
34.4379
899.652
-154.042
905.618
-278.179
914.334
-389.028
930.999
-537.006
943.663
-667.058
961.133
-777.026
1006.91
-908.708
1088.3
-1072.41
1199.21
-1242.17
1319.94
-1391.56
1449.13
-1514.03
1577.53
-1608.41
1709.05
-1678.72
1837.2
-1726.59
1966.42
-1755.92
2091.16
-1768.99
2215.51
-1769.26
2334.3
-1758.83
2451.72
-1740.15
2563.56
-1714.79
2673.41
-1684.43
2777.58
-1650.17
2879.41
-1613.01
2975.98
-1573.78
3070
-1533.21
3159.05
-1491.92
3245.44
-1450.26
3327.36
-1408.73
3406.58
-1367.54
3481.71
-1327.02
3554.19
-1287.25
3623.02
-1248.47
3689.3
-1210.71
3752.28
-1174.15
3812.86
-1138.76
3870.5
-1104.68
3925.9
-1071.89
3978.66
-1040.5
4029.37
-1010.48
4077.74
-981.909
4124.25
-954.785
4168.68
-929.179
4211.47
-905.07
4252.44
-882.51
4292.01
-861.481
4330
-842.009
4366.82
-824.06
4402.3
-807.629
4436.84
-792.669
4470.27
-779.147
4502.97
-767.002
4534.77
-756.174
4566.02
-746.592
4596.55
-738.189
4626.7
-730.887
4656.29
-724.617
4685.63
-719.29
4714.5
-714.913
4743.21
-711.242
4771.51
-708.889
-705.659
1339.14
-1089.33
1413.85
-1079.03
1484.48
-1056.34
1549
-1031.07
1611.31
-1002.16
1667.03
-971.521
1720.25
-939.152
1768.38
-904.441
1813.43
-868.382
1854.13
-829.777
1890.88
-788.431
1923.59
-743.166
1952.06
-694.235
1975.66
-640.773
1994.57
-582.97
2009.1
-520.835
2017.91
-453.789
2022.23
-382.179
2020.28
-305.476
2013.07
-224.095
1999.41
-137.555
1980.05
-46.168
1953.84
51.4446
1920.58
156.059
1878.95
269.293
1828.63
389.87
1768.72
515.538
1699.38
640.949
1620.56
760.147
1533.41
865.318
1439.46
948.187
1341.87
1000
1243.87
1014.63
1149
985.145
1060.07
903.845
980.392
765.547
913.405
571.299
862.425
333.066
843.986
47.6256
845.597
-159.64
851.114
-287.674
856.608
-398.771
862.587
-547.168
864.087
-672.681
886.51
-802.824
950.367
-976.662
1047.9
-1175.23
1167.21
-1362.67
1291.12
-1518.87
1421.17
-1644.07
1549.54
-1739.35
1680.59
-1809.48
1807.99
-1856.16
1936.18
-1883.53
2059.71
-1893.96
2182.63
-1891.11
2299.88
-1877.21
2415.63
-1854.79
2525.74
-1825.53
2633.79
-1791.17
2736.16
-1752.88
2836.15
-1711.7
2930.88
-1668.51
3023.04
-1624.05
3110.25
-1578.95
3194.79
-1533.6
3274.87
-1488.48
3352.25
-1443.82
3425.56
-1399.98
3496.22
-1356.99
3563.25
-1315.13
3627.72
-1274.42
3688.93
-1235.05
3747.73
-1196.96
3803.61
-1160.31
3857.26
-1125.07
3908.29
-1091.36
3957.26
-1059.12
4003.9
-1028.46
4048.7
-999.35
4091.42
-971.882
4132.51
-946.018
4171.78
-921.828
4209.66
-899.278
4245.97
-878.407
4281.12
-859.169
4314.95
-841.569
4347.84
-825.547
4379.64
-811.074
4410.72
-798.08
4440.93
-786.503
4470.6
-776.263
4499.59
-767.287
4528.21
-759.494
4556.29
-752.798
4584.14
-747.115
4611.57
-742.415
4638.84
-738.485
4665.76
-735.855
-732.364
1345.12
-1168.06
1417.59
-1153.44
1485.85
-1126.01
1548.12
-1095.65
1608.22
-1062.19
1661.88
-1027.2
1713.08
-990.746
1759.2
-952.156
1802.24
-912.217
1840.91
-869.703
1875.67
-824.464
1906.41
-775.101
1932.95
-722.014
1954.65
-664.247
1971.69
-601.867
1984.4
-534.919
1991.39
-462.824
1993.95
-385.883
1990.26
-303.589
1981.39
-216.465
1966.15
-123.923
1945.36
-26.3351
1917.74
78.1652
1883.13
190.456
1840.19
312.124
1788.5
441.972
1727.28
577.244
1656.67
712.289
1576.63
841.016
1488.34
955.021
1393.13
1044.95
1294.05
1101.09
1194.46
1116.34
1098.19
1083.8
1008.12
996.333
927.365
848.507
858.912
641.937
804.612
391.33
784.811
74.8451
787.161
-153.827
792.777
-286.818
791.712
-394.124
784.202
-537.651
782.375
-670.103
821.127
-841.283
905.262
-1062.47
1014.5
-1288.37
1138.13
-1486.83
1263.17
-1647.3
1393.25
-1774.59
1521.28
-1870.8
1651.69
-1940.76
1778.22
-1986.27
1905.3
-2011.63
2027.53
-2019.4
2148.97
-2013.41