/*--------------------------------*- C++ -*----------------------------------*\
| =========                 |                                                 |
| \\      /  F ield         | OpenFOAM: The Open Source CFD Toolbox           |
|  \\    /   O peration     | Version:  4.1                                   |
|   \\  /    A nd           | Web:      www.OpenFOAM.org                      |
|    \\/     M anipulation  |                                                 |
\*---------------------------------------------------------------------------*/
FoamFile
{
    version     2.0;
    format      ascii;
    class       volVectorField;
    location    "22";
    object      U;
}
// * * * * * * * * * * * * * * * * * * * * * * * * * * * * * * * * * * * * * //

dimensions      [0 1 -1 0 0 0 0];

internalField   nonuniform List<vector> 
26785
(
(-1.64083e-15 -0.00975271 16.0302)
(-1.58892e-15 -0.00682586 16.1729)
(-1.42748e-15 -0.00612784 16.2804)
(-1.74982e-15 -0.00510165 16.381)
(-1.5985e-15 -0.00422718 16.4761)
(-2.13715e-15 -0.00355341 16.558)
(-1.68104e-15 -0.00291887 16.6256)
(-1.64086e-15 -0.00229516 16.684)
(-5.66795e-16 -0.00172369 16.7327)
(-1.22799e-15 -0.00120814 16.7734)
(-1.43758e-15 -0.000694231 16.8049)
(-1.32606e-15 -0.000183221 16.8279)
(-1.24704e-15 0.000382083 16.8424)
(-1.1805e-15 0.000985115 16.847)
(-1.13847e-15 0.00167085 16.8418)
(-1.10236e-15 0.00239223 16.8277)
(-1.05592e-15 0.00319904 16.8036)
(-1.06324e-15 0.00401368 16.7694)
(-5.18299e-16 0.00491615 16.7251)
(2.32351e-15 0.00583906 16.6699)
(-1.96542e-15 0.0068348 16.6036)
(-1.495e-15 0.00783093 16.5261)
(-5.49206e-15 0.00888713 16.4377)
(-9.01108e-16 0.00995811 16.3383)
(-1.76948e-15 0.0110145 16.2282)
(-3.20576e-15 0.0120122 16.1082)
(-3.22234e-15 0.0129236 15.9797)
(-1.4443e-15 0.0136462 15.8444)
(-4.49199e-15 0.0140771 15.7049)
(5.90995e-15 0.0140927 15.5649)
(-1.89691e-14 0.013652 15.4287)
(-1.758e-14 0.0127008 15.3016)
(-4.9162e-15 0.0112284 15.1886)
(-7.92713e-15 0.00926177 15.0946)
(-3.43019e-15 0.0069428 15.0235)
(-9.90203e-15 0.00441587 14.9775)
(-5.58977e-15 0.00186673 14.9566)
(-5.38881e-15 -0.000508192 14.9595)
(-4.91906e-15 -0.0025894 14.9829)
(-4.10259e-15 -0.00438075 15.0229)
(5.84327e-15 -0.00592551 15.0769)
(-6.27166e-15 -0.00733579 15.1427)
(-1.30465e-15 -0.0087873 15.2194)
(-4.37488e-15 -0.0102876 15.3068)
(-7.56893e-15 -0.0117965 15.405)
(-1.61683e-14 -0.0132291 15.514)
(-3.65335e-15 -0.0145378 15.6311)
(-6.09642e-15 -0.0158176 15.7568)
(-4.77651e-15 -0.0168703 15.8899)
(-4.05234e-15 -0.0178556 16.029)
(-7.14835e-15 -0.0185912 16.1727)
(-6.71838e-15 -0.0192499 16.3196)
(-3.4684e-15 -0.0196802 16.4683)
(-3.79717e-15 -0.020013 16.6174)
(-3.54116e-15 -0.0201224 16.766)
(-2.98485e-15 -0.0201293 16.9131)
(-3.6574e-15 -0.0199464 17.0574)
(-4.15784e-15 -0.0196882 17.1977)
(-3.68341e-15 -0.0192867 17.3338)
(-3.80118e-15 -0.0188417 17.4651)
(-4.27302e-15 -0.018302 17.5913)
(-4.93405e-15 -0.017744 17.7117)
(-5.54757e-15 -0.017122 17.8264)
(-1.19807e-14 -0.0164957 17.9354)
(-3.03319e-15 -0.0158324 18.0386)
(-4.07483e-15 -0.0151766 18.1358)
(-4.15132e-15 -0.0145009 18.2272)
(-4.10916e-15 -0.0138392 18.3131)
(-4.11347e-15 -0.0131719 18.3935)
(-4.12979e-15 -0.0125231 18.4685)
(-4.48101e-15 -0.0118766 18.5383)
(-4.4078e-15 -0.0112513 18.6032)
(-4.45443e-15 -0.0106364 18.6634)
(-4.55156e-15 -0.0100459 18.7191)
(-4.92783e-15 -0.00947109 18.7706)
(-7.37052e-15 -0.00892321 18.8179)
(-3.45907e-15 -0.00839662 18.8615)
(-3.9189e-15 -0.00789943 18.9014)
(-3.89939e-15 -0.00742705 18.9379)
(-3.92516e-15 -0.00698563 18.9713)
(-3.92917e-15 -0.00657213 19.0017)
(-2.42054e-15 -0.00619043 19.0294)
(-4.06261e-15 -0.00583801 19.0545)
(-3.95484e-15 -0.00551705 19.0773)
(-4.08912e-15 -0.00522582 19.0979)
(-4.23402e-15 -0.00496475 19.1165)
(-4.277e-15 -0.00473255 19.1333)
(-4.09558e-15 -0.00452836 19.1485)
(-4.12509e-15 -0.00435165 19.1622)
(-4.28328e-15 -0.00420036 19.1745)
(-4.26723e-15 -0.00407444 19.1856)
(-4.16862e-15 -0.00397062 19.1956)
(-4.13948e-15 -0.00389039 19.2047)
(-4.11645e-15 -0.00382512 19.2129)
(-4.05138e-15 -0.00379218 19.2203)
(-4.04408e-15 -0.00371748 19.2269)
(-4.05452e-15 -0.0038296 19.2331)
(-4.03028e-15 -0.00338423 19.2386)
(-3.98507e-15 -0.00482302 19.2433)
(-3.942e-15 -0.00395634 19.2538)
(-1.4516e-15 -0.0209599 17.1861)
(-1.77464e-15 -0.0145336 17.3604)
(-1.74779e-15 -0.0136953 17.5054)
(-1.53568e-15 -0.0116429 17.6448)
(-1.06989e-15 -0.00969837 17.7792)
(-2.3336e-15 -0.00814165 17.8998)
(-1.04653e-15 -0.00668147 18.0057)
(-5.76758e-16 -0.00517619 18.1018)
(-1.43232e-15 -0.00378671 18.1876)
(-1.43218e-15 -0.00245221 18.2648)
(-1.2701e-15 -0.00109084 18.3318)
(-1.13487e-15 0.000366356 18.3893)
(-1.15363e-15 0.00198304 18.4371)
(-9.48354e-16 0.00377686 18.4733)
(-1.09539e-15 0.00576675 18.4978)
(-1.58317e-15 0.00789909 18.5117)
(-9.44002e-16 0.0102467 18.5136)
(-6.32325e-16 0.0126815 18.5038)
(-4.82005e-16 0.0153443 18.4821)
(2.9902e-15 0.0181087 18.4481)
(-1.67847e-15 0.0210889 18.4017)
(-1.13777e-15 0.0241289 18.3428)
(-5.14723e-15 0.0273429 18.2718)
(-1.10127e-15 0.0306333 18.189)
(-7.89818e-17 0.0339018 18.0945)
(-1.23441e-15 0.0370056 17.9893)
(-2.58858e-15 0.0398599 17.8749)
(-1.88297e-15 0.0421838 17.753)
(-2.8629e-15 0.0436905 17.6263)
(-1.73358e-14 0.0440241 17.4986)
(7.45575e-16 0.0429916 17.3741)
(1.1607e-15 0.0404484 17.258)
(-5.24209e-16 0.0362832 17.155)
(-1.43079e-16 0.0305716 17.07)
(1.16102e-16 0.0237111 17.0065)
(5.50758e-17 0.0161785 16.9663)
(-1.61901e-15 0.00856019 16.9493)
(-1.88432e-15 0.00142538 16.9536)
(-1.84821e-15 -0.00484773 16.9756)
(-1.3599e-15 -0.0102482 17.0114)
(8.44117e-16 -0.0149253 17.0579)
(-2.51779e-15 -0.019193 17.1132)
(-6.47607e-15 -0.0235119 17.1762)
(-4.79783e-16 -0.0279221 17.2467)
(2.80964e-15 -0.0323264 17.3245)
(3.26515e-15 -0.0365069 17.4095)
(2.55677e-16 -0.0403496 17.4989)
(6.32445e-16 -0.0440675 17.5932)
(-1.08802e-14 -0.0472058 17.6913)
(2.25731e-15 -0.0500861 17.7918)
(-3.22023e-15 -0.0523282 17.8936)
(-5.57339e-15 -0.0542673 17.9954)
(-2.37572e-15 -0.055592 18.0961)
(-1.42354e-14 -0.0565422 18.1946)
(-9.21635e-15 -0.0568732 18.2902)
(2.09526e-15 -0.0568363 18.3822)
(-9.84258e-16 -0.0562835 18.4697)
(-1.33255e-15 -0.055448 18.5517)
(-3.13962e-16 -0.0542293 18.6283)
(-3.67576e-17 -0.0528281 18.6992)
(6.22724e-17 -0.0511779 18.7643)
(-6.98358e-16 -0.0494169 18.8232)
(-1.36996e-15 -0.0474917 18.8763)
(1.20612e-15 -0.0455106 18.9234)
(1.83411e-15 -0.0434485 18.9649)
(5.60111e-16 -0.0413748 19.0006)
(5.88285e-16 -0.0392728 19.0309)
(8.18241e-16 -0.0371923 19.0559)
(1.31393e-16 -0.0351276 19.0759)
(1.92742e-16 -0.0331043 19.0911)
(9.49069e-16 -0.0311172 19.1016)
(2.49342e-15 -0.0291851 19.1077)
(-1.86762e-15 -0.027309 19.1098)
(-1.18121e-15 -0.0254976 19.1078)
(1.09943e-15 -0.0237517 19.1022)
(3.90597e-15 -0.022078 19.093)
(-9.20131e-16 -0.0204797 19.0806)
(-1.07137e-16 -0.0189587 19.065)
(-2.68768e-16 -0.017517 19.0465)
(-6.22899e-16 -0.0161552 19.0253)
(-5.40243e-16 -0.0148765 19.0015)
(-5.59104e-16 -0.0136779 18.9753)
(-8.01189e-16 -0.0125619 18.9469)
(-8.53671e-18 -0.0115241 18.9165)
(1.92546e-16 -0.0105673 18.8841)
(4.9144e-16 -0.00968439 18.8499)
(-3.61138e-16 -0.00887793 18.8141)
(-5.1668e-16 -0.00813961 18.7768)
(-1.2211e-15 -0.00747257 18.7381)
(-2.56497e-16 -0.00686677 18.698)
(-2.93395e-16 -0.00632552 18.6568)
(-3.88675e-16 -0.00583735 18.6146)
(-3.40419e-16 -0.00540775 18.5713)
(-4.10931e-16 -0.00501714 18.5271)
(-5.17744e-16 -0.00469196 18.4822)
(-5.86561e-16 -0.00432555 18.4362)
(-7.85113e-16 -0.00419506 18.3904)
(-5.79739e-16 -0.00341775 18.3408)
(-5.86272e-16 -0.00469919 18.3014)
(-6.29084e-16 -0.00428505 18.2256)
(-1.51499e-15 -0.0314439 18.4554)
(-9.60379e-16 -0.0240327 18.6653)
(-1.44069e-15 -0.0231589 18.8534)
(-6.66233e-16 -0.019886 19.0318)
(-4.57193e-16 -0.0166347 19.1979)
(-1.97066e-15 -0.013875 19.3429)
(-6.29969e-16 -0.0113677 19.466)
(-5.47215e-16 -0.00869828 19.5719)
(-8.6689e-16 -0.00626043 19.6601)
(-9.15143e-16 -0.0038606 19.7324)
(-8.43433e-16 -0.00145773 19.7878)
(-7.96139e-16 0.00111028 19.8272)
(-7.37376e-16 0.00390249 19.8507)
(-7.14745e-16 0.0069994 19.857)
(-2.51067e-16 0.01037 19.8466)
(-7.26787e-16 0.013978 19.8209)
(-5.95767e-16 0.0178978 19.7796)
(-9.91641e-16 0.0219922 19.7233)
(1.45801e-15 0.0263776 19.6528)
(-7.08688e-16 0.0309257 19.5682)
(-1.22561e-15 0.0357522 19.4703)
(-2.17203e-16 0.0406754 19.3597)
(7.59106e-16 0.0458323 19.2375)
(-1.00619e-15 0.0510774 19.1047)
(-7.38102e-16 0.056227 18.9621)
(-5.07238e-16 0.0610832 18.811)
(-9.26742e-15 0.0655186 18.6531)
(-2.3194e-15 0.0691165 18.49)
(-1.85387e-15 0.071415 18.3241)
(-1.41964e-15 0.0718693 18.1581)
(-1.5927e-15 0.0701794 17.9951)
(-1.1778e-15 0.0661323 17.8384)
(-4.5797e-15 0.0595567 17.6909)
(-1.07488e-14 0.0505813 17.5555)
(3.88585e-15 0.0398307 17.4337)
(-5.49041e-16 0.0280771 17.3263)
(-3.82627e-16 0.0162171 17.2324)
(4.88744e-17 0.00512249 17.1505)
(8.19375e-16 -0.00465797 17.0781)
(6.81202e-16 -0.0130936 17.0125)
(6.31617e-16 -0.020384 16.9516)
(5.14044e-16 -0.0269951 16.8939)
(9.08694e-16 -0.0335549 16.8383)
(7.15277e-16 -0.0401106 16.7846)
(4.70199e-16 -0.0465296 16.7326)
(3.03292e-16 -0.0525663 16.6822)
(5.30273e-16 -0.0581402 16.6312)
(4.70975e-16 -0.0633585 16.5807)
(1.91188e-16 -0.0678916 16.5306)
(1.12656e-16 -0.0718403 16.4803)
(9.35869e-16 -0.0750016 16.4297)
(1.51107e-15 -0.0774968 16.3782)
(1.52434e-15 -0.0792409 16.3258)
(9.63114e-16 -0.0802259 16.2722)
(9.7881e-16 -0.0804745 16.2175)
(1.96295e-17 -0.0800112 16.1621)
(-7.07933e-17 -0.0790115 16.1058)
(1.3604e-15 -0.0774486 16.0483)
(1.28024e-15 -0.0755326 15.9901)
(1.5277e-15 -0.0732339 15.9316)
(2.06761e-15 -0.0707758 15.8724)
(2.57122e-15 -0.0680565 15.8128)
(2.3537e-15 -0.0652617 15.7528)
(2.50325e-15 -0.0623014 15.6928)
(9.01283e-15 -0.0593624 15.6324)
(-1.27281e-15 -0.0563339 15.5719)
(2.05684e-15 -0.0533637 15.511)
(2.40111e-15 -0.0503649 15.4501)
(1.02859e-15 -0.0474674 15.3889)
(7.84859e-16 -0.0445828 15.3275)
(3.65204e-16 -0.0418024 15.2657)
(-7.94946e-16 -0.0390625 15.2038)
(1.92581e-15 -0.0364404 15.1415)
(5.37222e-15 -0.0338789 15.079)
(-1.02378e-15 -0.0314318 15.0161)
(-2.279e-16 -0.0290577 14.9531)
(-5.81358e-16 -0.0268028 14.8896)
(-8.39803e-16 -0.0246299 14.8259)
(-9.81793e-16 -0.0225725 14.7618)
(-1.13706e-15 -0.0206007 14.6976)
(-1.31435e-15 -0.0187454 14.633)
(-1.84964e-15 -0.0169774 14.5682)
(-1.25831e-15 -0.015322 14.5032)
(-1.03206e-15 -0.0137521 14.438)
(-1.73471e-15 -0.0122924 14.3726)
(-1.86339e-15 -0.0109143 14.3072)
(-1.95007e-15 -0.00964015 14.2417)
(-2.07751e-15 -0.00844167 14.1761)
(-2.15445e-15 -0.00734104 14.1106)
(-1.26731e-15 -0.0063088 14.0452)
(-2.36507e-15 -0.00536566 13.9799)
(-2.51546e-15 -0.00448312 13.9147)
(-2.63335e-15 -0.00367953 13.8498)
(-2.71496e-15 -0.00293265 13.7851)
(-2.75124e-15 -0.00223199 13.7209)
(-2.80554e-15 -0.00163596 13.6565)
(-3.00035e-15 -0.000820384 13.5944)
(-2.77366e-15 -0.000729958 13.5265)
(-2.84516e-15 0.00177483 13.4787)
(-2.84096e-15 -0.000346533 13.3715)
(-1.21327e-15 -0.0392431 19.579)
(-9.00735e-16 -0.0325902 19.774)
(-8.20124e-16 -0.0318474 19.9371)
(-3.07752e-16 -0.0272788 20.0748)
(-6.2724e-16 -0.0224414 20.1843)
(-2.16199e-17 -0.0181819 20.2592)
(-1.49001e-16 -0.0142663 20.3002)
(-8.94369e-16 -0.0102019 20.3131)
(-5.06391e-16 -0.00647905 20.2986)
(-2.82857e-16 -0.00285284 20.2594)
(-2.1102e-16 0.000719293 20.1952)
(-7.43608e-17 0.0044733 20.1079)
(-2.39298e-16 0.00843995 19.9986)
(1.27325e-15 0.012779 19.8673)
(6.00434e-16 0.0173716 19.7156)
(3.8544e-16 0.0222294 19.5463)
(-4.48226e-17 0.0273741 19.3601)
(1.01348e-15 0.0327036 19.1588)
(-9.14663e-16 0.0382554 18.9442)
(2.1553e-16 0.0439341 18.7176)
(1.26107e-16 0.0498066 18.4806)
(5.66049e-16 0.0556959 18.2345)
(6.19786e-16 0.0617562 17.9814)
(6.38713e-16 0.0678086 17.7227)
(7.52239e-16 0.0736216 17.4597)
(8.84307e-16 0.0789514 17.1937)
(7.96968e-16 0.0836987 16.9264)
(1.1314e-15 0.0873509 16.659)
(1.65354e-15 0.0893724 16.3928)
(3.35123e-15 0.0891318 16.1291)
(1.14028e-14 0.086296 15.8692)
(-1.01587e-15 0.0806987 15.6145)
(3.93456e-15 0.0721598 15.3656)
(5.11436e-15 0.0608853 15.1229)
(1.91104e-15 0.0476081 14.8862)
(-9.34023e-16 0.0332447 14.6548)
(-9.55876e-15 0.0188793 14.4282)
(6.3018e-15 0.00552043 14.2056)
(-4.99178e-15 -0.00622929 13.9867)
(-6.26545e-15 -0.0162811 13.7703)
(3.46736e-15 -0.0248811 13.5558)
(-8.01473e-15 -0.0327383 13.3425)
(7.48748e-15 -0.040572 13.1302)
(4.16075e-15 -0.0482752 12.9192)
(4.44407e-16 -0.0556015 12.7098)
(3.66159e-16 -0.0623432 12.5032)
(4.71178e-15 -0.0685857 12.2982)
(1.2114e-15 -0.074183 12.0987)
(-2.05119e-15 -0.0793579 11.9063)
(-1.43299e-14 -0.0836226 11.7234)
(5.78267e-16 -0.0874368 11.5508)
(-1.46858e-14 -0.0902771 11.3903)
(-1.35653e-15 -0.092759 11.242)
(-7.65289e-15 -0.0941642 11.1076)
(-7.55392e-15 -0.0952015 10.9867)
(-3.2476e-15 -0.0952033 10.8808)
(-6.7409e-15 -0.0950686 10.788)
(-5.84022e-15 -0.0940696 10.7083)
(-6.48046e-15 -0.0930526 10.6405)
(-7.05177e-15 -0.0914039 10.5843)
(-7.24874e-15 -0.0898939 10.5378)
(6.07245e-15 -0.0878846 10.5002)
(-9.4741e-15 -0.0859753 10.4699)
(-9.53339e-15 -0.0836651 10.4466)
(-9.1476e-15 -0.0814849 10.4285)
(-8.69495e-15 -0.0789978 10.415)
(-9.48386e-15 -0.0766021 10.4049)
(-1.06621e-14 -0.0739883 10.3979)
(-1.04054e-14 -0.0714842 10.3929)
(-1.05133e-14 -0.06884 10.3894)
(-1.63397e-14 -0.0662777 10.3867)
(-9.81868e-15 -0.0636296 10.3848)
(-8.44882e-15 -0.0610717 10.383)
(-8.20501e-15 -0.0584753 10.3811)
(-2.31889e-15 -0.0559576 10.3788)
(-4.23802e-15 -0.053433 10.3761)
(-1.07705e-14 -0.0509981 10.3727)
(-9.23272e-15 -0.0485852 10.3685)
(-9.08471e-15 -0.0462631 10.3635)
(-9.02079e-15 -0.043982 10.3576)
(-8.85715e-15 -0.0418038 10.3509)
(-8.90894e-15 -0.039684 10.3433)
(-8.51805e-15 -0.0376726 10.3348)
(-8.69383e-15 -0.0357302 10.3257)
(-8.75708e-15 -0.0339042 10.3158)
(-8.76534e-15 -0.0321542 10.3054)
(-7.66545e-15 -0.0305221 10.2944)
(-7.49401e-15 -0.028968 10.283)
(-7.64696e-15 -0.0275318 10.2713)
(-8.18796e-15 -0.0261723 10.2594)
(-7.20234e-15 -0.0249247 10.2473)
(-7.38164e-15 -0.0237509 10.2352)
(-7.94852e-15 -0.0226773 10.2232)
(-7.36148e-15 -0.0216887 10.2113)
(-7.36444e-15 -0.0207275 10.1997)
(-7.22802e-15 -0.020025 10.1881)
(-7.16478e-15 -0.0186989 10.1778)
(-6.9069e-15 -0.0191775 10.1654)
(-6.83334e-15 -0.0139889 10.1605)
(-6.90198e-15 -0.0166441 10.1411)
(-9.15355e-16 -0.044695 20.2791)
(-2.33949e-16 -0.0388809 20.3466)
(-4.90589e-16 -0.0373511 20.3599)
(-2.38873e-16 -0.0311037 20.3374)
(5.83742e-17 -0.0244706 20.2796)
(-7.22272e-16 -0.0186357 20.1814)
(4.82433e-16 -0.0132455 20.0437)
(4.22051e-16 -0.00782751 19.8726)
(4.45548e-16 -0.00285606 19.6693)
(5.73607e-16 0.00191816 19.4377)
(3.35329e-16 0.00656921 19.1786)
(1.37038e-15 0.0113841 18.8955)
(5.23419e-16 0.0163407 18.5912)
(1.92353e-15 0.0216629 18.2676)
(1.41946e-15 0.0271494 17.9281)
(2.21948e-16 0.0328551 17.5769)
(-3.94227e-17 0.0387173 17.2157)
(3.58317e-16 0.0447034 16.8471)
(3.27384e-16 0.0507548 16.4735)
(1.78124e-16 0.0568385 16.0961)
(1.31551e-16 0.0629503 15.7165)
(5.14861e-16 0.0689136 15.3358)
(8.08319e-16 0.0749225 14.9555)
(1.35048e-15 0.0807791 14.5765)
(1.39327e-15 0.0862562 14.1992)
(1.55678e-15 0.0910794 13.824)
(-1.43853e-15 0.0951895 13.4519)
(-5.71449e-15 0.0980113 13.0827)
(5.59287e-15 0.0990249 12.7172)
(2.71897e-15 0.0975686 12.3553)
(1.86892e-15 0.0933561 11.9979)
(1.95739e-15 0.0862913 11.6455)
(1.23682e-15 0.0762875 11.2988)
(2.62971e-15 0.0636938 10.9577)
(3.10607e-15 0.0492499 10.6226)
(2.57266e-15 0.0337698 10.2929)
(3.8508e-16 0.0183523 9.96924)
(3.62763e-16 0.00406668 9.65266)
(1.86387e-15 -0.00852774 9.34438)
(2.16654e-15 -0.0190776 9.04461)
(2.57952e-15 -0.0278254 8.75339)
(4.68747e-15 -0.0360572 8.4715)
(-9.00642e-15 -0.044802 8.2015)
(-1.05863e-14 -0.0536676 7.94628)
(-7.45803e-15 -0.0621481 7.70933)
(-9.0135e-15 -0.0700644 7.49535)
(-9.53315e-15 -0.0779937 7.30419)
(-9.92369e-15 -0.0853192 7.14548)
(-8.68649e-15 -0.0932959 7.02153)
(-1.71035e-14 -0.100428 6.93602)
(-2.18071e-14 -0.108141 6.88764)
(-2.34574e-14 -0.114861 6.87612)
(-2.13347e-14 -0.121904 6.89709)
(-2.0677e-14 -0.127491 6.94776)
(-2.11632e-14 -0.13282 7.02279)
(-1.90023e-14 -0.136408 7.11845)
(-1.88005e-14 -0.139655 7.22851)
(-1.81604e-14 -0.14127 7.34885)
(-1.91852e-14 -0.142493 7.47573)
(-1.68753e-14 -0.142414 7.60664)
(-2.52321e-14 -0.142084 7.73845)
(-2.10295e-14 -0.140696 7.86909)
(-1.42573e-14 -0.139015 7.99714)
(-1.36823e-14 -0.136499 8.12175)
(-1.03555e-14 -0.133795 8.24181)
(-1.46745e-14 -0.130481 8.35651)
(-1.52718e-14 -0.127019 8.46557)
(-1.32367e-14 -0.123148 8.56886)
(-1.15372e-14 -0.119231 8.66617)
(-1.11904e-14 -0.115069 8.75734)
(-1.0688e-14 -0.110892 8.84247)
(-1.05218e-14 -0.106581 8.92178)
(-1.32572e-14 -0.102314 8.99538)
(-6.06175e-15 -0.0979995 9.0634)
(-9.40078e-15 -0.0937527 9.12608)
(-1.45863e-14 -0.0895208 9.18374)
(-6.62516e-15 -0.0853958 9.23658)
(-7.10742e-15 -0.0813366 9.28487)
(-6.85502e-15 -0.0774071 9.32885)
(-4.45931e-15 -0.0735797 9.36888)
(-7.01039e-15 -0.0699103 9.4052)
(-4.81455e-15 -0.0663731 9.43809)
(-8.18814e-15 -0.0630104 9.46782)
(-8.83729e-15 -0.059799 9.49471)
(-7.90893e-15 -0.0567759 9.51898)
(-6.78614e-15 -0.0539155 9.54093)
(-7.92352e-15 -0.0512466 9.56079)
(-7.91515e-15 -0.0487431 9.57881)
(-8.10315e-15 -0.046429 9.59522)
(-8.30893e-15 -0.0442762 9.61023)
(-8.52226e-15 -0.0423022 9.62405)
(-8.53982e-15 -0.0404809 9.63686)
(-8.79533e-15 -0.0388211 9.64884)
(-9.06807e-15 -0.0373133 9.66014)
(-9.40866e-15 -0.0359032 9.67092)
(-1.00449e-14 -0.0347459 9.68128)
(-9.49825e-15 -0.0332353 9.69135)
(-9.91268e-15 -0.0328022 9.70166)
(-1.01817e-14 -0.0291552 9.70999)
(-1.05129e-14 -0.029497 9.72868)
(-3.34486e-16 -0.0464521 20.2026)
(2.83201e-16 -0.0405171 20.0617)
(-3.34228e-17 -0.0374863 19.8656)
(4.23323e-16 -0.0299421 19.6369)
(4.60517e-16 -0.0219897 19.3739)
(2.29959e-16 -0.0149552 19.0698)
(6.53643e-16 -0.00825802 18.7255)
(1.23291e-15 -0.00160197 18.3494)
(9.18556e-16 0.00458613 17.9455)
(4.63823e-17 0.0104737 17.5212)
(-9.56952e-17 0.016145 17.0803)
(5.87261e-16 0.0219207 16.6292)
(6.53167e-16 0.0276895 16.1728)
(4.74109e-16 0.0337567 15.7147)
(4.49355e-16 0.0398658 15.2584)
(6.02424e-16 0.0461452 14.8082)
(9.2328e-16 0.0524567 14.3647)
(-2.69578e-15 0.0588698 13.9289)
(1.67793e-16 0.0652532 13.5016)
(4.83624e-15 0.0716872 13.0813)
(-1.22709e-17 0.0781291 12.6676)
(1.74663e-15 0.0843863 12.2589)
(-4.54173e-15 0.090712 11.8547)
(3.00546e-15 0.096861 11.4532)
(3.31473e-15 0.102679 11.0529)
(1.68804e-15 0.107855 10.6523)
(1.37353e-15 0.112311 10.2509)
(2.23568e-15 0.115333 9.84747)
(5.66883e-15 0.116418 9.44244)
(-7.08061e-15 0.114865 9.03602)
(-1.21976e-14 0.110359 8.63057)
(-5.08465e-15 0.102736 8.22831)
(-2.88209e-16 0.0918862 7.83282)
(-4.12746e-16 0.0782947 7.44768)
(4.79446e-15 0.0629 7.07707)
(2.57896e-14 0.0462949 6.72422)
(-5.89521e-15 0.029405 6.39296)
(3.84971e-15 0.0133226 6.08696)
(3.41525e-15 -0.00138098 5.80874)
(8.3763e-15 -0.0138115 5.55864)
(-5.17802e-15 -0.024026 5.33631)
(-1.47054e-14 -0.0341436 5.14355)
(-1.17768e-14 -0.0460695 4.98647)
(-2.23704e-14 -0.0594201 4.87158)
(-2.02559e-14 -0.0734061 4.80463)
(-2.18926e-14 -0.0876722 4.78985)
(-2.14077e-14 -0.103152 4.82159)
(-2.31387e-14 -0.11847 4.90448)
(-2.88674e-14 -0.135031 5.03297)
(-3.46572e-14 -0.150413 5.20099)
(-3.28262e-14 -0.165817 5.3984)
(-2.3861e-14 -0.179129 5.61657)
(-1.83624e-14 -0.191255 5.84591)
(-1.51229e-14 -0.200376 6.07987)
(-1.5348e-14 -0.20748 6.31283)
(-1.40293e-14 -0.211548 6.54182)
(-1.29515e-14 -0.213946 6.76353)
(-1.01694e-14 -0.214006 6.97629)
(-8.88664e-15 -0.212871 7.1798)
(-6.48039e-15 -0.210151 7.37397)
(-6.11031e-15 -0.206725 7.55839)
(-1.36842e-14 -0.202186 7.73262)
(5.67777e-15 -0.197115 7.89711)
(3.45843e-15 -0.191267 8.05206)
(-5.40905e-16 -0.185129 8.19759)
(1.26722e-14 -0.178507 8.33357)
(1.91162e-15 -0.171734 8.4605)
(2.92547e-15 -0.16471 8.57868)
(2.72368e-15 -0.157696 8.68846)
(1.25361e-15 -0.150603 8.78992)
(1.51704e-15 -0.143588 8.88358)
(6.8134e-16 -0.136605 8.96982)
(1.6508e-16 -0.129774 9.04904)
(-2.34023e-15 -0.123053 9.12149)
(5.03656e-16 -0.116518 9.18762)
(7.66673e-16 -0.110147 9.24783)
(-2.16981e-15 -0.104002 9.30249)
(-2.76956e-15 -0.0980652 9.35192)
(-4.01963e-15 -0.0923761 9.39649)
(-4.88625e-15 -0.086925 9.4366)
(-6.33788e-15 -0.0817474 9.47256)
(-5.94797e-15 -0.0768314 9.50471)
(-1.01957e-14 -0.0722013 9.53337)
(-6.89084e-15 -0.0678449 9.55889)
(-7.43554e-15 -0.0637814 9.58154)
(-1.272e-14 -0.059995 9.60163)
(-1.06018e-14 -0.0564967 9.61942)
(-1.13225e-14 -0.0532691 9.6352)
(-1.20099e-14 -0.0503184 9.6492)
(-1.29152e-14 -0.0476242 9.66166)
(-1.4867e-14 -0.0451867 9.67278)
(-1.35187e-14 -0.0429856 9.68277)
(-1.39499e-14 -0.0410151 9.69181)
(-1.45415e-14 -0.0392627 9.70007)
(-1.47918e-14 -0.037689 9.70769)
(-1.53522e-14 -0.0363505 9.71485)
(-1.56537e-14 -0.0349683 9.72153)
(-1.57052e-14 -0.0340217 9.7287)
(-1.58405e-14 -0.0322251 9.7335)
(-1.60153e-14 -0.0313459 9.74692)
(5.5268e-18 -0.0428187 19.3753)
(2.85408e-16 -0.0381816 19.0514)
(6.569e-16 -0.0341637 18.6598)
(8.10572e-16 -0.0257479 18.2284)
(7.94923e-16 -0.0164843 17.7612)
(1.13619e-16 -0.00808973 17.2591)
(2.18585e-16 9.82305e-05 16.7317)
(7.7017e-16 0.00798923 16.195)
(1.80052e-16 0.015205 15.6587)
(-1.33003e-15 0.0218286 15.1335)
(1.62191e-16 0.0280163 14.624)
(3.63427e-16 0.0341809 14.1361)
(9.05619e-17 0.040199 13.6725)
(3.27439e-17 0.046518 13.233)
(-2.04228e-16 0.0529209 12.8172)
(-2.47029e-15 0.0596438 12.4249)
(3.68775e-16 0.0665647 12.0519)
(3.70694e-16 0.0738183 11.6948)
(3.34059e-17 0.0812596 11.3504)
(1.76012e-15 0.089045 11.0135)
(2.00468e-15 0.0971762 10.6805)
(-1.0331e-16 0.105412 10.3473)
(3.92554e-16 0.114053 10.0112)
(1.98708e-15 0.122714 9.66851)
(1.96208e-15 0.131313 9.31627)
(4.03967e-15 0.139502 8.95222)
(3.34416e-15 0.14709 8.57499)
(-1.36348e-14 0.153092 8.18327)
(8.97809e-16 0.156877 7.77822)
(-1.63438e-14 0.157479 7.36255)
(-1.52152e-14 0.154564 6.94088)
(-5.56334e-15 0.14773 6.51805)
(-5.88644e-15 0.136613 6.10079)
(-4.68776e-15 0.121048 5.69755)
(-4.87761e-15 0.101829 5.32021)
(-4.31125e-14 0.080202 4.9797)
(2.24358e-15 0.0576691 4.68379)
(3.50976e-15 0.0351218 4.43823)
(2.26199e-15 0.0133714 4.24497)
(9.07552e-15 -0.00561468 4.10191)
(3.3148e-16 -0.0220538 4.00482)
(-1.36351e-14 -0.03913 3.95162)
(-1.15821e-14 -0.0591446 3.94532)
(-1.65873e-14 -0.0817889 3.98915)
(-2.94176e-14 -0.105803 4.08293)
(-2.60663e-14 -0.130128 4.22308)
(-2.62831e-14 -0.155134 4.3969)
(-1.15529e-15 -0.17929 4.60347)
(-5.31812e-14 -0.202748 4.83507)
(-4.32038e-14 -0.223424 5.08248)
(-2.8332e-14 -0.241521 5.33549)
(-3.0474e-14 -0.255737 5.58666)
(-2.43782e-15 -0.266664 5.83086)
(-6.39179e-15 -0.273591 6.06653)
(-3.58088e-15 -0.277527 6.29367)
(9.62681e-18 -0.278365 6.51344)
(2.89848e-15 -0.277329 6.72568)
(9.10215e-15 -0.274272 6.93023)
(1.11617e-14 -0.270039 7.12754)
(1.2568e-14 -0.264508 7.31745)
(1.33295e-14 -0.258264 7.49935)
(1.24603e-14 -0.251088 7.67235)
(1.10758e-14 -0.243354 7.83655)
(-1.30993e-15 -0.234967 7.99176)
(1.51964e-14 -0.22628 8.13789)
(1.07806e-14 -0.217222 8.27458)
(5.67653e-15 -0.208042 8.4022)
(9.57685e-16 -0.198727 8.52096)
(-1.59398e-15 -0.189476 8.63115)
(-5.53436e-15 -0.180259 8.73282)
(-3.37709e-15 -0.171193 8.82649)
(-7.35238e-15 -0.162266 8.91252)
(-8.19025e-15 -0.153569 8.99133)
(-6.77475e-15 -0.145084 9.0632)
(-6.39256e-15 -0.136869 9.12857)
(-1.57773e-14 -0.128915 9.18787)
(-7.11433e-15 -0.121273 9.24148)
(-1.30877e-14 -0.113933 9.28973)
(-1.4134e-14 -0.106928 9.33301)
(-1.53479e-14 -0.100255 9.37172)
(-1.51808e-14 -0.0939423 9.40619)
(-1.57377e-14 -0.0879831 9.43676)
(-1.52498e-14 -0.0823958 9.46377)
(-1.56159e-14 -0.0771718 9.48755)
(-1.80712e-14 -0.0723232 9.5084)
(-1.85489e-14 -0.0678371 9.52662)
(-1.88938e-14 -0.0637167 9.54248)
(-1.88524e-14 -0.0599469 9.55627)
(-1.74963e-14 -0.0565251 9.56822)
(-1.95605e-14 -0.0534326 9.57857)
(-1.87201e-14 -0.0506606 9.58753)
(-1.82453e-14 -0.0481899 9.59531)
(-1.86747e-14 -0.0460068 9.60209)
(-1.85798e-14 -0.044095 9.60804)
(-1.84584e-14 -0.0424243 9.61331)
(-1.84391e-14 -0.0409999 9.61809)
(-1.72571e-14 -0.0397158 9.62236)
(-1.72182e-14 -0.0386565 9.62695)
(-1.69243e-14 -0.0377644 9.62984)
(-1.61451e-14 -0.0365823 9.63824)
(6.20326e-16 -0.0398609 18.0959)
(6.33147e-16 -0.0351741 17.5764)
(1.25956e-15 -0.0282881 16.972)
(1.08454e-15 -0.0181253 16.335)
(5.50658e-16 -0.00738618 15.6923)
(4.94681e-16 0.00179598 15.061)
(8.16926e-16 0.0103506 14.4581)
(1.62892e-16 0.0180037 13.9009)
(7.54953e-17 0.0246963 13.3939)
(1.35081e-17 0.0306287 12.9406)
(2.62359e-17 0.0361767 12.5366)
(5.20742e-17 0.0419307 12.1784)
(9.07276e-18 0.0478239 11.8599)
(2.53934e-17 0.0544379 11.5727)
(-6.63469e-17 0.0616098 11.3097)
(1.64517e-15 0.0695965 11.0655)
(3.1406e-16 0.0783277 10.8321)
(5.28921e-16 0.0878721 10.6036)
(-1.65228e-17 0.098081 10.3752)
(-3.44751e-16 0.109032 10.1412)
(2.01895e-18 0.120796 9.89772)
(-2.32145e-16 0.133076 9.64102)
(-1.10272e-14 0.146202 9.36892)
(2.03934e-15 0.159611 9.07843)
(5.2901e-15 0.173229 8.76702)
(3.08425e-15 0.186698 8.4333)
(7.82082e-16 0.199726 8.07606)
(2.12432e-15 0.210961 7.69402)
(1.85206e-15 0.219449 7.2885)
(9.42843e-16 0.223783 6.86205)
(5.06618e-16 0.223331 6.4219)
(6.80926e-16 0.217337 5.97713)
(1.89131e-16 0.205343 5.53908)
(6.35885e-16 0.186634 5.12302)
(-5.76937e-16 0.161493 4.73964)
(4.87455e-15 0.131144 4.39806)
(6.9257e-15 0.0977855 4.11522)
(6.49316e-15 0.0637321 3.90185)
(3.18911e-15 0.0301373 3.75588)
(-3.3642e-15 0.000919475 3.6714)
(-4.00392e-14 -0.0251418 3.63948)
(-1.08273e-15 -0.0519689 3.65259)
(2.39684e-16 -0.0821515 3.70909)
(-3.93256e-14 -0.114862 3.80844)
(-2.986e-14 -0.147936 3.94678)
(-4.06025e-14 -0.180078 4.11933)
(-4.28448e-14 -0.211795 4.31536)
(-4.15089e-14 -0.241691 4.53432)
(-4.84131e-14 -0.268729 4.76673)
(-3.59163e-14 -0.290993 5.0019)
(-1.99653e-14 -0.308511 5.2321)
(-8.1113e-15 -0.321323 5.4558)
(1.0223e-15 -0.330495 5.67452)
(6.45231e-15 -0.336164 5.89136)
(1.1048e-14 -0.339161 6.10824)
(1.53143e-14 -0.339487 6.3257)
(1.36041e-14 -0.337885 6.54178)
(1.50877e-14 -0.33421 6.7541)
(1.30057e-14 -0.328984 6.96121)
(1.32506e-14 -0.322196 7.16144)
(7.35026e-15 -0.314292 7.35331)
(3.65174e-15 -0.305227 7.53538)
(-1.72148e-15 -0.295332 7.70751)
(-5.44068e-15 -0.284668 7.86945)
(-9.51549e-15 -0.273572 8.02116)
(-1.30652e-14 -0.262089 8.16236)
(-1.54078e-14 -0.250456 8.29359)
(-1.49459e-14 -0.238728 8.41513)
(-2.52602e-14 -0.227091 8.5274)
(-2.44864e-14 -0.215555 8.63057)
(-2.47991e-14 -0.204225 8.72523)
(-2.50955e-14 -0.193113 8.81184)
(-2.48384e-14 -0.182303 8.89086)
(-2.52817e-14 -0.17179 8.96263)
(-2.16153e-14 -0.161628 9.02765)
(-2.13949e-14 -0.151819 9.08637)
(-2.28215e-14 -0.142411 9.13922)
(-2.21387e-14 -0.1334 9.18654)
(-2.16841e-14 -0.124818 9.22876)
(-2.07047e-14 -0.116665 9.26627)
(-2.15429e-14 -0.108968 9.29945)
(-2.21188e-14 -0.101722 9.32862)
(-1.70673e-14 -0.0949437 9.35414)
(-1.8822e-14 -0.0886251 9.37636)
(-1.57255e-14 -0.0827753 9.39557)
(-1.83464e-14 -0.0773809 9.41209)
(-1.76653e-14 -0.0724408 9.42618)
(-1.68444e-14 -0.0679386 9.43815)
(-1.61577e-14 -0.0638657 9.44822)
(-1.52782e-14 -0.0602017 9.45664)
(-1.4338e-14 -0.0569315 9.46362)
(-1.44851e-14 -0.0540338 9.46938)
(-1.42192e-14 -0.05149 9.47409)
(-1.32198e-14 -0.0492782 9.47793)
(-1.16823e-14 -0.0473749 9.48104)
(-1.17868e-14 -0.045754 9.48362)
(-1.12934e-14 -0.0444142 9.48569)
(-1.08009e-14 -0.0432379 9.48784)
(-1.01816e-14 -0.0427237 9.48893)
(-9.37696e-15 -0.0414281 9.49297)
(1.3004e-15 -0.0369649 16.4011)
(9.30956e-16 -0.0289396 15.6527)
(6.93005e-16 -0.0183765 14.8619)
(1.11299e-15 -0.00812189 14.12)
(4.29174e-16 0.00131579 13.4638)
(-9.77195e-17 0.00830316 12.9013)
(5.25457e-16 0.0146282 12.4313)
(3.80957e-16 0.0202162 12.0506)
(-3.421e-16 0.0253991 11.7442)
(1.50809e-16 0.0304973 11.4997)
(1.04968e-16 0.0359556 11.3001)
(5.73381e-17 0.0423672 11.1335)
(5.01246e-17 0.0495839 10.9885)
(2.83368e-16 0.0581531 10.8537)
(3.77001e-16 0.0678331 10.7214)
(2.88984e-16 0.0787631 10.5872)
(3.29762e-16 0.0908842 10.4448)
(1.03385e-15 0.104148 10.2906)
(-2.24687e-15 0.118417 10.1219)
(-1.90733e-15 0.133649 9.93547)
(-1.29995e-16 0.149967 9.72926)
(-1.02783e-15 0.167076 9.50165)
(6.5587e-15 0.185385 9.25194)
(1.31397e-15 0.204214 8.97853)
(9.11055e-15 0.223497 8.68003)
(-1.62554e-14 0.24288 8.35596)
(7.40324e-15 0.262114 8.00476)
(-6.67226e-17 0.279658 7.62443)
(-3.55186e-15 0.29407 7.21598)
(-4.04147e-15 0.303488 6.78258)
(6.23824e-15 0.30667 6.33019)
(-4.74409e-15 0.302077 5.86775)
(-3.31927e-14 0.28879 5.40685)
(8.74916e-15 0.265786 4.96337)
(-1.83449e-14 0.233133 4.55526)
(-8.81331e-15 0.192006 4.20031)
(5.0392e-15 0.144549 3.91374)
(-1.30499e-15 0.0956755 3.7103)
(-9.68467e-15 0.0475509 3.5843)
(-1.44728e-14 0.00627792 3.52297)
(-2.53136e-14 -0.0302409 3.51412)
(-2.71257e-14 -0.06626 3.5471)
(-5.49149e-14 -0.106129 3.61807)
(-2.27617e-14 -0.148353 3.72461)
(-4.54518e-14 -0.18974 3.86318)
(-5.20027e-14 -0.229297 4.03323)
(-4.28366e-14 -0.267534 4.22531)
(-2.73522e-14 -0.302108 4.43334)
(-1.13953e-14 -0.330761 4.64333)
(1.67397e-16 -0.352773 4.84853)
(1.09342e-14 -0.369578 5.051)
(1.66378e-14 -0.382793 5.25761)
(2.11236e-14 -0.393347 5.47295)
(1.94331e-14 -0.401 5.69792)
(1.57853e-14 -0.405606 5.92998)
(1.25969e-14 -0.406869 6.16518)
(-1.50026e-14 -0.405164 6.3985)
(5.97813e-16 -0.400582 6.62588)
(-9.04116e-15 -0.393661 6.84528)
(-4.65588e-15 -0.3847 7.05505)
(1.69221e-15 -0.374205 7.25403)
(-2.48389e-14 -0.362362 7.44121)
(-2.21382e-14 -0.349534 7.61687)
(-2.43658e-14 -0.335924 7.78107)
(-3.52325e-14 -0.32187 7.93408)
(-2.76349e-14 -0.307496 8.07583)
(-2.86546e-14 -0.293033 8.20703)
(-2.93749e-14 -0.278575 8.32806)
(-2.90041e-14 -0.264296 8.43947)
(-2.86816e-14 -0.250223 8.54149)
(-2.72389e-14 -0.236459 8.63477)
(-2.57476e-14 -0.223023 8.71979)
(-2.33016e-14 -0.209996 8.79708)
(-1.54774e-14 -0.197375 8.86699)
(-2.97878e-14 -0.185218 8.93005)
(-1.81182e-14 -0.173523 8.98672)
(-1.95649e-14 -0.162341 9.03744)
(-1.8335e-14 -0.151664 9.08257)
(-1.65556e-14 -0.141527 9.12254)
(-1.46442e-14 -0.131925 9.15777)
(-1.41543e-14 -0.122888 9.1886)
(-1.53895e-14 -0.114404 9.21541)
(-1.1638e-14 -0.106492 9.23852)