/*--------------------------------*- C++ -*----------------------------------*\
| =========                 |                                                 |
| \\      /  F ield         | OpenFOAM: The Open Source CFD Toolbox           |
|  \\    /   O peration     | Version:  4.1                                   |
|   \\  /    A nd           | Web:      www.OpenFOAM.org                      |
|    \\/     M anipulation  |                                                 |
\*---------------------------------------------------------------------------*/
FoamFile
{
    version     2.0;
    format      ascii;
    class       volScalarField;
    location    "10";
    object      p;
}
// * * * * * * * * * * * * * * * * * * * * * * * * * * * * * * * * * * * * * //

dimensions      [0 2 -2 0 0 0 0];

internalField   nonuniform List<scalar> 
26785
(
0.00414739
0.00155655
-0.000723801
-0.00268552
-0.00434345
-0.00575647
-0.00694214
-0.00795132
-0.00878414
-0.00949256
-0.0100699
-0.0105635
-0.0109563
-0.0112796
-0.0115215
-0.011711
-0.0118447
-0.0119425
-0.0119958
-0.012014
-0.0119866
-0.0119339
-0.0118449
-0.0117353
-0.0115902
-0.0114218
-0.0112148
-0.0109843
-0.0107265
-0.010455
-0.0101712
-0.0098807
-0.00958552
-0.00928659
-0.00898889
-0.00869409
-0.00840578
-0.0081223
-0.00784181
-0.00755878
-0.00727105
-0.00697589
-0.00667428
-0.00636444
-0.0060483
-0.0057268
-0.00540727
-0.00509525
-0.00479605
-0.00450865
-0.00423007
-0.00395687
-0.00369031
-0.00343424
-0.00319221
-0.00296675
-0.00275578
-0.00255646
-0.00236567
-0.00218362
-0.00201188
-0.00185221
-0.00170495
-0.00156732
-0.00143533
-0.00130549
-0.00117575
-0.00104615
-0.000918935
-0.000796227
-0.000679828
-0.000570756
-0.000468697
-0.000373027
-0.000284918
-0.000205843
-0.000136153
-7.60536e-05
-2.57838e-05
1.5392e-05
4.86488e-05
7.50986e-05
9.58487e-05
0.000111451
0.000121932
0.000127566
0.000129182
0.000127933
0.00012484
0.000120438
0.000114752
0.000107619
9.90512e-05
8.93086e-05
7.875e-05
6.72635e-05
5.40988e-05
3.93969e-05
2.37487e-05
7.85423e-06
0.00414674
0.00155375
-0.000726951
-0.00268873
-0.00434649
-0.00575939
-0.00694461
-0.00795361
-0.00878598
-0.00949432
-0.0100713
-0.0105649
-0.0109576
-0.0112807
-0.0115223
-0.0117118
-0.0118454
-0.0119433
-0.0119963
-0.0120144
-0.0119868
-0.0119341
-0.011845
-0.0117357
-0.0115903
-0.0114219
-0.0112147
-0.010984
-0.0107261
-0.0104546
-0.0101707
-0.00988016
-0.00958486
-0.00928574
-0.00898791
-0.00869301
-0.00840476
-0.00812137
-0.00784096
-0.00755788
-0.00727016
-0.00697502
-0.00667349
-0.00636345
-0.00604692
-0.00572491
-0.00540515
-0.00509327
-0.00479439
-0.00450711
-0.00422834
-0.00395474
-0.00368779
-0.00343164
-0.00318971
-0.00296442
-0.00275357
-0.0025543
-0.00236345
-0.00218134
-0.00200972
-0.00185025
-0.00170324
-0.0015659
-0.00143402
-0.00130407
-0.00117417
-0.00104437
-0.000916917
-0.000794132
-0.000677802
-0.000568851
-0.000466967
-0.000371489
-0.000283472
-0.000204418
-0.000134833
-7.48292e-05
-2.45989e-05
1.65304e-05
4.97803e-05
7.62969e-05
9.71219e-05
0.000112758
0.000123208
0.000128747
0.000130262
0.000128981
0.000125926
0.000121518
0.00011569
0.000108342
9.96344e-05
8.98595e-05
7.9254e-05
6.76212e-05
5.42568e-05
3.94058e-05
2.36963e-05
7.82378e-06
0.00414405
0.00154823
-0.000733411
-0.00269528
-0.00435271
-0.00576515
-0.0069496
-0.00795806
-0.00878976
-0.00949779
-0.0100743
-0.0105677
-0.01096
-0.0112829
-0.011524
-0.0117134
-0.011847
-0.0119446
-0.0119972
-0.0120152
-0.0119873
-0.0119346
-0.0118453
-0.011736
-0.0115903
-0.0114218
-0.0112143
-0.0109834
-0.0107254
-0.0104538
-0.0101699
-0.00987906
-0.00958351
-0.00928408
-0.00898604
-0.00869095
-0.00840265
-0.0081193
-0.00783889
-0.00755578
-0.0072681
-0.00697297
-0.00667132
-0.00636079
-0.00604358
-0.00572102
-0.00540109
-0.00508941
-0.0047908
-0.00450347
-0.00422424
-0.00395006
-0.00368265
-0.00342636
-0.00318453
-0.00295942
-0.00274876
-0.00254969
-0.002359
-0.00217699
-0.00200559
-0.00184645
-0.00169971
-0.00156259
-0.0014308
-0.00130066
-0.00117042
-0.00104028
-0.000912538
-0.000789588
-0.000673335
-0.000564626
-0.000463044
-0.000367923
-0.000280227
-0.000201371
-0.000131948
-7.20466e-05
-2.18104e-05
1.93642e-05
5.26695e-05
7.9292e-05
0.000100251
0.000115949
0.000126316
0.000131686
0.000133076
0.000131742
0.000128568
0.000123845
0.000117557
0.000109797
0.000100822
9.08459e-05
7.99921e-05
6.80785e-05
5.44746e-05
3.94915e-05
2.3702e-05
7.7851e-06
0.00414003
0.00153997
-0.000743193
-0.00270516
-0.00436208
-0.00577373
-0.0069571
-0.00796467
-0.00879549
-0.00950297
-0.0100788
-0.0105718
-0.0109637
-0.0112861
-0.0115268
-0.0117159
-0.0118493
-0.0119466
-0.0119987
-0.0120164
-0.0119881
-0.0119352
-0.0118457
-0.0117362
-0.0115902
-0.0114214
-0.0112137
-0.0109826
-0.0107244
-0.0104527
-0.0101685
-0.00987739
-0.00958149
-0.00928164
-0.00898327
-0.00868792
-0.00839945
-0.00811607
-0.00783563
-0.0075525
-0.00726492
-0.00696979
-0.00666782
-0.00635655
-0.00603839
-0.00571519
-0.00539514
-0.0050837
-0.0047853
-0.00449777
-0.00421784
-0.00394289
-0.00367492
-0.00341845
-0.00317669
-0.00295181
-0.00274144
-0.00254269
-0.00235235
-0.00217059
-0.00199947
-0.00184074
-0.00169435
-0.00155744
-0.00142572
-0.00129536
-0.00116462
-0.00103399
-0.000905883
-0.000782736
-0.000666535
-0.000558132
-0.000457014
-0.00036247
-0.000275279
-0.000196771
-0.000127549
-6.77538e-05
-1.75341e-05
2.36945e-05
5.71264e-05
8.39442e-05
0.00010506
0.000120751
0.00013096
0.00013618
0.000137495
0.00013604
0.000132526
0.000127225
0.000120286
0.000111974
0.000102585
9.22451e-05
8.10062e-05
6.87418e-05
5.49144e-05
3.97578e-05
2.38054e-05
7.77022e-06
0.00413424
0.00152892
-0.000756321
-0.00271839
-0.00437461
-0.00578513
-0.0069671
-0.00797345
-0.00880316
-0.00950986
-0.0100849
-0.0105773
-0.0109685
-0.0112903
-0.0115306
-0.0117193
-0.0118524
-0.0119492
-0.0120006
-0.0120178
-0.0119892
-0.0119359
-0.0118461
-0.0117365
-0.01159
-0.0114208
-0.0112128
-0.0109814
-0.0107231
-0.0104513
-0.0101667
-0.00987518
-0.00957882
-0.00927842
-0.00897962
-0.00868389
-0.00839512
-0.00811165
-0.00783118
-0.00754807
-0.00726064
-0.0069655
-0.00666304
-0.00635079
-0.00603146
-0.00570753
-0.00538734
-0.00507614
-0.00477787
-0.00449005
-0.00420923
-0.00393328
-0.00366465
-0.00340798
-0.00316626
-0.00294161
-0.00273167
-0.00253336
-0.00234352
-0.00216217
-0.00199138
-0.00183309
-0.00168711
-0.00155047
-0.00141882
-0.00128818
-0.00115685
-0.00102558
-0.000897031
-0.000773645
-0.000657447
-0.000549385
-0.000448909
-0.000355193
-0.000268646
-0.000190586
-0.000121643
-6.20405e-05
-1.1902e-05
2.94198e-05
6.30826e-05
9.01281e-05
0.000111331
0.000126961
0.000137054
0.000142165
0.000143368
0.000141638
0.000137577
0.000131538
0.000123844
0.000114867
0.000104899
9.4047e-05
8.24163e-05
6.97841e-05
5.56129e-05
4.01976e-05
2.40376e-05
7.80781e-06
0.00412789
0.00151506
-0.000772829
-0.00273498
-0.00439029
-0.00579935
-0.00697961
-0.00798441
-0.00881277
-0.00951847
-0.0100926
-0.0105841
-0.0109746
-0.0112956
-0.0115353
-0.0117235
-0.0118563
-0.0119524
-0.0120031
-0.0120197
-0.0119906
-0.0119369
-0.0118467
-0.0117367
-0.0115897
-0.01142
-0.0112117
-0.01098
-0.0107215
-0.0104494
-0.0101644
-0.00987242
-0.00957552
-0.00927447
-0.00897508
-0.00867886
-0.00838968
-0.00810604
-0.00782554
-0.0075425
-0.00725526
-0.00696012
-0.00665702
-0.00634356
-0.00602287
-0.00569808
-0.00537772
-0.00506676
-0.00476856
-0.00448032
-0.00419841
-0.00392122
-0.00365182
-0.00339498
-0.00315329
-0.00292885
-0.00271947
-0.00252179
-0.00233257
-0.00215172
-0.00198131
-0.00182342
-0.00167794
-0.00154167
-0.00141011
-0.00127916
-0.00114717
-0.00101517
-0.000886051
-0.000762331
-0.000646092
-0.000538426
-0.000438763
-0.000346064
-0.000260269
-0.000182791
-0.000114292
-5.50121e-05
-4.98253e-06
3.64947e-05
7.04411e-05
9.76774e-05
0.000118903
0.000134471
0.00014446
0.000149461
0.000150452
0.000148302
0.000143586
0.000136728
0.00012818
0.000118441
0.000107844
9.64679e-05
8.43542e-05
7.12782e-05
5.66937e-05
4.08995e-05
2.44258e-05
7.91439e-06
0.00412086
0.00149833
-0.000792733
-0.00275492
-0.00440911
-0.00581637
-0.0069946
-0.00799754
-0.00882434
-0.00952881
-0.0101018
-0.0105923
-0.0109818
-0.0113019
-0.011541
-0.0117286
-0.0118609
-0.0119562
-0.0120061
-0.0120219
-0.0119923
-0.0119381
-0.0118473
-0.0117368
-0.0115893
-0.011419
-0.0112104
-0.0109784
-0.0107195
-0.0104472
-0.0101617
-0.00986914
-0.00957161
-0.00926979
-0.00896966
-0.00867282
-0.0083831
-0.00809922
-0.00781871
-0.00753578
-0.00724876
-0.00695363
-0.0066498
-0.00633493
-0.00601269
-0.00568691
-0.00536632
-0.00505558
-0.00475739
-0.00446859
-0.00418539
-0.00390675
-0.00363646
-0.00337949
-0.00313781
-0.00291352
-0.00270485
-0.00250804
-0.00231955
-0.00213925
-0.00196922
-0.00181177
-0.00166684
-0.00153104
-0.00139957
-0.00126828
-0.00113559
-0.00100278
-0.000872967
-0.00074883
-0.000632535
-0.000525324
-0.00042658
-0.000335011
-0.00025011
-0.000173409
-0.000105573
-4.67455e-05
3.17122e-06
4.48446e-05
7.90582e-05
0.000106417
0.000127643
0.000143115
0.000152984
0.000157833
0.000158536
0.000155878
0.000150442
0.000142734
0.000133307
0.000122775
0.000111506
9.95498e-05
8.69556e-05
7.33514e-05
5.82306e-05
4.1924e-05
2.50226e-05
8.10903e-06
0.00411231
0.00147866
-0.000816074
-0.00277824
-0.00443107
-0.0058362
-0.00701209
-0.00801284
-0.00883786
-0.00954088
-0.0101126
-0.0106017
-0.0109902
-0.0113093
-0.0115476
-0.0117345
-0.0118662
-0.0119606
-0.0120096
-0.0120245
-0.0119942
-0.0119394
-0.011848
-0.011737
-0.0115887
-0.0114179
-0.011209
-0.0109765
-0.0107173
-0.0104447
-0.0101585
-0.00986535
-0.00956709
-0.0092644
-0.00896337
-0.00866576
-0.00837541
-0.0080912
-0.00781068
-0.0075279
-0.00724113
-0.00694604
-0.0066414
-0.00632495
-0.00600099
-0.00567407
-0.00535315
-0.00504261
-0.00474438
-0.00445487
-0.00417017
-0.00388987
-0.0036186
-0.00336155
-0.00311981
-0.00289565
-0.0026879
-0.00249217
-0.00230452
-0.00212479
-0.00195517
-0.00179818
-0.00165384
-0.00151853
-0.00138718
-0.00125552
-0.0011221
-0.000988405
-0.00085777
-0.000733154
-0.000616856
-0.000510149
-0.00041236
-0.00032198
-0.00023818
-0.000162507
-9.55494e-05
-3.72893e-05
1.24878e-05
5.43516e-05
8.87924e-05
0.000116211
0.000137381
0.000152724
0.000162445
0.000167089
0.000167453
0.000164265
0.00015811
0.000149561
0.000139258
0.000127929
0.00011599
0.000103498
9.02479e-05
7.60045e-05
6.02294e-05
4.33041e-05
2.58676e-05
8.39805e-06
0.00410261
0.00145597
-0.000842899
-0.00280495
-0.00445616
-0.00585882
-0.00703205
-0.00803033
-0.00885333
-0.00955468
-0.0101249
-0.0106126
-0.0109998
-0.0113176
-0.0115552
-0.0117412
-0.0118723
-0.0119657
-0.0120136
-0.0120275
-0.0119965
-0.0119409
-0.0118487
-0.0117371
-0.0115882
-0.0114166
-0.0112073
-0.0109744
-0.0107148
-0.0104417
-0.010155
-0.00986106
-0.00956197
-0.00925832
-0.00895621
-0.0086577
-0.00836663
-0.00808199
-0.00780144
-0.00751887
-0.00723236
-0.00693733
-0.00663183
-0.00631365
-0.00598781
-0.00565962
-0.00533825
-0.00502787
-0.00472953
-0.00443916
-0.00415275
-0.0038706
-0.00359828
-0.0033412
-0.00309932
-0.00287535
-0.00266871
-0.00247426
-0.00228754
-0.00210839
-0.0019392
-0.00178269
-0.00163893
-0.00150411
-0.00137289
-0.00124084
-0.00110666
-0.000971995
-0.00084046
-0.000715341
-0.000599092
-0.000492959
-0.00039613
-0.000306982
-0.000224531
-0.000150164
-8.42921e-05
-2.67028e-05
2.28809e-05
6.48851e-05
9.95027e-05
0.000126927
0.000147973
0.000163149
0.000172694
0.000177104
0.000177123
0.00017343
0.000166592
0.000157234
0.000146091
0.000133986
0.000121208
0.000107944
9.41613e-05
7.93007e-05
6.27928e-05
4.51135e-05
2.6977e-05
8.77241e-06
0.00409151
0.00143014
-0.000873255
-0.00283505
-0.00448438
-0.00588422
-0.00705449
-0.00804999
-0.00887074
-0.00957021
-0.0101388
-0.0106247
-0.0110105
-0.011327
-0.0115637
-0.0117488
-0.0118791
-0.0119713
-0.0120181
-0.0120309
-0.011999
-0.0119425
-0.0118496
-0.0117371
-0.0115875
-0.0114153
-0.0112054
-0.010972
-0.010712
-0.0104384
-0.010151
-0.00985627
-0.00955624
-0.00925154
-0.00894821
-0.00864866
-0.00835679
-0.00807165
-0.00779102
-0.00750867
-0.00722245
-0.00692747
-0.0066211
-0.00630106
-0.00597319
-0.0056436
-0.00532165
-0.00501136
-0.00471285
-0.00442145
-0.00413312
-0.00384896
-0.00357556
-0.00331853
-0.0030764
-0.00285275
-0.00264739
-0.00245437
-0.00226867
-0.00209013
-0.00192138
-0.00176534
-0.00162212
-0.00148773
-0.00135661
-0.00122419
-0.00108919
-0.000953506
-0.00082104
-0.000695434
-0.000579274
-0.000473742
-0.000377934
-0.00029011
-0.000209273
-0.000136467
-7.18721e-05
-1.50647e-05
3.4245e-05
7.63184e-05
0.000111068
0.000138442
0.000159303
0.000174281
0.00018364
0.000187833
0.000187544
0.000183401
0.000175938
0.000165823
0.000153706
0.000140516
0.000127023
0.000113233
9.8899e-05
8.32925e-05
6.58955e-05
4.72978e-05
2.82936e-05
9.20005e-06
0.00408027
0.00140101
-0.000907211
-0.00286856
-0.00451572
-0.0059124
-0.00707939
-0.00807183
-0.0088901
-0.00958746
-0.0101542
-0.0106382
-0.0110224
-0.0113375
-0.0115731
-0.0117572
-0.0118866
-0.0119776
-0.012023
-0.0120347
-0.0120018
-0.0119444
-0.0118504
-0.0117372
-0.0115868
-0.0114138
-0.0112033
-0.0109695
-0.0107088
-0.0104347
-0.0101465
-0.00985095
-0.00954986
-0.00924406
-0.00893942
-0.00863868
-0.00834594
-0.00806021
-0.00777944
-0.00749732
-0.00721139
-0.00691646
-0.00660918
-0.00628721
-0.00595715
-0.00562602
-0.00530336
-0.00499305
-0.00469427
-0.00440171
-0.00411131
-0.00382504
-0.00355055
-0.00329364
-0.0030512
-0.00282801
-0.00262409
-0.00243259
-0.00224798
-0.00207009
-0.00190177
-0.00174615
-0.00160336
-0.00146932
-0.00133828
-0.00120546
-0.00106962
-0.00093291
-0.000799537
-0.00067348
-0.000557433
-0.000452504
-0.000357766
-0.000271426
-0.000192523
-0.000121558
-5.84129e-05
-2.50162e-06
4.64457e-05
8.85324e-05
0.000123389
0.000150648
0.000171285
0.000186071
0.000195278
0.000199311
0.000198776
0.000194202
0.000186024
0.000174898
0.000161812
0.00014792
0.000133866
0.000119483
0.000104386
8.78248e-05
6.93653e-05
4.97092e-05
2.9712e-05
9.63897e-06
0.00406857
0.00136867
-0.000944786
-0.00290549
-0.00455017
-0.00594334
-0.00710676
-0.00809584
-0.0089114
-0.00960643
-0.0101712
-0.010653
-0.0110355
-0.0113489
-0.0115835
-0.0117664
-0.0118948
-0.0119844
-0.0120285
-0.0120388
-0.0120049
-0.0119463
-0.0118514
-0.0117373
-0.011586
-0.0114123
-0.0112011
-0.0109667
-0.0107054
-0.0104306
-0.0101416
-0.00984507
-0.00954282
-0.0092359
-0.00892988
-0.00862781
-0.00833414
-0.00804774
-0.00776673
-0.00748482
-0.00719919
-0.00690426
-0.00659606
-0.00627209
-0.00593971
-0.0056069
-0.00528337
-0.0049729
-0.00467374
-0.00437991
-0.00408736
-0.00379893
-0.00352341
-0.00326669
-0.0030239
-0.00280134
-0.00259895
-0.00240902
-0.00222554
-0.00204832
-0.00188042
-0.00172511
-0.00158261
-0.00144882
-0.0013178
-0.00118456
-0.00104789
-0.0009102
-0.000775993
-0.000649535
-0.000533614
-0.000429293
-0.000335692
-0.000251023
-0.000174339
-0.000105472
-4.39953e-05
1.08394e-05
5.93027e-05
0.00010137
0.000136366
0.000163426
0.000183776
0.000198391
0.000207532
0.000211491
0.000210729
0.000205675
0.000196781
0.000184843
0.000171015
0.000156473
0.000141756
0.000126564
0.000110413
9.26469e-05
7.29651e-05
5.21737e-05
3.11354e-05
1.00595e-05
0.00405573
0.00133293
-0.000986053
-0.00294586
-0.00458773
-0.00597704
-0.00713657
-0.00812201
-0.00893463
-0.00962711
-0.0101896
-0.0106692
-0.0110497
-0.0113614
-0.0115948
-0.0117764
-0.0119037
-0.0119917
-0.0120344
-0.0120433
-0.0120082
-0.0119485
-0.0118525
-0.0117374
-0.0115853
-0.0114107
-0.0111987
-0.0109636
-0.0107017
-0.0104261
-0.0101361
-0.0098386
-0.00953509
-0.00922705
-0.00891964
-0.00861615
-0.00832145
-0.00803431
-0.00775294
-0.00747119
-0.00718585
-0.00689086
-0.00658168
-0.00625569
-0.00592086
-0.0055862
-0.00526164
-0.00495084
-0.00465119
-0.00435605
-0.00406134
-0.00377079
-0.00349433
-0.00323784
-0.00299474
-0.00277295
-0.00257211
-0.00238375
-0.0022014
-0.00202486
-0.00185732
-0.0017022
-0.00155983
-0.00142616
-0.00129508
-0.0011614
-0.00102395
-0.000885396
-0.000750477
-0.000623675
-0.0005079
-0.000404224
-0.00031186
-0.000229064
-0.000154844
-8.82915e-05
-2.86695e-05
2.49057e-05
7.27572e-05
0.00011478
0.000149951
0.00017671
0.000196719
0.000211203
0.000220373
0.000224363
0.000223462
0.000218011
0.000208514
0.000195885
0.000181386
0.000166142
0.000150553
0.000134249
0.000116714
9.74972e-05
7.64904e-05
5.45812e-05
3.25367e-05
1.04642e-05
0.00404224
0.0012936
-0.00103108
-0.00298967
-0.00462839
-0.00601348
-0.00716883
-0.00815034
-0.00895978
-0.00964948
-0.0102096
-0.0106866
-0.0110651
-0.011375
-0.0116071
-0.0117872
-0.0119133
-0.0119996
-0.0120406
-0.012048
-0.0120117
-0.0119508
-0.0118537
-0.0117376
-0.0115845
-0.0114091
-0.0111962
-0.0109604
-0.0106977
-0.010421
-0.01013
-0.00983148
-0.00952667
-0.00921751
-0.00890875
-0.00860376
-0.00830795
-0.00801996
-0.00773812
-0.00745643
-0.00717137
-0.00687625
-0.00656602
-0.00623797
-0.00590058
-0.0055639
-0.00523811
-0.0049268
-0.00462656
-0.00433012
-0.00403334
-0.00374082
-0.00346354
-0.00320729
-0.00296394
-0.00274304
-0.00254371
-0.00235684
-0.0021756
-0.00199971
-0.00183246
-0.00167739
-0.00153498
-0.00140127
-0.00127005
-0.00113593
-0.000997786
-0.000858544
-0.000723077
-0.000596008
-0.000480428
-0.00037749
-0.000286507
-0.000205778
-0.000134201
-7.01028e-05
-1.24521e-05
3.97275e-05
8.68614e-05
0.000128814
0.000164169
0.000190527
0.000210194
0.000224632
0.00023393
0.000238036
0.000237061
0.000231275
0.00022125
0.000208007
0.000192832
0.000176748
0.000160026
0.000142276
0.000123041
0.000102185
7.98545e-05
5.69519e-05
3.39863e-05
1.08911e-05
0.00402779
0.00125048
-0.00107992
-0.00303694
-0.00467213
-0.00605264
-0.00720352
-0.00818082
-0.00898685
-0.00967355
-0.0102311
-0.0107054
-0.0110817
-0.0113896
-0.0116203
-0.0117989
-0.0119236
-0.0120081
-0.0120473
-0.0120531
-0.0120154
-0.0119533
-0.0118551
-0.0117379
-0.0115838
-0.0114075
-0.0111936
-0.010957
-0.0106933
-0.0104155
-0.0101233
-0.00982368
-0.00951754
-0.0092073
-0.00889724
-0.00859072
-0.00829369
-0.00800476
-0.00772229
-0.00744056
-0.00715573
-0.00686039
-0.006549
-0.00621888
-0.00587883
-0.00553995
-0.00521275
-0.00490073
-0.00459981
-0.00430215
-0.00400351
-0.00370924
-0.00343128
-0.00317522
-0.00293174
-0.00271179
-0.00251385
-0.00232833
-0.00214814
-0.00197285
-0.00180581
-0.00165067
-0.00150804
-0.00137411
-0.00124265
-0.00110813
-0.000969433
-0.000829718
-0.000693903
-0.000566689
-0.000451401
-0.000349356
-0.000259932
-0.000181434
-0.000112577
-5.0978e-05
4.68425e-06
5.54193e-05
0.000101774
0.000143617
0.000179101
0.000204993
0.000224372
0.000238846
0.000248325
0.000252564
0.000251517
0.000245406
0.000234879
0.000221039
0.000205138
0.00018805
0.000169925
0.000150404
0.000129217
0.000106671
8.31614e-05
5.94529e-05
3.56289e-05
1.13957e-05
0.00401398
0.00120309
-0.00113268
-0.00308768
-0.00471896
-0.00609453
-0.00724062
-0.00821344
-0.00901581
-0.00969928
-0.010254
-0.0107255
-0.0110994
-0.0114053
-0.0116345
-0.0118114
-0.0119346
-0.012017
-0.0120543
-0.0120584
-0.0120193
-0.011956
-0.0118566
-0.0117383
-0.0115832
-0.0114059
-0.011191
-0.0109534
-0.0106886
-0.0104094
-0.0101159
-0.00981517
-0.00950771
-0.00919643
-0.00888516
-0.00857709
-0.00827873
-0.00798873
-0.00770547
-0.00742356
-0.00713891
-0.00684323
-0.00653055
-0.00619836
-0.00585557
-0.0055143
-0.0051855
-0.00487261
-0.00457096
-0.00427223
-0.003972
-0.00367626
-0.00339777
-0.0031418
-0.00289831
-0.00267933
-0.00248258
-0.00229822
-0.00211898
-0.00194425
-0.00177735
-0.00162202
-0.001479
-0.00134467
-0.00121287
-0.00107801
-0.000938963
-0.000799018
-0.000663091
-0.000535911
-0.000421079
-0.000320127
-0.000232453
-0.000156303
-9.0121e-05
-3.09544e-05
2.28105e-05
7.21534e-05
0.000117721
0.000159385
0.000194867
0.000220274
0.00023943
0.000253967
0.000263597
0.000267896
0.000266705
0.000260226
0.000249187
0.000234744
0.000218055
0.000199799
0.000180021
0.000158461
0.000135238
0.000111133
8.67144e-05
6.23711e-05
3.76053e-05
1.20208e-05
0.00400006
0.00115205
-0.00118935
-0.00314189
-0.00476886
-0.00613911
-0.00728014
-0.00824819
-0.00904665
-0.00972667
-0.0102785
-0.0107469
-0.0111184
-0.011422
-0.0116497
-0.0118246
-0.0119462
-0.0120265
-0.0120616
-0.0120639
-0.0120234
-0.0119588
-0.0118583
-0.0117388
-0.0115826
-0.0114044
-0.0111883
-0.0109497
-0.0106837
-0.0104029
-0.0101079
-0.00980596
-0.00949722
-0.00918492
-0.00887251
-0.00856292
-0.0082631
-0.00797187
-0.00768766
-0.00740543
-0.00712085
-0.0068247
-0.00651058
-0.00617632
-0.00583076
-0.00548696
-0.00515639
-0.00484247
-0.00454006
-0.00424047
-0.00393899
-0.00364208
-0.00336317
-0.00310716
-0.00286381
-0.0026457
-0.00244991
-0.00226648
-0.00208808
-0.00191388
-0.00174707
-0.00159145
-0.00144789
-0.00131297
-0.00118075
-0.00104564
-0.000906482
-0.000766574
-0.0006308
-0.000503905
-0.000389755
-0.000290115
-0.000204357
-0.000130611
-6.6934e-05
-1.00224e-05
4.20373e-05
9.01308e-05
0.000134947
0.000176321
0.000211584
0.000236517
0.000255479
0.000270015
0.00027967
0.000283874
0.000282407
0.000275487
0.000263916
0.000248861
0.00023133
0.00021177
0.000190179
0.000166421
0.000141301
0.000116133
9.10271e-05
6.58283e-05
3.99495e-05
1.27764e-05
0.00398539
0.00109687
-0.00125003
-0.00319958
-0.00482181
-0.00618638
-0.00732205
-0.00828506
-0.00907937
-0.0097557
-0.0103043
-0.0107696
-0.0111385
-0.0114398
-0.0116658
-0.0118387
-0.0119584
-0.0120365
-0.0120693
-0.0120697
-0.0120276
-0.0119618
-0.0118601
-0.0117395
-0.0115821
-0.0114029
-0.0111856
-0.0109458
-0.0106783
-0.0103958
-0.0100992
-0.00979606
-0.0094861
-0.0091728
-0.00885929
-0.00854822
-0.00824681
-0.00795416
-0.00766883
-0.00738612
-0.00710148
-0.00680468
-0.00648898
-0.00615268
-0.0058044
-0.00545796
-0.00512549
-0.00481042
-0.00450724
-0.00420701
-0.00390465
-0.00360688
-0.00332761
-0.00307137
-0.0028283
-0.00261091
-0.00241579
-0.00223304
-0.00205535
-0.00188169
-0.001715
-0.00155901
-0.00141476
-0.0012791
-0.00114636
-0.00101114
-0.000872127
-0.000732542
-0.000597215
-0.000470915
-0.000357725
-0.000259597
-0.000175866
-0.000104505
-4.30504e-05
1.18785e-05
6.25075e-05
0.000109554
0.000153671
0.000194582
0.000229333
0.000253795
0.000272516
0.000286893
0.00029636
0.000300255
0.000298352
0.000290915
0.000278806
0.000263161
0.00024478
0.000223846
0.000200392
0.000174687
0.000148492
0.000122068
9.59456e-05
6.99003e-05
4.28345e-05
1.36906e-05
0.00397079
0.00103724
-0.00131479
-0.00326075
-0.00487781
-0.00623632
-0.00736634
-0.00832404
-0.00911395
-0.00978636
-0.0103317
-0.0107935
-0.0111598
-0.0114587
-0.0116828
-0.0118536
-0.0119713
-0.0120469
-0.0120773
-0.0120757
-0.012032
-0.0119649
-0.0118621
-0.0117403
-0.0115817
-0.0114015
-0.011183
-0.0109418
-0.0106727
-0.0103882
-0.0100899
-0.00978554
-0.00947439
-0.0091601
-0.00884548
-0.00853296
-0.00822982
-0.00793556
-0.00764893
-0.00736557
-0.00708065
-0.00678302
-0.00646562
-0.00612737
-0.00577651
-0.0054274
-0.00509292
-0.0047766
-0.00447267
-0.004172
-0.00386915
-0.00357079
-0.00329112
-0.00303444
-0.00279176
-0.00257487
-0.00238012
-0.00219779
-0.00202072
-0.00184767
-0.00168115
-0.00152475
-0.00137971
-0.00124318
-0.00110987
-0.000974636
-0.000836057
-0.000697098
-0.000562535
-0.00043718
-0.000325247
-0.00022879
-0.000147116
-7.80307e-05
-1.84246e-05
3.48596e-05
8.43845e-05
0.000130605
0.000174047
0.000214242
0.000248127
0.000272065
0.000290408
0.000304387
0.000313396
0.000316746
0.000314267
0.00030628
0.000293678
0.000277495
0.000258287
0.000236146
0.000211583
0.000184515
0.000156423
0.000128683
0.000101704
7.48204e-05
4.64135e-05
1.48208e-05
0.00395592
0.000972855
-0.00138368
-0.0033254
-0.00493684
-0.00628892
-0.007413
-0.00836512
-0.00915038
-0.00981864
-0.0103604
-0.0108188
-0.0111822
-0.0114787
-0.0117008
-0.0118693
-0.0119848
-0.0120578
-0.0120857
-0.0120818
-0.0120366
-0.0119682
-0.0118642
-0.0117412
-0.0115814
-0.0114003
-0.0111804
-0.0109377
-0.0106668
-0.0103803
-0.0100801
-0.00977448
-0.00946217
-0.00914685
-0.00883108
-0.00851711
-0.00821209
-0.00791598
-0.00762787
-0.00734367
-0.00705821
-0.00675954
-0.00644041
-0.00610036
-0.00574715
-0.00539545
-0.00505888
-0.00474124
-0.00443655
-0.00413563
-0.00383263
-0.00353388
-0.00325367
-0.00299634
-0.0027541
-0.00253744
-0.00234275
-0.00216064
-0.00198415
-0.00181182
-0.00164558
-0.00148876
-0.00134285
-0.00120537
-0.00107145
-0.000936331
-0.000798446
-0.000660427
-0.00052696
-0.000402909
-0.000292516
-0.00019783
-0.000118144
-5.11243e-05
7.07541e-06
5.90769e-05
0.000107838
0.000153417
0.000196135
0.000235275
0.000267896
0.000291167
0.000308908
0.000322203
0.000330484
0.000333078
0.000329922
0.000321415
0.00030845
0.000292021
0.000272571
0.000249806
0.000223699
0.000194774
0.000165206
0.000136419
0.000108615
8.07275e-05
5.07233e-05
1.62784e-05
0.0039428
0.000902754
-0.0014568
-0.00339352
-0.00499889
-0.00634415
-0.00746202
-0.00840829
-0.00918867
-0.00985253
-0.0103906
-0.0108453
-0.0112059
-0.0114997
-0.0117197
-0.0118857
-0.0119989
-0.0120691
-0.0120944
-0.0120882
-0.0120413
-0.0119716
-0.0118665
-0.0117423
-0.0115813
-0.0113991
-0.0111778
-0.0109336
-0.0106607
-0.010372
-0.01007
-0.00976298
-0.00944949
-0.00913306
-0.00881605
-0.00850059
-0.00819354
-0.00789534
-0.00760557
-0.00732026
-0.00703393
-0.00673405
-0.00641323
-0.00607163
-0.00571642
-0.0053623
-0.00502362
-0.00470458
-0.00439912
-0.00409807
-0.00379519
-0.00349618
-0.00321521
-0.00295693
-0.00271515
-0.00249842
-0.00230351
-0.00212151
-0.00194566
-0.0017742
-0.00160835
-0.0014511
-0.00130428
-0.00116584
-0.00103134
-0.000896424
-0.000759474
-0.000622714
-0.000490679
-0.000368267
-0.000259645
-0.000166763
-8.88981e-05
-2.3625e-05
3.36626e-05
8.47202e-05
0.000133019
0.000178053
0.000219881
0.000257554
0.000288504
0.000310857
0.000327715
0.000340032
0.000347328
0.000349066
0.000345429
0.000336718
0.000323784
0.000307353
0.000287537
0.000263907
0.000236469
0.000206104
0.00017536
0.000145655
0.000116756
8.73696e-05
5.6076e-05
1.8193e-05
0.00393005
0.000828387
-0.00153412
-0.00346511
-0.00506394
-0.00640201
-0.00751337
-0.00845355
-0.00922879
-0.00988802
-0.0104222
-0.0108731
-0.0112307
-0.0115217
-0.0117396
-0.011903
-0.0120136
-0.0120808
-0.0121035
-0.0120948
-0.0120462
-0.0119752
-0.0118688
-0.0117434
-0.0115812
-0.011398
-0.0111753
-0.0109295
-0.0106545
-0.0103635
-0.0100595
-0.00975113
-0.00943641
-0.00911877
-0.00880037
-0.00848334
-0.00817409
-0.00787356
-0.00758188
-0.00729517
-0.00700759
-0.00670637
-0.00638403
-0.00604122
-0.00568446
-0.00532821
-0.00498742
-0.00466689
-0.00436062
-0.00405948
-0.00375688
-0.00345767
-0.00317563
-0.00291608
-0.00267467
-0.00245761
-0.00226225
-0.00208036
-0.00190537
-0.00173514
-0.00156946
-0.00141162
-0.00126407
-0.00112471
-0.000989717
-0.00085512
-0.000719313
-0.00058412
-0.000453846
-0.000333355
-0.000226668
-0.000135548
-5.92473e-05
4.70127e-06
6.15998e-05
0.000111989
0.000160034
0.000204481
0.000245117
0.000280879
0.000309782
0.000330888
0.00034656
0.000357752
0.000364211
0.000365304
0.000361074
0.000352107
0.000339263
0.000322951
0.000302976
0.000278768
0.000250356
0.000218794
0.00018732
0.000156453
0.000125575
9.52538e-05
6.26175e-05
2.0577e-05
0.00391719
0.000748837
-0.00161574
-0.00354015
-0.00513197
-0.00646247
-0.00756704
-0.00850086
-0.00927074
-0.00992512
-0.0104552
-0.0109021
-0.0112566
-0.0115448
-0.0117603
-0.0119211
-0.012029
-0.012093
-0.0121129
-0.0121017
-0.0120512
-0.0119788
-0.0118712
-0.0117447
-0.0115812
-0.0113969
-0.0111728
-0.0109253
-0.0106481
-0.0103549
-0.010049
-0.00973902
-0.00942297
-0.00910398
-0.00878403
-0.00846527
-0.00815364
-0.00785054
-0.00755667
-0.00726817
-0.00697897
-0.00667633
-0.00635277
-0.00600918
-0.00565141
-0.00529343
-0.00495056
-0.00462843
-0.00432125
-0.00401999
-0.00371774
-0.00341827
-0.00313488
-0.00287359
-0.0026324
-0.0024148
-0.00221887
-0.00203734
-0.00186395
-0.00169472
-0.00152905
-0.0013703
-0.00122171
-0.00108198
-0.000946714
-0.000812575
-0.000678107
-0.00054477
-0.000416564
-0.000298213
-0.000193535
-0.000104069
-2.90074e-05
3.41184e-05
9.11114e-05
0.000141049
0.000188896
0.000232548
0.000271577
0.000305023
0.000331604
0.000351152
0.000365575
0.000375661
0.00038104
0.000381258
0.000376535
0.000367579
0.000355108
0.00033913
0.00031921
0.00029471
0.000265796
0.000233792
0.000201235
0.00016796
0.000135976
0.000104594
7.01237e-05
2.32775e-05
0.00390541
0.00066363
-0.00170171
-0.00361862
-0.00520296
-0.00652551
-0.00762302
-0.00855022
-0.00931451
-0.00996381
-0.0104896
-0.0109324
-0.0112837
-0.0115689
-0.011782
-0.0119399
-0.0120449
-0.0121057
-0.0121226
-0.0121089
-0.0120564
-0.0119826
-0.0118737
-0.0117459
-0.0115813
-0.0113958
-0.0111704
-0.0109211
-0.0106417
-0.0103463
-0.0100384
-0.00972673
-0.00940918
-0.00908868
-0.008767
-0.00844635
-0.00813214
-0.0078262
-0.00752977
-0.00723908
-0.0069479
-0.00664385
-0.00631945
-0.00597561
-0.00561744
-0.00525817
-0.0049133
-0.0045894
-0.00428117
-0.00397967
-0.00367772
-0.00337792
-0.00309288
-0.00282953
-0.00258791
-0.00236983
-0.0021735
-0.00199296
-0.00182088
-0.00165264
-0.00148722
-0.00132768
-0.00117777
-0.00103724
-0.000902238
-0.000768867
-0.000635933
-0.00050473
-0.000378864
-0.000262808
-0.000160134
-7.21527e-05
2.03065e-06
6.48599e-05
0.000122135
0.00017197
0.000219491
0.000261976
0.000298948
0.000329781
0.000353918
0.00037171
0.000384674
0.000393403
0.000397605
0.000397078
0.000392126
0.00038346
0.00037162
0.000356209
0.000336619
0.000312221
0.000283214
0.000250176
0.000215708
0.000181423
0.000148271
0.000115215
7.81383e-05
2.6037e-05
0.00389434
0.000572295
-0.00179206
-0.00370049
-0.00527689
-0.00659111
-0.00768127
-0.00860161
-0.00936007
-0.0100041
-0.0105255
-0.0109639
-0.0113119
-0.0115939
-0.0118045
-0.0119595
-0.0120614
-0.0121188
-0.0121327
-0.0121163
-0.0120619
-0.0119865
-0.0118763
-0.0117473
-0.0115814
-0.0113948
-0.011168
-0.010917
-0.0106353
-0.0103377
-0.0100278
-0.00971429
-0.00939504
-0.00907285
-0.00874928
-0.00842653
-0.00810954
-0.00780045
-0.00750103
-0.00720771
-0.00691426
-0.00660887
-0.00628412
-0.00594061
-0.00558267
-0.00522264
-0.00487584
-0.00454996
-0.00424048
-0.00393854
-0.00363675
-0.00333651
-0.00304962
-0.00278395
-0.00254129
-0.00232261
-0.00212621
-0.00194653
-0.00177583
-0.00160886
-0.00144404
-0.00128396
-0.00113271
-0.000991133
-0.000856021
-0.000723833
-0.000592791
-0.000463964
-0.000340692
-0.000227038
-0.000126295
-3.95901e-05
3.40695e-05
9.70619e-05