/*--------------------------------*- C++ -*----------------------------------*\
| =========                 |                                                 |
| \\      /  F ield         | OpenFOAM: The Open Source CFD Toolbox           |
|  \\    /   O peration     | Version:  4.1                                   |
|   \\  /    A nd           | Web:      www.OpenFOAM.org                      |
|    \\/     M anipulation  |                                                 |
\*---------------------------------------------------------------------------*/
FoamFile
{
    version     2.0;
    format      ascii;
    class       surfaceScalarField;
    location    "10";
    object      phi;
}
// * * * * * * * * * * * * * * * * * * * * * * * * * * * * * * * * * * * * * //

dimensions      [0 3 -1 0 0 0 0];

internalField   nonuniform List<scalar> 
52920
(
16.9278
-0.00338962
16.908
0.0197623
16.8664
0.0416476
16.805
0.0614005
16.7255
0.0795115
16.6296
0.0958274
16.5189
0.110713
16.3948
0.124127
16.2584
0.136413
16.1108
0.14755
15.9531
0.157763
15.7861
0.16697
15.6108
0.175273
15.428
0.182811
15.2387
0.189301
15.0435
0.195202
14.8433
0.200177
14.6388
0.204557
14.4305
0.208279
14.219
0.211513
14.0049
0.214078
13.7886
0.216364
13.5704
0.218144
13.351
0.219457
13.1304
0.220602
12.9092
0.221178
12.6877
0.221478
12.4661
0.221609
12.2447
0.221336
12.0239
0.220855
11.8037
0.22022
11.5845
0.219142
11.3667
0.217878
11.1501
0.216554
10.9352
0.214882
10.7221
0.213096
10.511
0.211168
10.3022
0.208758
10.0961
0.206109
9.89275
0.20334
9.69236
0.20039
9.49475
0.197609
9.29969
0.195064
9.10715
0.192541
8.91715
0.189992
8.72994
0.187211
8.54592
0.184021
8.36537
0.180553
8.18829
0.177075
8.01449
0.173805
7.84372
0.170767
7.67587
0.167851
7.511
0.164864
7.3494
0.161601
7.19143
0.157965
7.03741
0.15402
6.88749
0.149927
6.74158
0.145905
6.59948
0.142102
6.46096
0.138516
6.32594
0.135027
6.19448
0.131459
6.06677
0.127708
5.94296
0.123815
5.82307
0.119885
5.70707
0.115997
5.59487
0.112199
5.48641
0.108463
5.38168
0.104726
5.28073
0.100948
5.18362
0.0971112
5.09041
0.093215
5.00111
0.0892931
4.91554
0.0855678
4.83364
0.0819041
4.75566
0.0779735
4.68167
0.0739914
4.61169
0.0699834
4.54573
0.0659616
4.48379
0.0619338
4.42589
0.057901
4.37203
0.0538588
4.32224
0.0497889
4.27657
0.0456657
4.2351
0.0414765
4.19788
0.0372157
4.165
0.0328772
4.13654
0.0284573
4.11259
0.023955
4.09321
0.0193732
4.07848
0.0147247
4.06846
0.0100253
4.06318
0.00528264
4.06269
0.000489328
4.06705
-0.00436603
4.07631
-0.00926207
4.09067
-0.0143568
4.11029
-0.0196242
4.13533
-0.025033
-0.0305235
16.9276
-0.00695491
16.9078
0.0395347
16.8662
0.083318
16.8047
0.122817
16.7252
0.15905
16.6294
0.191664
16.5186
0.221437
16.3945
0.248262
16.2581
0.272829
16.1105
0.295109
15.9528
0.315526
15.7858
0.333971
15.6105
0.350558
15.4276
0.365666
15.2383
0.378627
15.0431
0.390442
14.8429
0.400371
14.6383
0.409114
14.4301
0.416536
14.2186
0.42301
14.0045
0.428161
13.7881
0.432741
13.5699
0.436351
13.3504
0.438958
13.1297
0.441251
12.9085
0.442395
12.687
0.442951
12.4654
0.44323
12.2441
0.442697
12.0232
0.441697
11.803
0.440435
11.5839
0.438294
11.366
0.435722
11.1495
0.433102
10.9346
0.429794
10.7215
0.426189
10.5103
0.42237
10.3014
0.417581
10.0953
0.412227
9.89197
0.406696
9.69154
0.400811
9.49395
0.3952
9.29889
0.390131
9.10631
0.385118
8.91631
0.379993
8.72911
0.374403
8.54515
0.367981
8.3647
0.361008
8.1877
0.354074
8.0139
0.347598
7.8431
0.34157
7.6752
0.335749
7.51028
0.329777
7.34864
0.323243
7.19067
0.315937
7.03668
0.308006
6.88682
0.299794
6.74097
0.29175
6.59888
0.284193
6.46033
0.277067
6.32526
0.270092
6.19379
0.262928
6.06611
0.255391
5.94234
0.247587
5.82248
0.239742
5.70648
0.231999
5.59426
0.22442
5.48576
0.21696
5.381
0.209488
5.28002
0.201923
5.18288
0.194248
5.08963
0.186459
5.00031
0.178616
4.91474
0.17114
4.8328
0.163835
4.75481
0.155964
4.68081
0.147989
4.61084
0.13996
4.54489
0.131903
4.48299
0.123838
4.42512
0.115768
4.3713
0.107681
4.32154
0.099541
4.27591
0.0912953
4.23447
0.0829153
4.19729
0.0743946
4.16444
0.0657227
4.13601
0.056885
4.11208
0.0478804
4.09273
0.0387209
4.07802
0.0294332
4.068
0.0200498
4.06269
0.0105908
4.06215
0.00102954
4.06645
-0.00866808
4.07565
-0.0184648
4.08995
-0.0286544
4.10951
-0.0391805
4.13445
-0.0499806
-0.060948
16.9272
-0.0106066
16.9074
0.0593366
16.8657
0.125027
16.8042
0.184271
16.7246
0.238625
16.6288
0.28753
16.518
0.332178
16.3939
0.37242
16.2575
0.409251
16.1099
0.442687
15.9521
0.473296
15.7851
0.501016
15.6097
0.525897
15.4268
0.548597
15.2374
0.568035
15.0421
0.585733
14.8419
0.600576
14.6374
0.613644
14.4292
0.624737
14.2177
0.634479
14.0036
0.642291
13.7871
0.64919
13.5688
0.654678
13.3492
0.658576
13.1285
0.661959
12.9072
0.663677
12.6857
0.664458
12.464
0.664857
12.2427
0.664088
12.0218
0.662527
11.8017
0.660599
11.5825
0.657444
11.3647
0.653555
11.1482
0.649621
10.9332
0.644743
10.7201
0.639312
10.5089
0.633593
10.3
0.626498
10.0938
0.618419
9.89036
0.610098
9.68985
0.601319
9.49221
0.592845
9.29713
0.585207
9.10456
0.577694
8.91462
0.569922
8.72757
0.561453
8.54375
0.551799
8.36339
0.541375
8.1864
0.531056
8.01258
0.521419
7.84174
0.512414
7.67381
0.503669
7.5089
0.49469
7.34726
0.484878
7.18933
0.473871
7.03541
0.461925
6.88559
0.449616
6.73975
0.437592
6.59764
0.426303
6.45907
0.415636
6.32403
0.405132
6.19263
0.39433
6.06501
0.383007
5.94128
0.371318
5.82142
0.3596
5.70538
0.348043
5.5931
0.336697
5.48455
0.325506
5.37974
0.314299
5.27871
0.302952
5.18151
0.291444
5.08819
0.279776
4.99879
0.268019
4.91318
0.256746
4.83118
0.24583
4.75315
0.233996
4.67914
0.221998
4.60917
0.209925
4.54327
0.197806
4.48143
0.18568
4.42363
0.173562
4.36989
0.16142
4.32024
0.149196
4.27471
0.136822
4.23336
0.124257
4.19627
0.111482
4.16351
0.0984817
4.13516
0.0852374
4.11129
0.0717467
4.09198
0.0580345
4.07726
0.0441477
4.06718
0.03013
4.06178
0.0159899
4.06113
0.00167998
4.06531
-0.0128465
4.07436
-0.0275216
4.08851
-0.0428041
4.1079
-0.0585685
4.13265
-0.074734
-0.0911997
16.9266
-0.014266
16.9067
0.079186
16.8649
0.166795
16.8034
0.245781
16.7238
0.31825
16.6279
0.383437
16.5171
0.442949
16.393
0.496609
16.2565
0.545684
16.1089
0.590291
15.9511
0.631084
15.784
0.668119
15.6086
0.701325
15.4256
0.731626
15.236
0.757563
15.0407
0.781085
14.8405
0.800783
14.636
0.818138
14.4278
0.832878
14.2164
0.845923
14.0022
0.856506
13.7856
0.865756
13.5671
0.873165
13.3474
0.878357
13.1266
0.88274
12.9052
0.88504
12.6836
0.886033
12.462
0.886492
12.2406
0.885501
12.0197
0.88336
11.7996
0.880708
11.5805
0.876583
11.3627
0.871399
11.1462
0.866106
10.9312
0.859723
10.718
0.852491
10.5068
0.844839
10.2978
0.835517
10.0914
0.82473
9.88797
0.813565
9.68736
0.801928
9.48963
0.79058
9.29453
0.780301
9.10199
0.770234
8.91219
0.759728
8.72532
0.748315
8.54167
0.735454
8.36138
0.721667
8.18438
0.70805
8.01052
0.695281
7.83964
0.683296
7.6717
0.671606
7.50681
0.659579
7.34521
0.64647
7.18735
0.631737
7.03352
0.615752
6.88375
0.599387
6.7379
0.583442
6.59577
0.568431
6.45721
0.554197
6.32223
0.540114
6.19093
0.52563
6.0634
0.510534
5.9397
0.495018
5.81982
0.47948
5.70371
0.464151
5.59136
0.449053
5.48274
0.434123
5.37785
0.419186
5.27673
0.404069
5.17944
0.388735
5.08601
0.373199
4.9965
0.357534
4.91084
0.342406
4.82876
0.327902
4.75068
0.31208
4.67666
0.296019
4.60672
0.279864
4.54086
0.263659
4.4791
0.247446
4.4214
0.231251
4.36778
0.215039
4.31826
0.198722
4.27287
0.182209
4.23166
0.165462
4.19468
0.148457
4.16201
0.131152
4.13372
0.113524
4.10988
0.0955826
4.09056
0.0773605
4.07579
0.0589133
4.06562
0.0402977
4.06009
0.0215205
4.05928
0.00248549
4.0633
-0.0168616
4.07219
-0.0364168
4.08614
-0.0567496
4.1053
-0.0777248
4.12982
-0.0992562
-0.121261
16.9257
-0.017853
16.9058
0.0990918
16.864
0.20864
16.8024
0.307366
16.7227
0.397937
16.6267
0.479402
16.5159
0.55376
16.3917
0.620843
16.2552
0.682138
16.1076
0.737938
15.9498
0.788907
15.7826
0.835296
15.6071
0.876865
15.4239
0.914771
15.2342
0.94723
15.0388
0.976508
14.8386
1.00099
14.6342
1.0226
14.4261
1.04098
14.2146
1.05736
14.0003
1.07084
13.7836
1.08248
13.5649
1.09183
13.3449
1.09833
13.1241
1.10361
12.9026
1.10649
12.6809
1.1077
12.4593
1.10815
12.2379
1.10693
12.017
1.10422
11.7969
1.10078
11.5778
1.09571
11.3599
1.08928
11.1435
1.08257
10.9285
1.07472
10.7152
1.06574
10.5039
1.05611
10.2948
1.04463
10.0884
1.03117
9.88485
1.01711
9.68414
1.00264
9.48629
0.988423
9.29118
0.975419
9.09869
0.962715
8.90903
0.94939
8.72236
0.934986
8.53885
0.91896
8.35861
0.901905
8.18158
0.885081
8.00766
0.869199
7.83675
0.854207
7.66881
0.839539
7.50398
0.824415
7.34247
0.807973
7.18472
0.78949
7.03102
0.769455
6.88132
0.749089
6.73546
0.729299
6.59332
0.710569
6.4548
0.692722
6.3199
0.67501
6.18873
0.656804
6.06129
0.637967
5.9376
0.618708
5.81767
0.59941
5.70148
0.580342
5.58902
0.561513
5.4803
0.542846
5.3753
0.524177
5.27407
0.505302
5.17665
0.486147
5.08311
0.466745
4.99346
0.447177
4.90773
0.428138
4.82558
0.410049
4.74745
0.390213
4.67341
0.370056
4.60349
0.34978
4.53769
0.329457
4.47601
0.309129
4.41843
0.288829
4.36494
0.268524
4.31556
0.248103
4.2703
0.227464
4.2292
0.206569
4.19229
0.18536
4.15966
0.163779
4.13139
0.141795
4.10754
0.119431
4.08816
0.0967404
4.07329
0.0737834
4.06297
0.0506102
4.05728
0.0272141
4.0563
0.00346343
4.06013
-0.0206933
4.06884
-0.0451228
4.0826
-0.070511
4.10155
-0.0966794
4.12587
-0.123571
-0.151154
16.9247
-0.0213817
16.9047
0.119056
16.8628
0.25055
16.8011
0.36904
16.7213
0.477701
16.6253
0.575439
16.5144
0.664629
16.3901
0.745138
16.2536
0.81863
16.1059
0.885644
15.9481
0.946782
15.7808
1.00256
15.6051
1.05253
15.4219
1.09804
15.2321
1.13704
15.0366
1.17201
14.8363
1.20121
14.6319
1.22705
14.4238
1.24906
14.2123
1.26882
13.9979
1.28533
13.781
1.29938
13.5621
1.31067
13.3419
1.31849
13.121
1.32458
12.8994
1.32802
12.6777
1.32947
12.456
1.32984
12.2345
1.32838
12.0136
1.32512
11.7936
1.32085
11.5744
1.31486
11.3565
1.30721
11.14
1.29903
10.925
1.28973
10.7117
1.27906
10.5004
1.26742
10.2912
1.2538
10.0847
1.23773
9.88104
1.22073
9.68024
1.20344
9.48228
1.18638
9.28713
1.17057
9.0947
1.15514
8.90518
1.13891
8.71867
1.12149
8.53527
1.10236
8.35504
1.08213
8.17795
1.06218
8.00395
1.04319
7.83302
1.02514
7.66512
1.00743
7.50039
0.989153
7.33903
0.969326
7.18146
0.947066
7.02792
0.922988
6.87831
0.898699
6.73246
0.875149
6.59032
0.852708
6.45186
0.831186
6.31707
0.809802
6.18599
0.787886
6.0586
0.765355
5.93488
0.742422
5.81488
0.719414
5.6986
0.696623
5.58603
0.674078
5.4772
0.651681
5.37209
0.629286
5.27072
0.60667
5.17316
0.583702
5.07948
0.560424
4.98971
0.536946
4.9039
0.513951
4.82168
0.492268
4.7435
0.468391
4.66944
0.44411
4.59954
0.419682
4.53379
0.395205
4.47219
0.370737
4.41471
0.346308
4.36134
0.321892
4.31207
0.297366
4.26689
0.272644
4.22583
0.247631
4.18894
0.222241
4.15631
0.196408
4.12801
0.170101
4.10408
0.143353
4.08459
0.116235
4.06956
0.0888084
4.05906
0.0611099
4.05316
0.0331179
4.05197
0.00465287
4.05561
-0.0243345
4.06415
-0.0536656
4.07775
-0.0841145
4.09656
-0.115488
4.12075
-0.147758
-0.180926
16.9234
-0.0251782
16.9034
0.139122
16.8613
0.292563
16.7996
0.430821
16.7197
0.557557
16.6236
0.671565
16.5126
0.775572
16.3883
0.869515
16.2517
0.955182
16.1039
1.03343
15.946
1.10473
15.7786
1.16992
15.6028
1.22834
15.4194
1.28142
15.2295
1.32698
15.0339
1.3676
14.8337
1.40145
14.6292
1.43152
14.4211
1.4572
14.2095
1.48034
13.9949
1.5
13.7778
1.51647
13.5588
1.52968
13.3384
1.53884
13.1173
1.54565
12.8957
1.54964
12.6738
1.55136
12.4521
1.55159
12.2306
1.54987
12.0096
1.54611
11.7895
1.54097
11.5703
1.53403
11.3523
1.52523
11.1358
1.51551
10.9208
1.50474
10.7074
1.49244
10.4961
1.47874
10.2869
1.46298
10.0803
1.44437
9.8766
1.42442
9.67571
1.40433
9.47763
1.38446
9.28243
1.36577
9.09006
1.34751
8.90063
1.32834
8.71424
1.30788
8.53089
1.28571
8.35062
1.2624
8.17343
1.23937
7.99934
1.21727
7.82841
1.19607
7.6606
1.17524
7.49602
1.15373
7.33488
1.13046
7.17756
1.10438
7.02422
1.07633
6.87471
1.04821
6.72889
1.02097
6.58677
0.994825
6.44837
0.969584
6.31366
0.944512
6.18263
0.918917
6.05525
0.892736
5.93149
0.866181
5.81139
0.839509
5.69501
0.813009
5.58233
0.786753
5.47337
0.760636
5.36815
0.734509
5.26667
0.708152
5.16898
0.681391
5.07517
0.654233
4.98529
0.626823
4.8994
0.599836
4.81712
0.57455
4.7389
0.546608
4.66483
0.518182
4.59492
0.489584
4.5292
0.460931
4.46764
0.432295
4.41022
0.403721
4.35692
0.375192
4.3077
0.34659
4.26253
0.317812
4.22145
0.288708
4.18453
0.259157
4.15185
0.229095
4.12345
0.198498
4.09939
0.167406
4.07973
0.135901
4.06448
0.104051
4.05373
0.0718628
4.04757
0.0392808
4.04615
0.00606898
4.04961
-0.0277926
4.05802
-0.0620766
4.07154
-0.0976372
4.0903
-0.134251
4.11446
-0.171913
-0.210632
16.922
-0.0291764
16.9018
0.159308
16.8597
0.334696
16.7978
0.492723
16.7178
0.637519
16.6216
0.767795
16.5105
0.886608
16.3861
0.993996
16.2494
1.09182
16.1015
1.18133
15.9435
1.26278
15.776
1.33739
15.6001
1.40426
15.4166
1.46489
15.2266
1.51704
15.0309
1.56327
14.8306
1.60175
14.626
1.63607
14.4178
1.66545
14.2061
1.69199
13.9913
1.71486
13.774
1.73374
13.5549
1.74882
13.3343
1.75935
13.1132
1.76683
12.8915
1.77133
12.6695
1.77336
12.4476
1.77342
12.2261
1.77142
12.005
1.76722
11.7848
1.7612
11.5655
1.75328
11.3474
1.74335
11.1308
1.73204
10.9159
1.71973
10.7025
1.70584
10.4911
1.69005
10.282
1.67212
10.0753
1.65105
9.87157
1.62818
9.6706
1.6053
9.4724
1.58266
9.27713
1.56104
9.08476
1.53987
8.89539
1.51771
8.70905
1.49422
8.52567
1.46909
8.3453
1.44277
8.16798
1.41669
7.99381
1.39145
7.82289
1.36699
7.65522
1.34291
7.49086
1.31809
7.33001
1.29132
7.17302
1.26138
7.01987
1.22947
6.87047
1.19762
6.72471
1.16673
6.58263
1.13691
6.44428
1.10793
6.30963
1.07916
6.17861
1.04994
6.05119
1.02015
5.92736
0.99001
5.80716
0.959709
5.69066
0.929512
5.57787
0.899542
5.46879
0.86971
5.36346
0.839844
5.26188
0.809727
5.16411
0.779165
5.0702
0.748137
4.98024
0.71678
4.8943
0.685777
4.81198
0.656876
4.73372
0.624867
4.65961
0.592283
4.58969
0.559511
4.52394
0.526675
4.46238
0.493856
4.40497
0.461133
4.35165
0.42851
4.30237
0.395863
4.25714
0.363045
4.21598
0.329866
4.17897
0.296171
4.14616
0.261897
4.11762
0.227042
4.09337
0.191654
4.07346
0.15581
4.05792
0.119586
4.04684
0.0829435
4.04035
0.0457687
4.03869
0.00773147
4.04204
-0.0311449
4.05045
-0.0704835
4.06402
-0.111211
4.08285
-0.15308
4.10705
-0.196108
-0.240304
16.9204
-0.0333306
16.9001
0.179647
16.8578
0.376964
16.7957
0.55476
16.7157
0.717603
16.6193
0.864146
16.5082
0.99776
16.3835
1.11861
16.2468
1.22858
16.0987
1.32936
15.9406
1.42094
15.773
1.50496
15.597
1.5803
15.4134
1.64844
15.2233
1.70718
15.0275
1.75903
14.8271
1.80214
14.6224
1.84076
14.414
1.87389
14.2022
1.9038
13.9871
1.92993
13.7697
1.95121
13.5504
1.96808
13.3298
1.98
13.1085
1.98813
12.8867
1.99309
12.6646
1.99547
12.4427
1.99535
12.221
1.99306
11.9997
1.98848
11.7794
1.98159
11.56
1.97265
11.3417
1.96159
11.1251
1.94866
10.9102
1.93472
10.6968
1.91922
10.4855
1.90133
10.2764
1.88118
10.0698
1.85772
9.86597
1.83198
9.66492
1.80635
9.46659
1.78099
9.27121
1.75642
9.07882
1.73227
8.88944
1.70709
8.70307
1.68059
8.5196
1.65255
8.33908
1.6233
8.16162
1.59415
7.98736
1.5657
7.81648
1.53787
7.649
1.51039
7.48493
1.48216
7.32442
1.45183
7.16778
1.41802
7.01486
1.3824
6.86557
1.34691
6.71988
1.31241
6.57784
1.27894
6.43954
1.24623
6.30491
1.21379
6.17386
1.18098
6.04638
1.14764
5.92246
1.11393
5.80214
1.08002
5.68552
1.04614
5.57261
1.01245
5.46343
0.978889
5.358
0.945273
5.25636
0.911366
5.15855
0.876974
5.06463
0.84206
4.97465
0.806758
4.88868
0.77174
4.80633
0.739226
4.72803
0.703169
4.65387
0.666438
4.58388
0.629504
4.51806
0.592497
4.45641
0.555502
4.39891
0.518636
4.34546
0.481956
4.29603
0.445292
4.25064
0.408434
4.20933
0.37118
4.17215
0.333349
4.13917
0.294878
4.11041
0.255798
4.0859
0.216167
4.06565
0.176053
4.04972
0.135519
4.03822
0.0944422
4.0315
0.0524912
4.02981
0.00941417
4.03322
-0.0345571
4.04173
-0.078988
4.05542
-0.124899
4.07435
-0.172013
4.0986
-0.22036
-0.269942
16.9186
-0.037564
16.8981
0.200127
16.8557
0.419385
16.7935
0.616946
16.7133
0.797821
16.6168
0.960637
16.5055
1.10905
16.3807
1.24338
16.2438
1.36551
16.0956
1.47757
15.9373
1.57925
15.7696
1.67266
15.5935
1.75642
15.4099
1.83202
15.2197
1.89737
15.0238
1.95488
14.8233
2.00268
14.6184
2.04566
14.4097
2.0826
14.1976
2.11585
13.9824
2.14521
13.7647
2.16883
13.5454
2.18743
13.3246
2.20075
13.1032
2.20952
12.8814
2.21492
12.6592
2.21768
12.4371
2.21741
12.2154
2.21483
11.9939
2.20993
11.7733
2.2022
11.5538
2.19217
11.3354
2.17997
11.1187
2.16537
10.9037
2.14968
10.6904
2.13256
10.4792
2.11254
10.2703
2.0901
10.0637
2.06432
9.85982
2.03584
9.65868
2.00748
9.4602
1.97947
9.26468
1.95194
9.07221
1.92474
8.88275
1.89655
8.69628
1.86705
8.51267
1.83616
8.33196
1.80402
8.15435
1.77176
7.98004
1.74
7.80923
1.70869
7.64198
1.67764
7.47824
1.64589
7.31812
1.61194
7.16184
1.5743
7.00914
1.53509
6.85996
1.4961
6.71435
1.45803
6.57236
1.42093
6.43407
1.38453
6.29943
1.34843
6.16833
1.31208
6.04075
1.27522
5.91672
1.23795
5.79629
1.20044
5.67954
1.16289
5.56652
1.12546
5.45726
1.08816
5.35176
1.05077
5.2501
1.01303
5.15231
0.974762
5.05844
0.935928
4.96853
0.896665
4.88262
0.857652
4.80029
0.821552
4.72194
0.781519
4.64769
0.74069
4.57756
0.699628
4.51157
0.658484
4.44973
0.61734
4.39202
0.576352
4.33832
0.535655
4.28861
0.494997
4.24296
0.454092
4.2014
0.412738
4.16398
0.370763
4.13075
0.328111
4.1017
0.284846
4.07682
0.241045
4.05614
0.196738
4.03985
0.151799
4.02829
0.106006
4.02164
0.0591452
4.02003
0.0110181
4.02353
-0.0380587
4.03214
-0.0875967
4.04593
-0.138692
4.06495
-0.191026
4.08922
-0.244633
-0.299506
16.9163
-0.0415413
16.8959
0.220517
16.8533
0.461916
16.791
0.679294
16.7106
0.878189
16.614
1.05728
16.5025
1.2205
16.3776
1.36834
16.2404
1.50263
16.092
1.62598
15.9335
1.73774
15.7657
1.84047
15.5896
1.9326
15.406
2.01561
15.2158
2.08758
15.0198
2.15081
14.8191
2.2034
14.6139
2.25083
14.4049
2.29166
14.1925
2.32819
13.977
2.36071
13.7593
2.38662
13.5398
2.40685
13.319
2.42157
13.0975
2.43101
12.8756
2.43681
12.6533
2.43999
12.4311
2.43962
12.2092
2.43676
11.9875
2.43159
11.7667
2.42305
11.547
2.41189
11.3284
2.39849
11.1116
2.3822
10.8966
2.36465
10.6834
2.3458
10.4723
2.32365
10.2635
2.29886
10.057
2.27083
9.85311
2.23974
9.65186
2.20873
9.4532
2.17813
9.2575
2.14764
9.0649
2.11734
8.8753
2.08614
8.68868
2.05367
8.50489
2.01995
8.32397
1.98494
8.14623
1.9495
7.97191
1.91432
7.80119
1.8794
7.63418
1.84465
7.47081
1.80926
7.31111
1.77164
7.15517
1.73024
7.00269
1.68758
6.85361
1.64517
6.70806
1.60358
6.56611
1.56287
6.42781
1.52283
6.29312
1.48312
6.16195
1.44325
6.03426
1.40291
5.91012
1.3621
5.78958
1.32098
5.67272
1.27975
5.5596
1.23858
5.45026
1.19749
5.34474
1.15628
5.2431
1.11468
5.14538
1.07248
5.05163
1.02968
4.96185
0.986446
4.87603
0.943473
4.79378
0.903796
4.71543
0.859872
4.64106
0.815054
4.57074
0.769951
4.50449
0.724734
4.44233
0.679494
4.38427
0.634413
4.33019
0.589737
4.28007
0.54511
4.23402
0.50015
4.1921
0.454659
4.15435
0.408513
4.12077
0.361683
4.09138
0.314238
4.06621
0.266214
4.04541
0.217538
4.02918
0.168028
4.01771
0.117473
4.01115
0.0657047
4.00962
0.0125448
4.0132
-0.0416321
4.02188
-0.0962804
4.03574
-0.152549
4.05477
-0.210061
4.07899
-0.268851
-0.328926
16.9141
-0.0460087
16.8935
0.241131
16.8508
0.504622
16.7883
0.74182
16.7077
0.958721
16.6109
1.15411
16.4993
1.33214
16.3741
1.49352
16.2367
1.63999
16.0881
1.77463
15.9294
1.89642
15.7615
2.0084
15.5852
2.10882
15.4017
2.19918
15.2115
2.27777
15.0155
2.34681
14.8145
2.40435
14.609
2.45635
14.3995
2.50112
14.1869
2.54087
13.9711
2.57643
13.7532
2.60455
13.5337
2.62633
13.3128
2.64245
13.0913
2.65259
12.8693
2.65877
12.6469
2.66238
12.4246
2.66198
12.2024
2.65887
11.9806
2.65348
11.7594
2.64417
11.5395
2.63183
11.3208
2.61716
11.1039
2.59914
10.8889
2.57962
10.6758
2.55895
10.4648
2.53464
10.2562
2.50747
10.0498
2.47723
9.84581
2.4437
9.64442
2.41012
9.44556
2.37699
9.24963
2.34357
9.05685
2.31012
8.86708
2.2759
8.68026
2.24049
8.49629
2.20393
8.31518
2.16604
8.13733
2.12735
7.96303
2.08863
7.79242
2.05
7.62566
2.01141
7.46266
1.97225
7.30338
1.93092
7.14775
1.88587
6.99546
1.83987
6.84646
1.79417
6.70095
1.7491
6.55902
1.7048
6.4207
1.66116
6.28594
1.61787
6.15468
1.57451
6.02688
1.5307
5.90262
1.48635
5.78198
1.44162
5.66502
1.39671
5.55182
1.35179
5.44244
1.30687
5.33694
1.26178
5.23536
1.21625
5.13777
1.17007
5.04418
1.12327
4.95455
1.07607
4.86883
1.02919
4.78666
0.985969
4.70829
0.938239
4.6338
0.889543
4.56325
0.840501
4.49669
0.791295
4.43415
0.742031
4.37565
0.692913
4.3211
0.64429
4.27052
0.595685
4.22403
0.546642
4.18172
0.496969
4.14364
0.446598
4.10979
0.395527
4.08022
0.343811
4.05499
0.291445
4.03422
0.238302
4.01808
0.184172
4.0067
0.128855
4.0002
0.0721963
3.99873
0.0140221
4.00234
-0.0452485
4.01106
-0.105003
4.02493
-0.166418
4.04391
-0.229038
4.06797
-0.292911
-0.358103
16.9118
-0.0509343
16.8909
0.262008
16.848
0.547519
16.7853
0.804538
16.7046
1.03943
16.6076
1.25113
16.4957
1.44398
16.3703
1.61894
16.2327
1.77763
16.0838
1.92355
15.9248
2.05533
15.7568
2.17648
15.5805
2.28507
15.397
2.3827
15.2068
2.46791
15.0108
2.54289
14.8096
2.60557
14.6037
2.66225
14.3937
2.71105
14.1807
2.75393
13.9647
2.79238
13.7466
2.82263
13.5271
2.84589
13.3062
2.86338
13.0845
2.87425
12.8625
2.8808
12.64
2.88486
12.4175
2.88449
12.1951
2.88119
11.973
2.8756
11.7516
2.86555
11.5315
2.85199
11.3127
2.83597
11.0956
2.81619
10.8806
2.79462
10.6676
2.772
10.4567
2.74553
10.2482
2.71594
10.0419
2.68354
9.83787
2.64775
9.63629
2.6117
9.4372
2.57608
9.24102
2.53975
9.04802
2.50312
8.85806
2.46586
8.67104
2.42751
8.48689
2.38808
8.30565
2.34728
8.12773
2.30527
7.95347
2.26289
7.78301
2.22047
7.61647
2.17795
7.45383
2.13489
7.29495
2.0898
7.13957
2.04125
6.98741
1.99204
6.83847
1.94311
6.69297
1.8946
6.55104
1.84673
6.41267
1.79953
6.27783
1.75271
6.14648
1.70587
6.01859
1.65859
5.89423
1.61071
5.77349
1.56235
5.65646
1.51374
5.5432
1.46505
5.43381
1.41626
5.32836
1.36723
5.2269
1.31771
5.12946
1.26751
5.03604
1.21669
4.94658
1.16554
4.86094
1.11483
4.77881
1.0681
4.70041
1.01664
4.62579
0.964165
4.555
0.911291
4.48811
0.858186
4.42515
0.804983
4.36617
0.7519
4.31112
0.699335
4.26011
0.646695
4.21325
0.593499
4.17064
0.53958
4.13232
0.484918
4.09831
0.429536
4.06866
0.373465
4.04343
0.316675
4.02272
0.259012
4.00664
0.200251
3.99531
0.140185
3.98885
0.0786552
3.98739
0.0154761
3.99103
-0.0488869
3.99976
-0.113735
4.01359
-0.18024
4.03241
-0.247859
4.05618
-0.31669
-0.386924
16.9094
-0.0563423
16.8882
0.283225
16.8451
0.590626
16.7821
0.867462
16.7012
1.12033
16.604
1.34837
16.4919
1.55606
16.3662
1.74464
16.2283
1.91557
16.0791
2.07277
15.9199
2.2145
15.7517
2.34472
15.5754
2.46134
15.3919
2.56616
15.2018
2.658
15.0057
2.73901
14.8042
2.80707
14.5979
2.86857
14.3875
2.92146
14.174
2.96742
13.9578
3.00858
13.7396
3.04087
13.5199
3.06555
13.2989
3.08436
13.0772
3.09601
12.855
3.10294
12.6325
3.10742
12.4098
3.10717
12.1873
3.10371
11.9649
3.09792
11.7433
3.08716
11.523
3.07237
11.304
3.05491
11.0869
3.03335
10.8718
3.00966
10.6589
2.98496
10.4481
2.95633
10.2397
2.92432
10.0334
2.88979
9.82925
2.85194
9.62743
2.81352
9.42808
2.77543
9.23161
2.73622
9.03838
2.69634
8.84824
2.65601
8.66103
2.61471
8.47675
2.57236
8.29543
2.5286
8.11749
2.48322
7.9433
2.43707
7.77298
2.39079
7.60665
2.34428
7.44432
2.29721
7.28579
2.24833
7.13059
2.19645
6.9785
2.14412
6.82959
2.09202
6.68406
2.04013
6.5421
1.98869
6.40369
1.93794
6.26877
1.88763
6.13733
1.83731
6.00936
1.78656
5.88492
1.73516
5.7641
1.68317
5.64702
1.63083
5.53374
1.57832
5.42437
1.52563
5.31901
1.47259
5.2177
1.41902
5.12044
1.36478
5.02718
1.30995
4.93783
1.25488
4.85225
1.20041
4.77014
1.1502
4.69168
1.0951
4.61692
1.03893
4.5459
0.982311
4.47868
0.925401
4.41532
0.868346
4.35584
0.811374
4.30034
0.754836
4.24898
0.698063
4.20185
0.640628
4.15903
0.582396
4.12057
0.523385
4.08647
0.463629
4.05679
0.403145
4.03158
0.341884
4.01091
0.279681
3.99487
0.216295
3.98356
0.151497
3.97711
0.0851047
3.97567
0.0169169
3.97932
-0.0525402
3.98803
-0.122449
4.00173
-0.193941
4.02027
-0.266397
4.04362
-0.340039
-0.415269
16.9068
-0.0621843
16.8852
0.304784
16.8419
0.633959
16.7787
0.930609
16.6976
1.20144
16.6001
1.44583
16.4878
1.66839
16.3618
1.87062
16.2236
2.05385
16.074
2.22231
15.9146
2.37396
15.7461
2.51314
15.5698
2.63765
15.3864
2.74958
15.1964
2.84801
15.0003
2.93517
14.7985
3.00886
14.5917
3.07534
14.3808
3.13238
14.1669
3.18134
13.9504
3.22504
13.732
3.25927
13.5122
3.28534
13.2911
3.30541
13.0693
3.31787
12.847
3.32518
12.6244
3.33007
12.4015
3.33
12.1788
3.32644
11.9563
3.32042
11.7345
3.30895
11.514
3.29294
11.2949
3.27396
11.0777
3.25061
10.8626
3.22476
10.6496
3.19788
10.4389
3.16709
10.2305
3.13269
10.0243
3.09606
9.81987
3.05632
9.61775
3.01564
9.41812
2.97507
9.22138
2.93296
9.02792
2.8898
8.83761
2.84632
8.65027
2.80205
8.46591
2.75672
8.28458
2.70993
8.10666
2.66114
7.93256
2.61118
7.76238
2.56096
7.59623
2.51043
7.43417
2.45928
7.27591
2.40658
7.1208
2.35157
6.96872
2.29621
6.81978
2.24096
6.6742
2.1857
6.53218
2.13072
6.39371
2.0764
6.25873
2.02261
6.12721
1.96882
5.99919
1.91458
5.87469
1.85966
5.75382
1.80403
5.63671
1.74794
5.52345
1.69158
5.41415
1.63493
5.3089
1.57783
5.20776
1.52016
5.11066
1.46188
5.01752
1.40309
4.92826
1.34415
4.84269
1.28598
4.76057
1.23232
4.68203
1.17364
4.60713
1.11383
4.5359
1.05354
4.46838
0.992915
4.40464
0.932091
4.34472
0.871288
4.28885
0.810704
4.23723
0.749691
4.18992
0.687934
4.14698
0.625337
4.10843
0.56193
4.07431
0.497756
4.04463
0.432823
4.01944
0.36707
3.9988
0.300326
3.98277
0.232327
3.97146
0.162805
3.96502
0.0915455
3.9636
0.0183352
3.96726
-0.0562064
3.9759
-0.131091
3.98936
-0.207394
4.00744
-0.284482
4.0302
-0.362798
-0.443028
16.9028
-0.0671849
16.882
0.325623
16.8385
0.677453
16.7751
0.993996
16.6937
1.28278
16.596
1.54355
16.4834
1.78098
16.3571
1.9969
16.2185
2.19249
16.0686
2.37218
15.9089
2.53372
15.7402
2.68178
15.5639
2.81403
15.3805
2.93296
15.1905
3.03796
14.9943
3.13136
14.7923
3.21093
14.5851
3.28252
14.3737
3.34377
14.1593
3.39572
13.9426
3.44179
13.724
3.47788
13.504
3.5053
13.2828
3.52658
13.0608
3.53986
12.8384
3.54758
12.6157
3.55284
12.3927
3.55298
12.1698
3.54933
11.9472
3.54303
11.7253
3.53088
11.5045
3.51365
11.2854
3.4931
11.0681
3.46796
10.8529
3.43995
10.6399
3.4108
10.4292
3.37785
10.2207
3.34114
10.0143
3.30246
9.80969
3.26097
9.60722
3.21812
9.40729
3.17499
9.21029
3.12996
9.01662
3.08346
8.8262
3.03674
8.63879
2.98945
8.45442
2.9411
8.27314
2.8912
8.09529
2.839
7.92127
2.78519
7.75124
2.73099
7.58524
2.67643
7.42336
2.62116
7.26528
2.56465
7.11018
2.50667
6.95802
2.44837
6.80902
2.38997
6.66335
2.33137
6.52123
2.27284
6.38269
2.21494
6.24766
2.15765
6.1161
2.10038
5.98804
2.04264
5.86353
1.98417
5.74264
1.92491
5.62554
1.86504
5.51235
1.80477
5.40315
1.74413
5.29804
1.68293
5.19706
1.62115
5.1001
1.55884
5.00704
1.49614
4.91779
1.43339
4.8322
1.37157
4.75006
1.31447
4.67142
1.25227
4.59638
1.18887
4.52495
1.12497
4.45718
1.06069
4.39311
0.996161
4.33285
0.931552
4.27672
0.866829
4.22493
0.801482
4.17753
0.735339
4.13453
0.668338
4.09595
0.600506
4.06183
0.531883
4.03217
0.462479
4.00701
0.392231
3.98638
0.320952
3.97036
0.248348
3.95907
0.1741
3.95266
0.0979521
3.95128
0.0197093
3.95494
-0.059861
3.96337
-0.13953
3.97635
-0.220375
3.99376
-0.301885
4.0158
-0.38484
-0.470134
16.8999
-0.0730795
16.8786
0.346919
16.8348
0.721209
16.7712
1.05764
16.6896
1.36435
16.5916
1.64154
16.4788
1.89386
16.3522
2.12349
16.2132
2.33148
16.0629
2.52241
15.9029
2.69381
15.734
2.85067
15.5575
2.99052
15.3741
3.11637
15.1841
3.22789
14.9879
3.32759
14.7856
3.41323
14.5781
3.49007
14.3662
3.55562
14.1514
3.61055
13.9343
3.65885
13.7155
3.69673
13.4953
3.7255
13.274
3.7479
13.0518
3.76202
12.8292
3.77018
12.6063
3.77574
12.3832
3.77608
12.1602
3.77237
11.9375
3.76572
11.7155
3.75286
11.4947
3.73446
11.2755
3.71232
11.0581
3.68538
10.8428
3.65526
10.6298
3.62378
10.419
3.58869
10.2103
3.54978
10.0037
3.50911
9.79867
3.46596
9.5958
3.42099
9.39557
3.37522
9.19835
3.32718
9.00452
3.27729
8.81403
3.22724
8.62662
3.17686
8.4423
3.12542
8.26114
3.07237
8.08339
3.01675
7.90946
2.95912
7.73954
2.90091
7.57366
2.84231
7.41189
2.78293
7.25387
2.72267
7.09869
2.66185
6.9464
2.60066
6.79726
2.5391
6.65147
2.47716
6.50922
2.4151
6.37059
2.35356
6.23553
2.29271
6.10396
2.23195
5.97591
2.17068
5.85143
2.10865
5.73058
2.04576
5.61354
1.98208
5.50044
1.91787
5.39138
1.85319
5.28643
1.78789
5.18558
1.722
5.08871
1.65571
4.99569
1.58917
4.90641
1.52267
4.82076
1.45722
4.73858
1.39665
4.65984
1.33101
4.58466
1.26405
4.51306
1.19656
4.44508
1.12867
4.38076
1.06048
4.32027
0.992045
4.26401
0.923089
4.21215
0.853343
4.16471
0.782773
4.12171
0.711344
4.08315
0.639067
4.04906
0.565977
4.01944
0.492095
3.99432
0.417356
3.97372
0.341551
3.95773
0.264336
3.94649
0.185342
3.94016
0.104275
3.93884
0.0210328
3.94234
-0.0633624
3.95018
-0.14737
3.96229
-0.232491
3.9789
-0.31849
4.00023
-0.40618
-0.496595
16.8969
-0.0798737
16.8751
0.368738
16.831
0.765249
16.7671
1.12157
16.6853
1.44619
16.587
1.73982
16.4738
2.00703
16.3469
2.25039
16.2075
2.47084
16.057
2.67298
15.8965
2.85425
15.7273
3.01985
15.5507
3.16717
15.3672
3.29985
15.1772
3.41785
14.981
3.52387
14.7785
3.61573
14.5706
3.69791
14.3584
3.76787
14.1431
3.82582
13.9257
3.87625
13.7066
3.91584
13.4861
3.94597
13.2646
3.96944
13.0422
3.98439
12.8194
3.99301
12.5963
3.9988
12.3731
3.99931
12.15
3.99551
11.9273
3.9884
11.7053
3.97481
11.4845
3.95531
11.2652
3.93157
11.0477
3.90288
10.8323
3.8707
10.6192
3.83688
10.4082
3.79969
10.1992
3.75872
9.99221
3.71614
9.78679
3.67138
9.58349
3.62429
9.38298
3.57573
9.1856
3.52456
8.99165
3.47124
8.80114
3.41775
8.61381
3.36419
8.42959
3.30964
8.24858
3.25337
8.07097
3.19436
7.89713
3.13295
7.7273
3.07074
7.56149
3.00812
7.39973
2.94469
7.24164
2.88075
7.08631
2.81719
6.93382
2.75315
6.7845
2.68843
6.63853
2.62312
6.4961
2.55753
6.35736
2.4923
6.22229
2.42778
6.09077
2.36347
5.96278
2.29867
5.83838
2.23305
5.71764
2.1665
5.60069
2.09902
5.48774
2.03082
5.37885
1.96208
5.27404
1.89269
5.17329
1.82274
5.07648
1.75252
4.98344
1.6822
4.89409
1.61202
4.80836
1.54296
4.72613
1.47888
4.64728
1.40987
4.57195
1.33938
4.5002
1.26831
4.43206