/*--------------------------------*- C++ -*----------------------------------*\
| =========                 |                                                 |
| \\      /  F ield         | OpenFOAM: The Open Source CFD Toolbox           |
|  \\    /   O peration     | Version:  4.1                                   |
|   \\  /    A nd           | Web:      www.OpenFOAM.org                      |
|    \\/     M anipulation  |                                                 |
\*---------------------------------------------------------------------------*/
FoamFile
{
    version     2.0;
    format      ascii;
    class       volVectorField;
    location    "10";
    object      U;
}
// * * * * * * * * * * * * * * * * * * * * * * * * * * * * * * * * * * * * * //

dimensions      [0 1 -1 0 0 0 0];

internalField   nonuniform List<vector> 
26785
(
(6.67395e-20 0.00023614 0.138244)
(-6.52318e-18 0.000235096 0.133001)
(-2.51079e-19 0.000234257 0.127933)
(1.83583e-17 0.000233003 0.123068)
(4.18538e-17 0.000231502 0.118399)
(-4.47215e-15 0.000229671 0.113918)
(-3.12995e-17 0.000227651 0.109619)
(-1.51032e-17 0.000225388 0.105493)
(2.04644e-15 0.00022302 0.101534)
(-1.83721e-15 0.000220495 0.0977339)
(-1.24048e-17 0.000217911 0.094085)
(-4.05317e-20 0.000215198 0.0905806)
(-1.18943e-22 0.000212418 0.0872145)
(1.02947e-20 0.000209567 0.0839804)
(-1.64816e-18 0.000206579 0.080873)
(-1.7618e-20 0.000203566 0.0778872)
(1.4393e-18 0.000200431 0.075018)
(8.57234e-21 0.000197278 0.0722609)
(-6.02349e-19 0.000194073 0.0696111)
(1.21621e-16 0.000190868 0.0670641)
(-4.9413e-19 0.000187589 0.0646158)
(-5.89286e-19 0.000184371 0.0622619)
(1.13386e-16 0.000181121 0.0599983)
(5.64231e-18 0.000177865 0.0578214)
(-1.28413e-15 0.000174681 0.0557272)
(-5.30734e-18 0.000171434 0.0537124)
(-1.39665e-20 0.000168226 0.0517741)
(1.72402e-18 0.000165071 0.0499088)
(-4.96997e-16 0.000161896 0.0481135)
(-4.89155e-16 0.000158768 0.0463855)
(-5.20819e-16 0.000155681 0.0447218)
(6.57674e-16 0.000152548 0.0431202)
(2.27062e-18 0.000149461 0.0415786)
(-1.01092e-16 0.000146435 0.0400943)
(-9.29791e-16 0.000143382 0.0386651)
(-2.50081e-18 0.00014039 0.0372891)
(-3.26874e-21 0.000137418 0.0359641)
(-3.70128e-24 0.000134364 0.0346888)
(1.1575e-21 0.000131321 0.033462)
(-9.93482e-19 0.000128298 0.0322819)
(4.45894e-16 0.000125291 0.031147)
(1.06208e-18 0.000122427 0.0300552)
(1.61243e-18 0.000119705 0.0290039)
(-8.0292e-16 0.000117059 0.0279911)
(-1.02914e-18 0.000114477 0.027015)
(-2.91171e-16 0.00011187 0.0260745)
(-6.07342e-19 0.000109183 0.0251689)
(-3.97933e-22 0.000106456 0.0242979)
(-1.12771e-19 0.000103771 0.0234604)
(-5.23797e-19 0.000101205 0.0226549)
(3.84535e-16 9.87779e-05 0.0218794)
(5.89453e-19 9.64493e-05 0.0211324)
(5.95895e-22 9.41435e-05 0.0204125)
(-8.56326e-20 9.1787e-05 0.0197192)
(8.84971e-20 8.93451e-05 0.0190525)
(3.16463e-19 8.68375e-05 0.0184121)
(-2.49631e-16 8.43215e-05 0.0177976)
(-3.13667e-19 8.18683e-05 0.0172083)
(4.64317e-19 7.95238e-05 0.016643)
(-3.38993e-16 7.72959e-05 0.0161001)
(-3.85161e-19 7.51469e-05 0.0155785)
(-6.96511e-20 7.30107e-05 0.0150775)
(1.27936e-19 7.08476e-05 0.0145967)
(-1.28339e-16 6.86671e-05 0.0141357)
(-1.28221e-19 6.64963e-05 0.0136941)
(-6.26525e-23 6.43716e-05 0.0132712)
(2.02587e-24 6.23089e-05 0.0128664)
(7.48102e-23 6.03011e-05 0.0124788)
(-5.67696e-20 5.83247e-05 0.0121079)
(1.58423e-19 5.63591e-05 0.011753)
(-1.97891e-16 5.43971e-05 0.0114139)
(-1.9413e-19 5.24361e-05 0.0110902)
(-1.05061e-22 5.04802e-05 0.0107815)
(1.16761e-23 4.85219e-05 0.0104871)
(-8.41636e-20 4.6646e-05 0.0102064)
(1.55402e-16 4.47743e-05 0.00993908)
(1.10546e-19 4.29161e-05 0.00968519)
(3.37356e-23 4.10746e-05 0.00944438)
(4.23944e-21 3.92539e-05 0.0092163)
(-4.78425e-24 3.74516e-05 0.00900061)
(3.14203e-20 3.56662e-05 0.00879697)
(-5.27552e-17 3.38996e-05 0.00860504)
(-3.26935e-20 3.21439e-05 0.00842455)
(3.62057e-20 3.03872e-05 0.00825525)
(-4.15947e-17 2.86247e-05 0.00809695)
(-2.06472e-20 2.68561e-05 0.00794948)
(-1.2061e-20 2.50804e-05 0.00781268)
(3.32383e-20 2.32945e-05 0.00768643)
(-6.39958e-17 2.14969e-05 0.00757059)
(-3.51544e-20 1.96889e-05 0.00746504)
(-9.59564e-24 1.78725e-05 0.00736964)
(-4.19205e-27 1.60529e-05 0.00728424)
(7.44976e-24 1.42384e-05 0.00720866)
(-7.49734e-21 1.24233e-05 0.00714276)
(-4.15943e-21 1.05958e-05 0.00708638)
(8.60625e-18 8.73867e-06 0.00703936)
(2.02429e-21 6.85173e-06 0.00700166)
(-1.36135e-24 4.91764e-06 0.0069734)
(-7.65821e-28 2.93928e-06 0.0069546)
(-1.93577e-31 9.46862e-07 0.00694521)
(2.56525e-17 0.000707131 0.138236)
(-2.65748e-15 0.000705273 0.133)
(-2.41163e-17 0.000702765 0.127931)
(-1.57982e-17 0.00069901 0.123066)
(2.41728e-15 0.000694498 0.118397)
(-2.23492e-15 0.000689023 0.113916)
(2.14086e-15 0.000682939 0.109617)
(3.11642e-17 0.000676165 0.105491)
(-2.03725e-15 0.000669031 0.101532)
(-1.7033e-17 0.00066148 0.0977318)
(-6.60633e-20 0.000653709 0.0940829)
(-9.94674e-23 0.000645605 0.0905785)
(-2.83966e-20 0.000637225 0.0872124)
(9.28297e-18 0.000628713 0.0839782)
(-1.58754e-15 0.000619708 0.0808708)
(-1.70782e-17 0.000610708 0.077885)
(1.53791e-15 0.000601301 0.0750157)
(6.74254e-18 0.000591833 0.0722586)
(5.3924e-19 0.000582207 0.0696088)
(-1.23263e-16 0.000572585 0.0670618)
(-1.39881e-15 0.00056275 0.0646135)
(-1.15259e-16 0.000553101 0.0622597)
(-1.34312e-15 0.000543379 0.059996)
(-5.9359e-18 0.00053359 0.0578191)
(1.2017e-18 0.000524057 0.0557249)
(-5.70463e-16 0.000514311 0.0537101)
(-2.74792e-18 0.00050466 0.0517718)
(-8.24772e-21 0.000495212 0.0499065)
(1.30452e-18 0.000485685 0.0481112)
(-4.91308e-16 0.000476277 0.0463832)
(5.15348e-16 0.000467044 0.0447196)
(2.19802e-18 0.000457646 0.043118)
(-1.88699e-19 0.000448348 0.0415764)
(1.11252e-18 0.000439297 0.040092)
(-4.86453e-16 0.000430149 0.0386629)
(-1.30786e-18 0.000421145 0.0372869)
(-1.76036e-21 0.000412266 0.0359619)
(-1.89193e-24 0.000403111 0.0346866)
(4.40286e-23 0.000393937 0.0334598)
(2.64541e-22 0.000384885 0.0322797)
(-3.98359e-19 0.000375863 0.0311448)
(2.77913e-16 0.000367243 0.0300531)
(-1.03399e-18 0.000359109 0.0290019)
(8.05491e-16 0.0003512 0.0279891)
(1.57687e-18 0.000343446 0.027013)
(3.50197e-19 0.000335623 0.0260724)
(-2.56313e-16 0.000327524 0.0251668)
(2.12644e-19 0.000319295 0.0242958)
(-3.97203e-16 0.000311239 0.0234584)
(2.73027e-16 0.000303586 0.0226529)
(-2.70139e-16 0.000296343 0.0218775)
(-4.15373e-19 0.000289374 0.0211305)
(4.79808e-19 0.000282465 0.0204106)
(-3.41981e-16 0.000275388 0.0197173)
(3.63542e-16 0.00026804 0.0190505)
(8.60162e-19 0.000260489 0.0184101)
(-3.54918e-16 0.00025291 0.0177957)
(-7.88044e-19 0.000245539 0.0172064)
(3.46486e-16 0.000238542 0.0166411)
(3.76915e-19 0.000231899 0.0160983)
(3.55275e-19 0.000225469 0.0155768)
(-3.32269e-16 0.000219053 0.0150758)
(-4.58989e-19 0.000212534 0.0145949)
(1.04896e-16 0.000205964 0.0141339)
(8.65587e-20 0.000199458 0.0136923)
(-2.87763e-23 0.000193098 0.0132695)
(2.10184e-20 0.000186926 0.0128647)
(2.66628e-19 0.000180912 0.0124772)
(-3.1319e-16 0.000174979 0.0121062)
(-2.69424e-19 0.000169082 0.0117514)
(1.11464e-19 0.000163197 0.0114123)
(-1.95576e-16 0.000157316 0.0110885)
(-1.50164e-19 0.000151448 0.0107798)
(-8.8138e-20 0.000145585 0.0104855)
(1.45722e-16 0.00013994 0.0102048)
(-1.4321e-16 0.000134318 0.00993749)
(-1.01999e-19 0.000128745 0.00968361)
(-1.82569e-20 0.00012322 0.00944281)
(2.80803e-17 0.000117748 0.00921475)
(1.87819e-20 0.000112339 0.00899907)
(2.53138e-20 0.000106989 0.00879544)
(-4.24216e-17 0.00010169 0.00860353)
(-8.57359e-20 9.64202e-05 0.00842304)
(9.18439e-17 9.11521e-05 0.00825373)
(3.32228e-20 8.58693e-05 0.00809543)
(2.74155e-17 8.0566e-05 0.00794795)
(-8.94803e-17 7.52359e-05 0.00781115)
(-8.37933e-20 6.98724e-05 0.00768489)
(6.38995e-17 6.44728e-05 0.00756904)
(2.71211e-20 5.90425e-05 0.00746348)
(-4.10027e-24 5.35963e-05 0.00736807)
(-2.46614e-24 4.81473e-05 0.00728267)
(2.67638e-20 4.27024e-05 0.0072071)
(-6.09898e-17 3.72595e-05 0.00714119)
(-3.17597e-20 3.17923e-05 0.0070848)
(1.07347e-20 2.62383e-05 0.00703775)
(-2.0449e-17 2.05526e-05 0.00700002)
(-1.04511e-20 1.47351e-05 0.00697172)
(-2.67948e-24 8.81899e-06 0.0069529)
(-4.57814e-28 2.86638e-06 0.00694355)
(-2.48698e-17 0.00117859 0.138232)
(2.57565e-15 0.00117544 0.132996)
(2.91376e-17 0.00117127 0.127928)
(2.38924e-15 0.001165 0.123062)
(2.40834e-15 0.00115749 0.118393)
(-2.1956e-15 0.00114835 0.113912)
(2.14701e-15 0.00113821 0.109613)
(1.33606e-17 0.00112692 0.105487)
(-3.34342e-18 0.00111502 0.101528)
(-2.4006e-20 0.00110244 0.0977276)
(-8.98508e-23 0.00108948 0.0940786)
(1.00089e-21 0.001076 0.0905742)
(1.08049e-21 0.00106203 0.087208)
(-1.41835e-19 0.00104787 0.0839738)
(-2.72663e-18 0.00103284 0.0808663)
(1.24514e-16 0.00101785 0.0778805)
(1.54741e-15 0.00100215 0.0750112)
(-1.48777e-15 0.000986344 0.072254)
(-1.39322e-16 0.000970273 0.0696042)
(1.70585e-16 0.000954249 0.0670572)
(-1.28537e-17 0.000937889 0.0646089)
(2.73693e-15 0.00092182 0.0622551)
(1.30569e-17 0.000905668 0.0599914)
(-5.95833e-16 0.000889337 0.0578145)
(-3.62161e-19 0.00087344 0.0557203)
(-5.19375e-16 0.000857193 0.0537055)
(-1.19515e-15 0.000841063 0.0517673)
(-4.28872e-18 0.000825326 0.049902)
(-6.62339e-21 0.000809464 0.0481067)
(-3.43274e-19 0.000793741 0.0463787)
(-9.20082e-19 0.000778351 0.0447151)
(4.69213e-16 0.000762712 0.0431135)
(-4.60678e-16 0.000747177 0.0415719)
(-4.54842e-16 0.000732113 0.0400876)
(-1.71566e-18 0.00071691 0.0386584)
(1.07163e-19 0.000701873 0.0372825)
(-2.74041e-19 0.000687103 0.0359575)
(-2.08091e-21 0.000671888 0.0346821)
(2.49693e-19 0.000656545 0.0334553)
(-2.35998e-19 0.00064146 0.0322753)
(-1.99836e-21 0.000626447 0.0311405)
(3.82746e-19 0.000612031 0.0300488)
(8.84651e-22 0.000598484 0.0289978)
(2.90715e-19 0.000585331 0.027985)
(1.80673e-22 0.00057237 0.027009)
(-2.39699e-22 0.000559289 0.0260683)
(-1.46767e-20 0.000545755 0.0251627)
(1.9251e-19 0.000532023 0.0242917)
(-1.54423e-19 0.000518632 0.0234543)
(2.25518e-20 0.000505941 0.022649)
(-1.00538e-19 0.000493912 0.0218737)
(-5.36505e-20 0.000482301 0.0211267)
(5.05947e-20 0.000470782 0.0204068)
(-4.65617e-20 0.00045898 0.0197135)
(5.91572e-19 0.000446696 0.0190466)
(-3.59525e-16 0.000434072 0.0184061)
(-1.03736e-18 0.000421424 0.0177917)
(3.24159e-16 0.000409151 0.0172026)
(1.3802e-19 0.000397534 0.0166374)
(3.13645e-16 0.000386503 0.0160947)
(3.56649e-19 0.000375778 0.0155732)
(-7.36535e-20 0.00036505 0.0150722)
(-8.22646e-24 0.000354157 0.0145913)
(1.27687e-19 0.000343197 0.0141303)
(-1.03484e-16 0.000332377 0.0136887)
(-1.96279e-19 0.000321812 0.013266)
(1.2361e-16 0.000311545 0.0128613)
(9.40442e-20 0.00030153 0.0124738)
(-7.21697e-20 0.000291642 0.0121029)
(4.19001e-23 0.000281807 0.011748)
(-1.05494e-20 0.000272001 0.0114089)
(-6.14807e-20 0.000262207 0.0110852)
(2.69736e-17 0.000252434 0.0107765)
(1.03453e-16 0.000242685 0.0104822)
(8.4783e-20 0.000233248 0.0102016)
(-6.76803e-21 0.000223861 0.0099343)
(8.0783e-23 0.000214554 0.00968045)
(-3.82916e-21 0.000205332 0.00943967)
(5.0352e-21 0.000196198 0.00921164)
(-2.36716e-24 0.00018717 0.00899599)
(-1.4002e-23 0.000178247 0.00879238)
(2.34931e-20 0.000169411 0.00860049)
(-5.25069e-17 0.000160625 0.00842001)
(-2.40057e-20 0.000151844 0.0082507)
(-3.53421e-23 0.00014304 0.00809239)
(4.14499e-21 0.000134202 0.0079449)
(-6.89768e-21 0.00012532 0.00780808)
(2.65298e-23 0.000116383 0.0076818)
(4.13272e-20 0.00010739 0.00756593)
(-6.3166e-17 9.83489e-05 0.00746036)
(-2.90059e-20 8.92833e-05 0.00736496)
(8.79654e-21 8.02253e-05 0.00727955)
(-2.39291e-17 7.11884e-05 0.00720398)
(-2.01014e-20 6.21433e-05 0.00713807)
(-1.0363e-24 5.30344e-05 0.00708164)
(1.01599e-20 4.37743e-05 0.00703453)
(-1.83683e-17 3.43091e-05 0.00699673)
(-7.95545e-21 2.46245e-05 0.00696837)
(9.09012e-25 1.47833e-05 0.00694951)
(3.28446e-26 4.86837e-06 0.00694022)
(3.13055e-19 0.00164999 0.138231)
(-4.02151e-17 0.00164559 0.132991)
(2.47296e-15 0.00163977 0.127922)
(2.43155e-15 0.00163098 0.123057)
(7.0779e-18 0.00162047 0.118387)
(2.22066e-15 0.00160765 0.113906)
(3.97718e-17 0.00159344 0.109607)
(-1.96011e-15 0.00157763 0.105481)
(-1.42118e-17 0.00156097 0.101522)
(-5.13353e-20 0.00154336 0.0977212)
(-1.41503e-20 0.00152521 0.0940722)
(1.77332e-18 0.00150638 0.0905677)
(1.03096e-18 0.00148683 0.0872015)
(-1.63476e-16 0.00146703 0.0839672)
(-9.7378e-19 0.00144601 0.0808597)
(2.71311e-19 0.00142497 0.0778737)
(-5.67287e-18 0.00140293 0.0750044)
(1.44942e-15 0.00138077 0.0722472)
(-1.45835e-15 0.00135823 0.0695974)
(-6.82881e-18 0.00133583 0.0670503)
(-6.15891e-18 0.00131302 0.064602)
(1.36796e-15 0.00129055 0.0622482)
(5.89095e-18 0.001268 0.0599845)
(-5.44077e-19 0.00124513 0.0578076)
(-4.4553e-22 0.00122281 0.0557135)
(-4.52373e-19 0.00120007 0.0536987)
(-1.23252e-18 0.00117745 0.0517605)
(1.90286e-19 0.00115538 0.0498952)
(3.57579e-21 0.00113321 0.0480999)
(-1.52055e-18 0.00111115 0.046372)
(4.71552e-16 0.00108955 0.0447083)
(5.1009e-16 0.00106771 0.0431067)
(1.20232e-18 0.00104595 0.0415652)
(1.17493e-18 0.00102484 0.0400809)
(-4.84765e-16 0.00100364 0.0386518)
(3.42765e-16 0.000982581 0.0372759)
(-8.95883e-16 0.000961894 0.0359509)
(-4.33618e-18 0.00094068 0.0346754)
(8.71896e-16 0.000919175 0.0334486)
(-8.53695e-16 0.000898021 0.0322686)
(-3.99163e-18 0.000877052 0.0311339)
(9.59755e-16 0.000856831 0.0300425)
(2.5172e-18 0.000837815 0.0289916)
(-2.97173e-16 0.000819389 0.0279789)
(-5.79706e-19 0.000801159 0.0270029)
(-7.31908e-19 0.000782761 0.0260622)
(4.06378e-16 0.000763808 0.0251564)
(8.78405e-16 0.000744646 0.0242854)
(2.12543e-18 0.000725985 0.0234483)
(-3.90963e-16 0.000708278 0.0226431)
(-2.17005e-19 0.000691461 0.021868)
(-2.67541e-16 0.000675187 0.0211211)
(2.61439e-16 0.000659031 0.0204012)
(3.71251e-16 0.000642497 0.0197077)
(5.12783e-19 0.00062526 0.0190407)
(3.81392e-19 0.000607546 0.0184001)
(-3.57535e-16 0.000589863 0.0177858)
(3.48422e-16 0.000572732 0.0171969)
(-1.49182e-20 0.000556503 0.0166319)
(3.4166e-16 0.000541063 0.0160893)
(2.52931e-19 0.000525999 0.0155679)
(1.0804e-16 0.000510926 0.0150668)
(1.15027e-19 0.000495671 0.0145859)
(1.0035e-22 0.00048036 0.0141249)
(-1.24778e-19 0.000465262 0.0136834)
(1.03042e-16 0.000450526 0.0132608)
(-9.97375e-17 0.000436169 0.0128562)
(-1.23228e-16 0.000422144 0.0124688)
(-1.09034e-19 0.000408308 0.0120979)
(3.16786e-20 0.00039454 0.0117431)
(-7.37797e-17 0.000380816 0.011404)
(-1.38575e-19 0.000367122 0.0110803)
(1.03442e-16 0.000353458 0.0107716)
(-1.89904e-16 0.000339838 0.0104773)
(-1.5721e-16 0.000326573 0.0101967)
(1.54391e-16 0.0003134 0.00992951)
(1.32328e-19 0.000300333 0.00967569)
(-2.88177e-17 0.000287388 0.00943496)
(-1.97551e-20 0.000274573 0.00920696)
(6.60581e-21 0.000261907 0.00899136)
(6.96629e-23 0.000249396 0.0087878)
(-1.31117e-20 0.000237013 0.00859593)
(2.10011e-20 0.000224702 0.00841546)
(-5.26289e-17 0.0002124 0.00824615)
(-4.24017e-20 0.000200072 0.00808783)
(-2.72182e-20 0.000187709 0.00794032)
(5.05127e-17 0.000175291 0.00780348)
(2.85703e-20 0.000162797 0.00767718)
(3.20262e-20 0.000150225 0.00756129)
(-6.26467e-17 0.000137598 0.0074557)
(4.29241e-17 0.000124954 0.00736029)
(-2.43297e-17 0.000112323 0.0072749)
(-2.38741e-17 9.97117e-05 0.00719933)
(-1.25486e-20 8.70788e-05 0.00713339)
(-5.56731e-21 7.43482e-05 0.0070769)
(1.16069e-17 6.1399e-05 0.00702971)
(6.36176e-22 4.81597e-05 0.00699181)
(1.16847e-17 3.46317e-05 0.00696335)
(5.20829e-21 2.08763e-05 0.00694443)
(4.60012e-22 6.96823e-06 0.00693515)
(1.74487e-19 0.00212083 0.138232)
(-1.29705e-17 0.00211572 0.132984)
(-1.57963e-17 0.00210824 0.127915)
(2.40938e-15 0.00209695 0.123049)
(3.88343e-17 0.00208342 0.118379)
(-2.24518e-15 0.00206692 0.113898)
(2.14511e-15 0.00204863 0.109599)
(1.53597e-17 0.00202831 0.105473)
(7.61882e-20 0.00200684 0.101513)
(-2.20937e-18 0.00198423 0.0977128)
(-1.1294e-17 0.00196087 0.0940637)
(1.71946e-15 0.00193673 0.090559)
(8.40801e-19 0.00191162 0.0871927)
(1.62858e-15 0.00188619 0.0839583)
(8.65962e-18 0.00185918 0.0808507)
(1.32802e-16 0.00183206 0.0778647)
(7.30799e-19 0.00180364 0.0749953)
(8.92568e-19 0.00177508 0.072238)
(-1.75792e-18 0.00174607 0.0695882)
(7.38387e-19 0.00171732 0.0670412)
(1.31346e-18 0.00168814 0.0645928)
(-1.1507e-16 0.0016593 0.062239)
(6.45307e-20 0.00163038 0.0599753)
(2.31375e-19 0.00160098 0.0577984)
(-4.73794e-19 0.00157215 0.0557043)
(2.09651e-18 0.00154292 0.0536895)
(-5.64596e-16 0.00151381 0.0517513)
(5.05689e-16 0.00148537 0.0498861)
(1.75342e-18 0.00145688 0.0480908)
(-1.37385e-19 0.00142847 0.046363)
(3.75725e-19 0.00140063 0.0446993)
(2.71347e-19 0.00137262 0.0430977)
(-1.31526e-18 0.00134466 0.0415563)
(4.56968e-16 0.00131747 0.0400721)
(-4.85672e-16 0.00129031 0.0386429)
(-9.70406e-19 0.00126326 0.0372671)
(-5.91647e-19 0.00123663 0.0359421)
(-1.57419e-21 0.00120947 0.0346665)
(5.39808e-19 0.00118182 0.0334397)
(-5.13504e-19 0.00115455 0.0322598)
(-5.92988e-20 0.00112765 0.0311252)
(1.38118e-18 0.00110163 0.030034)
(-4.30617e-16 0.00107709 0.0289834)
(-1.09769e-18 0.00105334 0.0279708)
(-1.40636e-21 0.00102977 0.0269947)
(-1.20406e-22 0.00100602 0.0260539)
(1.99629e-19 0.00098167 0.0251481)
(4.17155e-19 0.000957139 0.0242772)
(6.29004e-19 0.000933277 0.0234402)
(-3.89637e-16 0.000910576 0.0226353)
(-4.49115e-20 0.000888966 0.0218604)
(-3.80623e-16 0.000868016 0.0211136)
(-4.54689e-19 0.000847192 0.0203936)
(1.48837e-19 0.000825902 0.0197)
(-4.69874e-19 0.000803691 0.0190328)
(3.59193e-16 0.000780872 0.0183922)
(3.32934e-19 0.000758187 0.017778)
(5.04814e-19 0.000736247 0.0171892)
(-3.21179e-16 0.000715413 0.0166245)
(-1.11727e-19 0.000695542 0.0160822)
(-1.36076e-16 0.000676106 0.0155608)
(1.32593e-16 0.000656655 0.0150597)
(1.40983e-19 0.000637053 0.0145787)
(-9.98835e-23 0.00061744 0.0141178)
(4.91896e-19 0.000598108 0.0136764)
(-5.39206e-16 0.00057923 0.0132539)
(-4.41486e-19 0.000560803 0.0128494)
(-1.22969e-16 0.000542763 0.0124621)
(6.6147e-20 0.000524976 0.0120912)
(-2.12522e-16 0.00050729 0.0117364)
(-2.03881e-19 0.000489656 0.0113974)
(-1.16243e-20 0.000472069 0.0110737)
(1.61506e-17 0.000454522 0.010765)
(-1.02517e-16 0.000437043 0.0104708)
(-1.02519e-16 0.000419909 0.0101903)
(-1.44279e-16 0.000402921 0.00992311)
(2.78103e-17 0.000386066 0.00966934)
(-2.80456e-17 0.000369372 0.00942865)
(-5.2472e-20 0.000352852 0.00920071)
(5.34972e-17 0.000336528 0.00898518)
(9.78504e-20 0.000320413 0.00878167)
(-1.06597e-16 0.000304471 0.00858985)
(-8.4251e-21 0.000288622 0.0084094)
(-9.23523e-17 0.000272796 0.00824009)
(-9.09435e-17 0.000256966 0.00808175)
(-6.95254e-20 0.0002411 0.00793422)
(7.80285e-21 0.000225158 0.00779736)
(-6.56538e-24 0.00020912 0.00767102)
(-3.217e-20 0.000192997 0.0075551)
(6.27962e-17 0.000176816 0.0074495)
(4.51844e-20 0.000160618 0.00735409)
(1.75333e-20 0.000144443 0.0072687)
(-4.22781e-17 0.000128285 0.00719313)
(-2.21468e-20 0.000112078 0.00712717)
(-2.78222e-21 9.57237e-05 0.00707061)
(1.19928e-17 7.90928e-05 0.00702329)
(1.80649e-17 6.20941e-05 0.00698524)
(1.32351e-20 4.4734e-05 0.00695666)
(-5.90558e-18 2.7069e-05 0.00693765)
(3.65724e-18 9.13919e-06 0.0069283)
(-2.57265e-17 0.00259224 0.138186)
(2.66385e-15 0.0025858 0.132975)
(2.9814e-17 0.00257669 0.127906)
(-9.32272e-18 0.00256288 0.12304)
(1.36951e-20 0.00254632 0.11837)
(-2.48021e-17 0.00252614 0.113888)
(2.11075e-15 0.00250376 0.109588)
(2.07876e-15 0.00247892 0.105462)
(2.65922e-17 0.00245264 0.101503)
(-1.97549e-15 0.00242504 0.0977022)
(-2.28708e-17 0.00239647 0.094053)
(1.75184e-15 0.00236704 0.0905482)
(1.09113e-17 0.0023364 0.0871819)
(2.50039e-18 0.00230533 0.0839473)
(1.91685e-20 0.00227236 0.0808396)
(-8.08791e-19 0.0022391 0.0778534)
(7.80593e-18 0.00220425 0.0749839)
(-1.49762e-15 0.00216927 0.0722266)
(-1.43885e-17 0.00213378 0.0695768)
(1.42614e-15 0.0020987 0.0670297)
(1.59453e-15 0.00206326 0.0645814)
(1.19244e-18 0.00202807 0.0622276)
(1.33437e-15 0.00199278 0.0599638)
(5.6628e-16 0.00195686 0.057787)
(-1.2378e-15 0.00192146 0.0556928)
(-4.77927e-18 0.00188573 0.053678)
(-7.08586e-19 0.00185014 0.0517399)
(3.26975e-19 0.00181527 0.0498747)
(1.76731e-18 0.00178045 0.0480794)
(-4.90808e-16 0.00174572 0.0463517)
(-1.11826e-19 0.0017116 0.0446881)
(-4.73435e-16 0.00167743 0.0430865)
(-1.41627e-18 0.0016433 0.0415451)
(-9.83845e-19 0.00160998 0.040061)
(4.80723e-16 0.00157689 0.0386319)
(4.78618e-16 0.00154388 0.0372561)
(1.23942e-18 0.00151128 0.0359311)
(1.56173e-21 0.00147821 0.0346554)
(-6.36645e-22 0.00144445 0.0334286)
(6.97257e-19 0.00141104 0.0322487)
(-3.12688e-16 0.00137822 0.0311143)
(-3.08873e-16 0.00134641 0.0300234)
(-9.34932e-20 0.00131629 0.028973)
(-4.2322e-16 0.00128715 0.0279606)
(-8.25282e-19 0.00125819 0.0269845)
(-7.82539e-22 0.00122905 0.0260436)
(-3.50469e-22 0.00119934 0.0251377)
(4.36601e-20 0.00116951 0.0242668)
(4.25854e-20 0.00114051 0.0234301)
(-1.18101e-19 0.00111283 0.0226256)
(7.71874e-20 0.0010864 0.0218509)
(-1.07399e-19 0.00106074 0.0211042)
(6.12767e-22 0.00103521 0.0203842)
(3.16163e-23 0.00100913 0.0196903)
(4.35672e-23 0.000981931 0.0190229)
(1.46674e-19 0.000954002 0.0183822)
(-5.97141e-22 0.000926363 0.0177682)
(4.41641e-19 0.000899678 0.0171797)
(-3.4719e-16 0.000874243 0.0166153)
(-4.06761e-19 0.000849902 0.0160732)
(-1.89244e-19 0.000826058 0.0155519)
(1.32707e-16 0.000802215 0.0150508)
(1.40506e-19 0.000778294 0.0145698)
(1.33182e-19 0.000754444 0.0141089)
(-1.04863e-16 0.000730919 0.0136676)
(-2.96064e-16 0.000707917 0.0132453)
(-1.24985e-16 0.000685433 0.0128409)
(-1.23806e-16 0.000663386 0.0124537)
(7.40323e-22 0.000641652 0.0120829)
(-1.08002e-16 0.000620059 0.0117281)
(-7.45009e-17 0.000598519 0.0113891)
(-6.06326e-20 0.000577037 0.0110654)
(-2.17828e-21 0.000555611 0.0107567)
(-9.83534e-20 0.000534273 0.0104626)
(1.18108e-16 0.000513241 0.0101822)
(6.02018e-20 0.000492407 0.00991509)
(-5.65344e-20 0.000471734 0.00966137)
(1.40339e-16 0.000451263 0.00942076)
(9.49256e-20 0.00043102 0.00919289)
(1.08422e-20 0.00041102 0.00897744)
(-2.58861e-20 0.000391275 0.00877401)
(5.29886e-17 0.000371757 0.00858225)
(4.32735e-17 0.00035237 0.00840182)
(1.44427e-16 0.000333043 0.00823252)
(-4.14406e-17 0.000313731 0.00807417)
(-1.41735e-16 0.000294379 0.00792662)
(-8.12693e-20 0.000274934 0.00778972)
(-5.97936e-23 0.000255376 0.00766334)
(7.38443e-21 0.000235726 0.0075474)
(-1.28959e-20 0.000216021 0.00744178)
(4.38548e-17 0.000196303 0.00734637)
(3.30193e-20 0.000176605 0.00726099)
(-1.95772e-17 0.000156922 0.00718541)
(-2.17409e-20 0.00013715 0.00711939)
(2.38371e-17 0.000117166 0.00706273)
(1.17021e-17 9.68352e-05 0.00701527)
(9.42459e-21 7.60889e-05 0.00697706)
(-6.73695e-22 5.49035e-05 0.00694832)
(5.85588e-18 3.33157e-05 0.00692917)
(2.84583e-18 1.13374e-05 0.00691965)
(7.22241e-18 0.00306253 0.138172)
(-1.63975e-17 0.00305584 0.132965)
(2.49473e-15 0.00304509 0.127895)
(1.22487e-17 0.00302878 0.123029)
(1.72481e-17 0.00300918 0.118358)
(-2.08936e-15 0.0029853 0.113877)
(-1.20395e-17 0.00295881 0.109576)
(1.61713e-17 0.00292947 0.10545)
(-1.99598e-15 0.00289835 0.10149)
(-1.87955e-15 0.00286578 0.0976895)
(1.90537e-15 0.00283199 0.0940402)
(1.53491e-17 0.00279729 0.0905353)
(5.43317e-20 0.00276116 0.0871688)
(-2.3554e-20 0.00272444 0.0839341)
(8.70283e-18 0.00268551 0.0808262)
(-1.54714e-15 0.00264607 0.0778399)
(-1.69025e-17 0.00260473 0.0749702)
(1.64742e-15 0.00256333 0.0722129)
(1.49312e-18 0.00252137 0.0695631)
(1.39284e-15 0.00247998 0.067016)
(-1.39274e-15 0.00243837 0.0645677)
(-8.69633e-18 0.00239684 0.0622139)
(5.69761e-16 0.00235518 0.05995)
(3.35116e-18 0.00231274 0.0577732)
(-1.356e-18 0.00227071 0.0556791)
(2.07897e-18 0.00222847 0.0536642)
(-5.58284e-16 0.00218642 0.0517262)
(-5.56125e-16 0.00214507 0.0498611)
(5.40551e-16 0.00210392 0.0480658)
(-5.26851e-16 0.00206289 0.0463381)
(-1.69464e-18 0.00202245 0.0446746)
(-4.21417e-19 0.00198212 0.043073)
(-7.32263e-22 0.00194186 0.0415317)
(1.19439e-21 0.00190238 0.0400477)
(-7.85057e-19 0.00186334 0.0386186)
(4.38749e-16 0.00182444 0.0372429)
(1.13773e-18 0.00178582 0.0359179)
(1.43427e-21 0.00174685 0.0346421)
(-8.13308e-22 0.00170704 0.0334152)
(6.99014e-19 0.00166746 0.0322355)
(-3.14115e-16 0.00162874 0.0311012)
(-3.18898e-19 0.00159115 0.0300107)
(-3.05844e-16 0.00155539 0.0289606)
(-8.78678e-19 0.00152079 0.0279483)
(-7.28051e-22 0.00148639 0.0269723)
(6.2497e-22 0.00145185 0.0260313)
(-6.91236e-19 0.00141683 0.0251253)
(3.98893e-16 0.00138178 0.0242545)
(3.95942e-16 0.0013477 0.0234181)
(6.63952e-16 0.00131504 0.0226139)
(7.41492e-16 0.00128374 0.0218395)
(6.45621e-16 0.00125332 0.0210929)
(9.5498e-19 0.00122304 0.0203728)
(6.88231e-22 0.00119213 0.0196787)
(-1.319e-25 0.0011599 0.019011)
(6.173e-22 0.00112689 0.0183703)
(-4.22081e-19 0.00109436 0.0177564)
(3.25092e-16 0.00106299 0.0171683)
(-3.46241e-16 0.00103296 0.0166043)
(-3.80374e-19 0.00100411 0.0160624)
(1.07199e-22 0.000975837 0.0155411)
(4.86295e-20 0.000947623 0.01504)
(-3.24966e-19 0.000919417 0.0145591)
(3.25687e-16 0.000891372 0.0140982)
(1.93786e-19 0.000863692 0.0136571)
(1.02777e-16 0.000836577 0.0132349)
(-9.96816e-17 0.000810044 0.0128307)
(-1.00566e-16 0.000784 0.0124436)
(2.13412e-16 0.00075832 0.0120729)
(5.33931e-20 0.000732829 0.0117182)
(1.23583e-16 0.000707393 0.0113792)
(1.46652e-19 0.000682012 0.0110555)
(-6.16926e-17 0.000656705 0.0107468)
(1.03834e-16 0.000631502 0.0104528)
(-2.83879e-17 0.000606541 0.0101725)
(7.28053e-17 0.000581832 0.00990543)
(2.84272e-16 0.000557326 0.00965179)
(-2.92503e-17 0.000533059 0.00941126)
(-2.00098e-20 0.000509068 0.00918349)
(-3.27138e-20 0.000485373 0.00896813)
(5.38916e-17 0.000461988 0.0087648)
(-1.33759e-20 0.000438885 0.00857311)
(8.33617e-17 0.000415971 0.00839273)
(9.45139e-17 0.000393173 0.00822345)
(5.80422e-20 0.000370398 0.0080651)
(-2.4186e-20 0.000347573 0.00791752)
(7.55113e-23 0.000324647 0.00778057)
(-3.29371e-20 0.000301594 0.00765415)
(6.35667e-17 0.000278437 0.00753817)
(2.34121e-20 0.000255236 0.00743254)
(1.99312e-17 0.000232036 0.00733713)
(2.62093e-20 0.000208845 0.00725176)
(-4.22588e-17 0.000185631 0.00717615)
(-1.74899e-20 0.00016228 0.00711006)
(-3.22132e-21 0.00013866 0.00705328)
(2.12844e-17 0.000114618 0.00700564)
(1.15184e-17 9.00827e-05 0.00696724)
(1.61203e-17 6.50452e-05 0.00693831)
(8.31407e-21 3.95212e-05 0.00691897)
(2.57107e-18 1.35013e-05 0.0069092)
(2.72096e-15 0.00353332 0.138162)
(2.59353e-17 0.00352585 0.132953)
(-2.29062e-17 0.00351346 0.127882)
(2.39843e-15 0.00349463 0.123015)
(2.044e-17 0.00347198 0.118345)
(-4.56487e-18 0.00344441 0.113863)
(1.85779e-17 0.0034138 0.109562)
(-2.06296e-15 0.00337994 0.105436)
(-1.88835e-17 0.00334398 0.101476)
(-1.84213e-18 0.00330644 0.0976747)
(3.50746e-18 0.00326743 0.0940252)
(2.18354e-20 0.00322747 0.0905202)
(5.4671e-24 0.00318586 0.0871536)
(2.59232e-20 0.00314348 0.0839186)
(-8.69795e-18 0.0030986 0.0808105)
(1.54568e-15 0.00305295 0.0778241)
(8.29892e-18 0.00300509 0.0749543)
(1.83203e-18 0.00295728 0.0721969)
(-5.03062e-19 0.00290886 0.0695471)
(1.83912e-18 0.00286118 0.0670001)
(-1.82797e-18 0.00281346 0.0645517)
(-5.5471e-18 0.0027656 0.0621979)
(1.2781e-15 0.00271753 0.059934)
(1.31632e-15 0.0026686 0.057757)
(5.34654e-18 0.00261989 0.055663)
(2.2038e-18 0.00257112 0.0536481)
(-5.65181e-16 0.00252263 0.0517102)
(5.05606e-16 0.00247477 0.0498452)
(2.30377e-18 0.00242727 0.0480499)
(-5.21431e-19 0.00237998 0.0463223)
(-1.16417e-19 0.0023332 0.0446589)
(-1.44694e-21 0.0022867 0.0430573)
(-3.50289e-20 0.00224034 0.0415161)
(-3.46546e-20 0.00219465 0.0400322)
(-1.26736e-18 0.00214964 0.0386032)
(4.7413e-16 0.00210487 0.0372275)
(1.22722e-18 0.00206023 0.0359025)
(1.54393e-21 0.00201534 0.0346265)
(-8.02242e-22 0.00196952 0.0333996)
(6.89365e-19 0.00192378 0.03222)
(-3.09077e-16 0.00187917 0.031086)
(-8.29233e-16 0.00183584 0.0299958)
(-4.3331e-16 0.00179441 0.0289461)
(-8.72857e-19 0.00175428 0.027934)
(-8.59998e-22 0.00171439 0.0269579)
(-1.67274e-24 0.00167446 0.0260169)
(1.26095e-21 0.00163418 0.0251108)
(-1.2181e-18 0.00159396 0.0242402)
(8.67988e-16 0.00155483 0.0234041)
(3.91356e-16 0.00151718 0.0226002)
(4.88701e-19 0.00148095 0.0218261)
(3.51154e-16 0.0014457 0.0210797)
(5.18773e-19 0.0014106 0.0203596)
(3.73282e-22 0.00137481 0.0196652)
(-2.96207e-22 0.00133753 0.0189972)
(4.50558e-19 0.0012995 0.0183564)
(-3.5707e-16 0.00126216 0.0177428)
(3.22702e-16 0.00122614 0.0171551)
(-1.62137e-19 0.00119154 0.0165914)
(3.42208e-16 0.00115815 0.0160498)
(3.80506e-19 0.00112544 0.0155286)
(9.0735e-23 0.00109289 0.0150276)
(1.51423e-22 0.00106043 0.0145466)
(1.19143e-19 0.00102822 0.0140859)
(-1.89529e-20 0.000996419 0.0136449)
(3.19901e-19 0.000965203 0.0132229)
(-3.14507e-16 0.000934626 0.0128189)
(-1.00437e-16 0.000904591 0.0124319)
(-2.19701e-20 0.000874962 0.0120613)
(-8.57854e-20 0.000845564 0.0117066)
(1.0702e-16 0.000816243 0.0113676)
(8.6816e-20 0.000786967 0.011044)
(-1.68217e-20 0.000757765 0.0107353)
(4.02425e-20 0.000728683 0.0104414)
(-2.77499e-17 0.000699784 0.0101611)
(2.82649e-20 0.000671179 0.00989415)
(-2.77975e-17 0.000642827 0.00964059)
(1.40682e-16 0.000614757 0.00940015)
(1.0702e-19 0.000587004 0.0091725)
(2.69221e-20 0.0005596 0.00895726)
(-4.39278e-17 0.00053257 0.00875405)
(-9.42065e-17 0.00050589 0.00856246)
(5.30795e-17 0.000479469 0.00838214)
(-2.93868e-21 0.000453215 0.00821289)
(9.08173e-17 0.000426999 0.00805453)
(4.35676e-20 0.000400715 0.00790692)
(-5.41029e-23 0.000374315 0.00776992)
(3.43761e-23 0.00034779 0.00764346)
(1.65091e-20 0.000321166 0.00752745)
(-1.26641e-17 0.000294501 0.00742181)
(1.73031e-20 0.000267841 0.0073264)
(-4.31752e-17 0.000241175 0.00724101)
(-2.42273e-17 0.00021446 0.00716537)
(3.75027e-17 0.000187511 0.00709918)
(3.29673e-17 0.000160164 0.00704224)
(1.20292e-17 0.000132338 0.0069944)
(1.82517e-17 0.000103979 0.00695579)
(8.11542e-21 7.50667e-05 0.00692663)
(5.91154e-18 4.56042e-05 0.00690707)
(3.65834e-18 1.55791e-05 0.00689697)
(2.74115e-15 0.00400407 0.138155)
(2.85287e-18 0.00399582 0.132939)
(2.48305e-15 0.00398177 0.127868)
(6.07688e-18 0.00396043 0.123001)
(8.76204e-17 0.00393472 0.118329)
(-1.6111e-17 0.00390344 0.113847)
(2.11954e-15 0.0038687 0.109546)
(1.16891e-17 0.00383034 0.105419)
(-1.30485e-17 0.00378952 0.101459)