# vtk DataFile Version 2.0
track0
ASCII
DATASET POLYDATA
POINTS 10844 float
-0.0205 0.001 1e-05
-0.0202034 0.00100023 1e-05
-0.0199069 0.00100077 1e-05
-0.0196103 0.0010015 1e-05
-0.0193137 0.00100243 1e-05
-0.0190172 0.00100355 1e-05
-0.0187132 0.00100513 1e-05
-0.0184093 0.00100627 1e-05
-0.0181054 0.00100736 1e-05
-0.0178015 0.0010084 1e-05
-0.0174976 0.00100941 1e-05
-0.0172058 0.00101071 1e-05
-0.016914 0.00101143 1e-05
-0.0166222 0.00101212 1e-05
-0.0163305 0.00101278 1e-05
-0.0160387 0.00101341 1e-05
-0.0157586 0.00101437 1e-05
-0.0154784 0.00101494 1e-05
-0.0151983 0.00101555 1e-05
-0.0149182 0.0010162 1e-05
-0.0146381 0.00101689 1e-05
-0.0143692 0.00101788 1e-05
-0.0141002 0.00101864 1e-05
-0.0138313 0.00101945 1e-05
-0.0135624 0.00102032 1e-05
-0.0132934 0.00102125 1e-05
-0.0130353 0.00102237 1e-05
-0.0127771 0.00102336 1e-05
-0.0125189 0.00102439 1e-05
-0.0122607 0.00102547 1e-05
-0.0120025 0.00102658 1e-05
-0.0117547 0.00102779 1e-05
-0.0115068 0.00102894 1e-05
-0.0112589 0.00103011 1e-05
-0.0110111 0.0010313 1e-05
-0.0107632 0.00103253 1e-05
-0.0105252 0.00103377 1e-05
-0.0102873 0.00103499 1e-05
-0.0100493 0.00103623 1e-05
-0.00981133 0.00103748 1e-05
-0.00957337 0.00103875 1e-05
-0.00951795 0.00103905 1e-05
-0.00946254 0.00103935 1e-05
-0.00940713 0.00103965 1e-05
-0.00935171 0.00103995 1e-05
-0.00929641 0.00104025 1e-05
-0.00912335 0.0010412 1e-05
-0.00895028 0.00104215 1e-05
-0.00877721 0.0010431 1e-05
-0.00860415 0.00104406 1e-05
-0.00843108 0.00104503 1e-05
-0.00821175 0.00104625 1e-05
-0.00799242 0.00104748 1e-05
-0.00777309 0.00104872 1e-05
-0.00755376 0.00104996 1e-05
-0.00733443 0.0010512 1e-05
-0.00712387 0.00105239 1e-05
-0.0069133 0.00105358 1e-05
-0.00670273 0.00105478 1e-05
-0.00649217 0.00105598 1e-05
-0.0062816 0.00105717 1e-05
-0.00607944 0.00105831 1e-05
-0.00587729 0.00105946 1e-05
-0.00567514 0.0010606 1e-05
-0.00547298 0.00106174 1e-05
-0.00527083 0.00106288 1e-05
-0.00507675 0.00106395 1e-05
-0.00488267 0.00106504 1e-05
-0.0046886 0.00106612 1e-05
-0.00449452 0.00106719 1e-05
-0.00430044 0.00106827 1e-05
-0.00411412 0.00106928 1e-05
-0.0039278 0.0010703 1e-05
-0.00374147 0.00107131 1e-05
-0.00355515 0.00107231 1e-05
-0.00336883 0.00107331 1e-05
-0.00318995 0.00107426 1e-05
-0.00301107 0.0010752 1e-05
-0.00283219 0.00107614 1e-05
-0.00265331 0.00107707 1e-05
-0.00247443 0.001078 1e-05
-0.0023027 0.00107886 1e-05
-0.00213097 0.00107973 1e-05
-0.00195924 0.00108059 1e-05
-0.0017875 0.00108144 1e-05
-0.00161577 0.00108228 1e-05
-0.0014509 0.00108306 1e-05
-0.00128603 0.00108384 1e-05
-0.00112116 0.00108461 1e-05
-0.000956289 0.00108536 1e-05
-0.000791418 0.00108609 1e-05
-0.000633135 0.00108678 1e-05
-0.000474851 0.00108744 1e-05
-0.000316567 0.00108809 1e-05
-0.000158283 0.00108871 1e-05
0 0.00108931 1e-05
0.000105677 0.00108969 1e-05
0.000211355 0.00109006 1e-05
0.000317032 0.00109042 1e-05
0.00042271 0.00109077 1e-05
0.000528387 0.0010911 1e-05
0.000634886 0.00109142 1e-05
0.000741385 0.00109173 1e-05
0.000847885 0.00109203 1e-05
0.000954384 0.00109233 1e-05
0.00106088 0.00109261 1e-05
0.00116821 0.00109288 1e-05
0.00127554 0.00109315 1e-05
0.00138286 0.00109342 1e-05
0.00149019 0.00109367 1e-05
0.00159752 0.00109391 1e-05
0.00170568 0.00109414 1e-05
0.00181384 0.00109437 1e-05
0.001922 0.0010946 1e-05
0.00203016 0.00109481 1e-05
0.00213833 0.00109501 1e-05
0.00224733 0.0010952 1e-05
0.00235633 0.0010954 1e-05
0.00246533 0.00109558 1e-05
0.00257434 0.00109576 1e-05
0.00268334 0.00109593 1e-05
0.00279319 0.00109609 1e-05
0.00290304 0.00109626 1e-05
0.00301289 0.00109641 1e-05
0.00312274 0.00109657 1e-05
0.00323259 0.00109672 1e-05
0.00334329 0.00109685 1e-05
0.003454 0.00109699 1e-05
0.0035647 0.00109713 1e-05
0.0036754 0.00109726 1e-05
0.00378611 0.00109739 1e-05
0.00389767 0.00109751 1e-05
0.00400924 0.00109763 1e-05
0.0041208 0.00109775 1e-05
0.00423237 0.00109787 1e-05
0.00434393 0.00109798 1e-05
0.00445636 0.00109808 1e-05
0.00456879 0.00109818 1e-05
0.00468123 0.00109828 1e-05
0.00479366 0.00109838 1e-05
0.00490609 0.00109847 1e-05
0.0050194 0.00109856 1e-05
0.0051327 0.00109864 1e-05
0.00524601 0.00109872 1e-05
0.00535932 0.0010988 1e-05
0.00547262 0.00109888 1e-05
0.00558681 0.00109894 1e-05
0.005701 0.00109901 1e-05
0.00581518 0.00109907 1e-05
0.00592937 0.00109913 1e-05
0.00604356 0.00109919 1e-05
0.00615863 0.00109924 1e-05
0.00627371 0.00109929 1e-05
0.00638878 0.00109933 1e-05
0.00650386 0.00109937 1e-05
0.00661893 0.00109941 1e-05
0.0067349 0.00109944 1e-05
0.00685087 0.00109946 1e-05
0.00696684 0.00109949 1e-05
0.00708281 0.00109951 1e-05
0.00719878 0.00109952 1e-05
0.00723628 0.00109952 1e-05
0.00727377 0.00109953 1e-05
0.00731127 0.00109953 1e-05
0.00734877 0.00109953 1e-05
0.00738572 0.00109953 1e-05
0.0074652 0.00109954 1e-05
0.00754469 0.00109954 1e-05
0.00762417 0.00109953 1e-05
0.00770365 0.00109953 1e-05
0.00778313 0.00109952 1e-05
0.00790091 0.00109951 1e-05
0.00801869 0.00109949 1e-05
0.00813647 0.00109947 1e-05
0.00825425 0.00109944 1e-05
0.00837203 0.00109941 1e-05
0.00849073 0.00109937 1e-05
0.00860942 0.00109933 1e-05
0.00872812 0.00109928 1e-05
0.00884682 0.00109923 1e-05
0.00896551 0.00109917 1e-05
0.00908513 0.0010991 1e-05
0.00920475 0.00109903 1e-05
0.00932437 0.00109896 1e-05
0.00944398 0.00109888 1e-05
0.0095636 0.0010988 1e-05
0.00968415 0.00109869 1e-05
0.0098047 0.0010986 1e-05
0.00992525 0.0010985 1e-05
0.0100458 0.00109839 1e-05
0.0101663 0.00109828 1e-05
0.0102878 0.00109814 1e-05
0.0104093 0.00109801 1e-05
0.0105308 0.00109788 1e-05
0.0106523 0.00109774 1e-05
0.0107738 0.0010976 1e-05
0.0108962 0.00109743 1e-05
0.0110186 0.00109727 1e-05
0.0111411 0.00109711 1e-05
0.0112635 0.00109694 1e-05
0.0113859 0.00109676 1e-05
0.0115093 0.00109656 1e-05
0.0116327 0.00109637 1e-05
0.0117561 0.00109617 1e-05
0.0118795 0.00109596 1e-05
0.0120028 0.00109575 1e-05
0.0121272 0.00109551 1e-05
0.0122515 0.00109529 1e-05
0.0123759 0.00109505 1e-05
0.0125002 0.00109481 1e-05
0.0126245 0.00109456 1e-05
0.0127498 0.00109428 1e-05
0.0128752 0.00109402 1e-05
0.0130005 0.00109375 1e-05
0.0131258 0.00109347 1e-05
0.0132511 0.00109318 1e-05
0.0133774 0.00109286 1e-05
0.0135036 0.00109256 1e-05
0.0136299 0.00109225 1e-05
0.0137562 0.00109193 1e-05
0.0138825 0.0010916 1e-05
0.0140098 0.00109124 1e-05
0.014137 0.0010909 1e-05
0.0142643 0.00109054 1e-05
0.0143915 0.00109018 1e-05
0.0145188 0.00108981 1e-05
0.0146471 0.00108941 1e-05
0.0147753 0.00108902 1e-05
0.0149036 0.00108862 1e-05
0.0150318 0.00108822 1e-05
0.0151601 0.0010878 1e-05
0.0152893 0.00108736 1e-05
0.0154186 0.00108692 1e-05
0.0155478 0.00108648 1e-05
0.0156771 0.00108603 1e-05
0.0158063 0.00108557 1e-05
0.0159366 0.00108508 1e-05
0.0160668 0.00108459 1e-05
0.0161971 0.0010841 1e-05
0.0163274 0.0010836 1e-05
0.0164576 0.00108309 1e-05
0.0165889 0.00108256 1e-05
0.0167201 0.00108202 1e-05
0.0168514 0.00108148 1e-05
0.0169827 0.00108093 1e-05
0.0171139 0.00108037 1e-05
0.0172462 0.00107978 1e-05
0.0173785 0.0010792 1e-05
0.0175108 0.00107861 1e-05
0.0176431 0.001078 1e-05
0.0177754 0.00107739 1e-05
0.0179087 0.00107676 1e-05
0.018042 0.00107612 1e-05
0.0181753 0.00107547 1e-05
0.0183087 0.00107481 1e-05
0.018442 0.00107415 1e-05
0.0185763 0.00107347 1e-05
0.0187107 0.00107277 1e-05
0.018845 0.00107207 1e-05
0.0189794 0.00107136 1e-05
0.0191137 0.00107063 1e-05
0.0192491 0.0010699 1e-05
0.0193845 0.00106915 1e-05
0.0195199 0.00106839 1e-05
0.0196553 0.00106762 1e-05
0.0197907 0.00106684 1e-05
0.0199272 0.00106606 1e-05
0.0200636 0.00106525 1e-05
0.0202001 0.00106443 1e-05
0.0203365 0.0010636 1e-05
0.020473 0.00106277 1e-05
0.0206105 0.00106193 1e-05
0.020748 0.00106107 1e-05
0.0208855 0.00106019 1e-05
0.021023 0.0010593 1e-05
0.0211606 0.00105841 1e-05
0.0212991 0.00105752 1e-05
0.0214377 0.0010566 1e-05
0.0215763 0.00105566 1e-05
0.0217149 0.0010547 1e-05
0.0218535 0.00105376 1e-05
0.0219931 0.00105281 1e-05
0.0221328 0.00105183 1e-05
0.0222724 0.00105083 1e-05
0.0224121 0.00104981 1e-05
0.0225517 0.00104881 1e-05
0.0226925 0.0010478 1e-05
0.0228332 0.00104677 1e-05
0.022974 0.0010457 1e-05
0.0231147 0.00104463 1e-05
0.0232555 0.00104356 1e-05
0.0233973 0.0010425 1e-05
0.0235391 0.00104141 1e-05
0.023681 0.00104028 1e-05
0.0238228 0.00103914 1e-05
0.0239647 0.00103802 1e-05
0.0241076 0.0010369 1e-05
0.0242505 0.00103575 1e-05
0.0243935 0.00103456 1e-05
0.0245364 0.00103336 1e-05
0.0246794 0.00103218 1e-05
0.0248234 0.00103101 1e-05
0.0249675 0.00102979 1e-05
0.0251115 0.00102854 1e-05
0.0252556 0.00102729 1e-05
0.0253996 0.00102604 1e-05
0.0255448 0.00102481 1e-05
0.02569 0.00102354 1e-05
0.0258351 0.00102223 1e-05
0.0259803 0.00102091 1e-05
0.0261255 0.0010196 1e-05
0.0262718 0.00101831 1e-05
0.0264181 0.00101698 1e-05
0.0265644 0.00101561 1e-05
0.0267107 0.00101422 1e-05
0.026857 0.00101286 1e-05
0.0270044 0.00101151 1e-05
0.0271519 0.00101011 1e-05
0.0272993 0.00100868 1e-05
0.0274468 0.00100724 1e-05
0.0275942 0.00100581 1e-05
0.0277428 0.0010044 1e-05
0.0278914 0.00100294 1e-05
0.0280399 0.00100144 1e-05
0.0281885 0.000999938 1e-05
0.0283371 0.000998452 1e-05
0.0284869 0.000996973 1e-05
0.0286366 0.000995454 1e-05
0.0287863 0.000993896 1e-05
0.0289361 0.000992329 1e-05
0.0290858 0.000990779 1e-05
0.0292367 0.000989237 1e-05
0.0293876 0.000987654 1e-05
0.0295385 0.000986036 1e-05
0.0296894 0.000984409 1e-05
0.0298403 0.000982795 1e-05
0.0299924 0.000981188 1e-05
0.0301445 0.00097954 1e-05
0.0302966 0.000977861 1e-05
0.0304486 0.000976174 1e-05
0.0306007 0.000974495 1e-05
0.030754 0.000972821 1e-05
0.0309072 0.000971107 1e-05
0.0310605 0.000969366 1e-05
0.0312138 0.000967616 1e-05
0.031367 0.00096587 1e-05
0.0315215 0.000964127 1e-05
0.0316759 0.000962345 1e-05
0.0318304 0.00096054 1e-05
0.0319848 0.000958726 1e-05
0.0321393 0.000956911 1e-05
0.0322949 0.000955097 1e-05
0.0324506 0.000953244 1e-05
0.0326062 0.000951373 1e-05
0.0327619 0.000949493 1e-05
0.0329175 0.000947606 1e-05
0.0330744 0.00094572 1e-05
0.0332313 0.000943794 1e-05
0.0333881 0.000941854 1e-05
0.033545 0.000939904 1e-05
[...]
POINT_DATA 10844
 FIELD attributes 2
p 1 10844 float
-6.20074 -6.20543 -6.19698 -6.18845 -6.17983 -6.16442 -6.16662 -6.17723 -6.18784 -6.19845 -6.23344 -6.24296 -6.27649 -6.31003 -6.34357 -6.3915 -6.39571 -6.42278 -6.44986 -6.47695 -6.517 -6.52814 -6.55418 -6.58024 -6.60632 -6.64193 -6.6608 -6.6873 -6.71381 -6.74033 -6.77158 -6.79132 -6.81463 -6.83793 -6.86125 -6.88634 -6.90436 -6.92384 -6.94332 -6.96281 -6.98255 -6.9865 -6.99066 -6.99482 -6.99898 -7.00313 -7.01613 -7.02913 -7.04213 -7.05513 -7.06771 -7.08387 -7.09975 -7.11563 -7.13151 -7.14663 -7.1621 -7.17705 -7.19201 -7.20696 -7.22096 -7.23584 -7.25008 -7.26432 -7.27856 -7.2918 -7.30627 -7.32009 -7.33392 -7.34774 -7.36059 -7.37492 -7.38866 -7.40241 -7.41615 -7.42899 -7.44341 -7.45735 -7.4713 -7.48524 -7.49831 -7.51307 -7.5276 -7.54212 -7.55665 -7.57027 -7.58531 -7.60029 -7.61527 -7.63025 -7.64395 -7.65685 -7.66908 -7.68131 -7.69354 -7.70392 -7.71033 -7.7151 -7.71987 -7.72465 -7.72825 -7.72986 -7.72954 -7.72923 -7.72891 -7.72807 -7.72902 -7.72904 -7.72906 -7.72908 -7.72903 -7.73244 -7.73433 -7.73622 -7.7381 -7.73885 -7.74297 -7.74465 -7.74634 -7.74803 -7.74768 -7.75112 -7.75221 -7.7533 -7.75439 -7.7534 -7.75635 -7.75748 -7.7586 -7.75972 -7.75913 -7.76171 -7.76295 -7.76419 -7.76542 -7.76539 -7.7674 -7.76848 -7.76955 -7.77062 -7.77085 -7.77225 -7.77307 -7.77388 -7.77469 -7.77503 -7.776 -7.77665 -7.7773 -7.77796 -7.77839 -7.77912 -7.77971 -7.78029 -7.78088 -7.78139 -7.782 -7.78255 -7.7831 -7.78366 -7.78421 -7.78439 -7.78457 -7.78475 -7.78494 -7.78511 -7.7855 -7.78588 -7.78626 -7.78665 -7.78701 -7.78763 -7.78825 -7.78886 -7.78948 -7.79011 -7.79075 -7.79145 -7.79214 -7.79284 -7.7937 -7.79426 -7.79506 -7.79586 -7.79666 -7.79785 -7.79824 -7.79914 -7.80004 -7.80094 -7.80259 -7.80271 -7.80372 -7.80473 -7.80574 -7.80794 -7.80772 -7.80884 -7.80996 -7.81109 -7.81393 -7.8133 -7.81454 -7.81578 -7.81702 -7.82054 -7.81948 -7.82082 -7.82217 -7.82352 -7.82774 -7.82623 -7.8277 -7.82916 -7.83063 -7.8356 -7.83369 -7.83532 -7.83695 -7.83858 -7.84429 -7.8421 -7.84388 -7.84566 -7.84745 -7.85376 -7.85133 -7.85322 -7.85512 -7.85702 -7.86384 -7.8612 -7.86323 -7.86525 -7.86727 -7.87456 -7.87188 -7.87406 -7.87623 -7.87861 -7.88605 -7.88384 -7.88582 -7.88814 -7.89108 -7.89828 -7.89661 -7.89837 -7.90082 -7.90423 -7.91112 -7.91001 -7.91161 -7.91418 -7.918 -7.92455 -7.924 -7.92553 -7.92823 -7.93236 -7.93856 -7.93859 -7.94012 -7.94295 -7.94731 -7.95317 -7.95376 -7.95537 -7.95832 -7.96283 -7.96834 -7.96947 -7.97123 -7.9743 -7.97888 -7.98406 -7.98569 -7.98765 -7.99084 -7.99541 -8.00029 -8.00238 -8.00459 -8.00789 -8.0124 -8.01701 -8.01952 -8.02202 -8.02545 -8.02983 -8.03421 -8.03709 -8.03997 -8.04349 -8.04768 -8.05187 -8.05507 -8.05827 -8.06189 -8.06593 -8.06997 -8.07344 -8.07692 -8.08062 -8.08455 -8.08848 -8.09218 -8.09589 -8.09967 -8.10353 -8.10738 -8.11127 -8.11517 -8.11902 -8.12285 -8.12667 -8.13073 -8.1348 -8.13872 -8.14253 -8.14633 -8.15055 -8.15478 -8.15875 -8.16253 -8.1663 -8.17064 -8.17496 -8.17898 -8.18275 -8.1865 -8.1909 -8.19524 -8.1993 -8.20312 -8.20688 -8.2113 -8.21562 -8.21971 -8.22361 -8.2274 -8.23182 -8.23611 -8.24022 -8.2442 -8.24802 -8.25243 -8.25668 -8.26082 -8.26486 -8.26873 -8.27311 -8.27731 -8.28145 -8.28555 -8.28946 -8.29379 -8.29795 -8.30208 -8.30621 -8.31014 -8.31441 -8.31853 -8.32264 -8.32676 -8.33071 -8.3349 -8.33899 -8.34307 -8.34715 -8.35113 -8.35523 -8.35927 -8.36331 -8.36735 -8.37132 -8.37534 -8.37932 -8.38331 -8.38729 -8.39123 -8.39516 -8.39908 -8.40299 -8.4069 -8.41079 -8.41462 -8.41844 -8.42227 -8.42609 -8.42991 -8.42997 -8.43003 -8.43009 -8.43015 -8.43021 -8.43388 -8.43756 -8.44123 -8.44491 -8.44858 -8.45221 -8.45582 -8.45943 -8.46304 -8.46662 -8.47014 -8.4736 -8.47706 -8.48052 -8.48394 -8.48733 -8.49063 -8.49393 -8.49723 -8.50046 -8.50372 -8.50684 -8.50997 -8.51309 -8.51611 -8.51922 -8.52215 -8.52508 -8.52799 -8.53079 -8.5337 -8.53644 -8.53914 -8.54178 -8.54431 -8.54698 -8.54952 -8.55195 -8.55428 -8.55653 -8.55893 -8.56126 -8.5634 -8.5654 -8.56736 -8.56947 -8.57158 -8.57342 -8.57505 -8.57667 -8.57848 -8.58029 -8.5818 -8.58306 -8.58431 -8.58577 -8.58724 -8.5884 -8.58925 -8.59011 -8.59119 -8.59227 -8.59305 -8.59347 -8.5939 -8.59457 -8.59524 -8.59561 -8.59557 -8.59554 -8.59576 -8.59592 -8.59581 -8.59539 -8.59486 -8.59461 -8.59419 -8.59356 -8.59275 -8.59169 -8.59092 -8.58987 -8.5887 -8.58748 -8.58585 -8.58453 -8.58279 -8.58104 -8.5793 -8.57715 -8.57511 -8.57275 -8.57038 -8.56802 -8.5654 -8.56259 -8.55956 -8.55654 -8.55352 -8.5504 -8.54849 -8.5465 -8.54451 -8.54251 -8.5406 -8.53889 -8.53718 -8.53547 -8.53376 -8.53202 -8.52768 -8.52329 -8.5189 -8.51452 -8.51005 -8.50504 -8.49987 -8.49471 -8.48955 -8.4842 -8.4785 -8.47251 -8.46653 -8.46051 -8.45427 -8.44775 -8.44101 -8.43417 -8.42718 -8.42004 -8.41263 -8.40514 -8.39739 -8.38936 -8.38128 -8.37294 -8.3646 -8.35588 -8.34682 -8.33777 -8.32844 -8.31912 -8.30944 -8.29935 -8.28927 -8.27893 -8.26859 -8.25784 -8.24673 -8.23558 -8.22416 -8.21257 -8.20073 -8.18871 -8.17644 -8.16391 -8.15099 -8.13799 -8.125 -8.11161 -8.09779 -8.08359 -8.06939 -8.05521 -8.04084 -8.02999 -8.01898 -8.00796 -7.99695 -7.98654 -7.98201 -7.97748 -7.97295 -7.96842 -7.96385 -7.9472 -7.9305 -7.91382 -7.89714 -7.88025 -7.86248 -7.84447 -7.82646 -7.80847 -7.79005 -7.77106 -7.75176 -7.73239 -7.71284 -7.69302 -7.67264 -7.65216 -7.63139 -7.61019 -7.58893 -7.56712 -7.54531 -7.52305 -7.50031 -7.47758 -7.4543 -7.43103 -7.40727 -7.38303 -7.35879 -7.33401 -7.30903 -7.28368 -7.25816 -7.23238 -7.20607 -7.17923 -7.15233 -7.12544 -7.09821 -7.07009 -7.04159 -7.01311 -6.98464 -6.95614 -6.95363 -6.95109 -6.94855 -6.946 -6.94348 -6.91605 -6.88862 -6.86121 -6.83381 -6.80598 -6.77479 -6.74323 -6.71168 -6.6801 -6.64767 -6.61508 -6.58212 -6.54894 -6.51521 -6.48115 -6.44691 -6.41269 -6.37776 -6.34205 -6.30633 -6.27044 -6.23457 -6.19791 -6.16057 -6.12322 -6.08569 -6.04777 -6.00936 -5.97084 -5.93188 -5.89266 -5.85263 -5.81263 -5.77263 -5.73244 -5.71628 -5.6999 -5.68352 -5.66715 -5.65123 -5.62604 -5.60085 -5.57566 -5.55049 -5.52493 -5.48225 -5.43931 -5.39638 -5.3534 -5.30957 -5.26561 -5.22141 -5.177 -5.13196 -5.08668 -5.04125 -4.99583 -4.94981 -4.90316 -4.85649 -4.80965 -4.76269 -4.71509 -4.6673 -4.61932 -4.57114 -4.52231 -4.47343 -4.42457 -4.37552 -4.35316 -4.33057 -4.30799 -4.2854 -4.26349 -4.23591 -4.20834 -4.18078 -4.15322 -4.12535 -4.0744 -4.0233 -3.97222 -3.92103 -3.86928 -3.81737 -3.7654 -3.7133 -3.66066 -3.60797 -3.55508 -3.5022 -3.44895 -3.39546 -3.34195 -3.28819 -3.23421 -3.18009 -3.12597 -3.07176 -3.03298 -2.99402 -2.95507 -2.91613 -2.87878 -2.86263 -2.84648 -2.83034 -2.81419 -2.79795 -2.74262 -2.6873 -2.63199 -2.57668 -2.52109 -2.46528 -2.4095 -2.35379 -2.29793 -2.24204 -2.18588 -2.12974 -2.07358 -2.01755 -1.9615 -1.90515 -1.84885 -1.79258 -1.73632 -1.68018 -1.65536 -1.6306 -1.60585 -1.5811 -1.55685 -1.52521 -1.49357 -1.46193 -1.4303 -1.39871 -1.34227 -1.28608 -1.22991 -1.17383 -1.11783 -1.06156 -1.00531 -0.949451 -0.893882 -0.838281 -0.782383 -0.726589 -0.671082 -0.615716 -0.560631 -0.5133 -0.466336 -0.419378 -0.372427 -0.326767 -0.318476 -0.310185 -0.301895 -0.293605 -0.285364 -0.230674 -0.176101 -0.121534 -0.0670079 -0.012861 0.0415281 0.0957629 0.149589 0.202934 0.256302 0.309926 0.363542 0.416646 0.469309 0.521838 0.574634 0.626924 0.679174 0.731421 0.783585 0.788878 0.794117 0.799356 0.804594 0.809825 0.856265 0.902704 0.94914 0.995573 1.04165 1.09305 1.14408 1.19488 1.24531 1.29566 1.34614 1.39661 1.44665 1.496 1.54536 1.59486 1.64399 1.69297 1.74195 1.7906 1.8064 1.82203 1.83766 1.85328 1.86891 1.90149 1.93406 1.96663 1.99921 2.03149 2.07942 2.12672 2.17402 2.22103 2.26785 2.31475 2.36166 2.40801 2.45378 2.49955 2.54542 2.59106 2.63644 2.68182 2.72656 2.75496 2.78307 2.81118 2.8393 2.86765 2.88396 2.90026 2.91657 2.93288 2.94907 2.993 3.03665 3.0803 3.12389 3.16715 3.21038 3.25347 3.29607 3.3383 3.38052 3.42274 3.46496 3.50686 3.54811 3.58931 3.63054 3.67151 3.71238 3.75326 3.7937 3.81456 3.83526 3.85597 3.87668 3.89767 3.91696 3.93624 3.95553 3.97482 3.99395 4.0336 4.07288 4.11217 4.15137 4.19029 4.22932 4.26827 4.30669 4.34483 4.38295 4.42118 4.45941 4.49738 4.53485 4.57224 4.60974 4.64706 4.68433 4.72159 4.75852 4.77698 4.79537 4.81375 4.83214 4.85075 4.86906 4.88736 4.90566 4.92397 4.94217 4.97874 5.01501 5.05129 5.08752 5.12361 5.15987 5.19605 5.23187 5.26757 5.30327 5.33912 5.37497 5.41078 5.44622 5.48163 5.51718 5.55275 5.58832 5.62389 5.65922 5.67917 5.69917 5.71917 5.73916 5.75923 5.7747 5.79017 5.80565 5.82112 5.83661 5.87225 5.90776 5.94326 5.97879 6.01443 6.05023 6.08601 6.12164 6.15748 6.19332 6.22932 6.26532 6.30159 6.33778 6.37398 6.41031 6.44694 6.48368 6.52041 6.55713 6.57391 6.59089 6.60786 6.62484 6.64157 6.66193 6.68228 6.70264 6.723 6.74358 6.78148 6.81944 6.8574 6.89558 6.93413 6.97282 7.01152 7.05054 7.09005 7.12959 7.16925 7.2091 7.24953 7.29004 7.33075 7.36442 7.39878 7.43315 7.46752 7.50017 7.50779 7.51541 7.52303 7.53065 7.53843 7.58111 7.6239 7.6667 7.70968 7.75347 7.79735 7.84124 7.88576 7.93106 7.97644 8.02188 8.06767 8.11422 8.16079 8.20787 8.23266 8.25798 8.28337 8.30876 8.33318 8.35608 8.37897 8.40186 8.42483 8.44828 8.49739 8.54699 8.5966 8.64703 8.69787 8.74873 8.79959 8.85149 8.90386 8.95647 8.99354 9.03122 9.06908 9.10694 9.14333 9.15936 9.17538 9.1914 9.20751 9.22385 9.27839 9.33327 9.38815 9.44368 9.49963 9.55556 9.6115 9.66828 9.72533 9.7826 9.81446 9.84659 9.87884 9.91109 9.94312 9.96875 9.99438 10.02 10.0457 10.0717 10.1301 10.1887 10.2473 10.3065 10.3658 10.425 10.4841 10.5432 10.6023 10.6613 10.6796 10.6983 10.7172 10.736 10.7553 10.7963 10.8373 10.8782 10.9196 10.9617 11.0228 11.0833 11.1387 11.1878 11.2367 11.2852 11.3406 11.4052 11.4697 11.5395 11.554 11.5665 11.5761 11.5857 11.5955 11.6456 11.6955 11.7453 11.7843 11.8149 11.8534 11.8919 11.9363 11.9841 12.0324 12.0526 12.0727 12.0926 12.1126 12.134 12.1621 12.1902 12.2183 12.2464 12.2744 12.3228 12.3711 12.4161 12.4583 12.5001 12.5326 12.5636 12.5931 12.6226 12.6578 12.6652 12.6726 12.68 12.6871 12.6939 12.7288 12.7626 12.7963 12.8278 12.858 12.8866 12.915 12.9394 12.9622 12.9839 12.9961 13.006 13.0151 13.0241 13.0349 13.0412 13.0475 13.0537 13.0597 13.0644 13.0739 13.0808 13.0874 13.0911 13.0923 13.09 13.0876 13.0806 13.0691 13.0574 13.0419 13.0223 13.0002 12.9781 12.9531 12.9384 12.921 12.9035 12.886 12.8651 12.8477 12.8303 12.8128 12.7952 12.7749 12.7279 12.6776 12.6271 12.5749 12.517 12.4543 12.3901 12.3221 12.2472 12.1717 12.0912 12.0106 11.9231 11.829 11.7347 11.635 11.5335 11.4259 11.3149 11.2014 11.082 10.9561 10.8278 10.6996 10.5649 10.4217 10.2729 10.124 9.97507 9.82368 9.68148 9.53503 9.38856 9.24208 9.02879 9.01486 9.00092 8.98698 8.97304 8.95876 8.76461 8.57029 8.3759 8.18145 7.98539 7.76537 7.53521 7.30492 7.07448 6.82662 6.56615 6.32078 6.07541 5.83005 5.60386 5.36994 5.04075 4.71111 4.36975 3.93559 3.48583 3.17502 2.89943 2.66903 2.56831 2.4639 2.13879 1.66459 0.922173 0