/*--------------------------------*- C++ -*----------------------------------*\
| =========                 |                                                 |
| \\      /  F ield         | OpenFOAM: The Open Source CFD Toolbox           |
|  \\    /   O peration     | Version:  4.1                                   |
|   \\  /    A nd           | Web:      www.OpenFOAM.org                      |
|    \\/     M anipulation  |                                                 |
\*---------------------------------------------------------------------------*/
FoamFile
{
    version     2.0;
    format      ascii;
    class       volScalarField;
    location    "9";
    object      p;
}
// * * * * * * * * * * * * * * * * * * * * * * * * * * * * * * * * * * * * * //

dimensions      [0 2 -2 0 0 0 0];

internalField   nonuniform List<scalar> 
1705
(
7.69028e-29
4.00517e-28
7.43633e-28
8.99684e-28
1.05585e-27
1.36319e-27
1.74889e-27
1.91536e-27
2.08161e-27
2.38714e-27
2.83652e-27
3.02196e-27
3.34797e-27
3.86755e-27
4.07784e-27
4.28813e-27
4.63559e-27
5.26723e-27
5.51451e-27
5.90842e-27
6.66424e-27
6.95665e-27
7.24945e-27
7.69124e-27
8.63138e-27
8.98532e-27
9.33896e-27
9.84473e-27
1.10294e-26
1.14646e-26
1.20669e-26
1.35328e-26
1.40667e-26
1.46009e-26
1.53008e-26
1.71798e-26
1.78478e-26
1.86884e-26
2.10517e-26
2.18791e-26
2.24521e-26
2.279e-26
2.33681e-26
2.40604e-26
-8.24614e-27
2.58113e-26
2.55482e-26
2.53922e-26
2.5475e-26
2.55663e-26
2.56658e-26
2.60105e-26
2.64696e-26
-7.02708e-27
2.63577e-26
2.58778e-26
2.55126e-26
2.53968e-26
2.52934e-26
2.52023e-26
2.53578e-26
2.56294e-26
-8.40139e-27
2.40458e-26
2.34015e-26
2.28883e-26
2.26292e-26
2.23889e-26
2.21674e-26
2.21875e-26
2.23329e-26
-1.00686e-26
1.46499e-26
1.40536e-26
1.35867e-26
1.3358e-26
1.31803e-26
1.30503e-26
1.30729e-26
1.32122e-26
-3.93663e-27
-4.60358e-27
-5.06277e-27
-5.41364e-27
-5.81246e-27
-6.10456e-27
-6.53036e-27
-6.81351e-27
-7.0111e-27
-7.30206e-27
-7.49364e-27
-7.61213e-27
-7.76794e-27
-7.8517e-27
-7.98722e-27
-8.0792e-27
-8.10512e-27
-8.17293e-27
-8.17595e-27
-8.204e-27
-8.23234e-27
-8.19857e-27
-8.17889e-27
-8.18266e-27
-8.12441e-27
-8.12086e-27
-8.05732e-27
-8.00361e-27
-7.99291e-27
-7.92243e-27
-7.91254e-27
-7.84487e-27
-7.79309e-27
-7.78967e-27
-7.72931e-27
-7.69144e-27
-7.70109e-27
-7.65361e-27
-7.67226e-27
-7.63461e-27
-4.59708e-30
-4.79365e-30
-5.21954e-30
-5.91293e-30
-6.92915e-30
-8.32573e-30
-1.0145e-29
-1.23955e-29
-1.50365e-29
-1.79733e-29
-2.10738e-29
-2.42132e-29
-2.7358e-29
-3.06843e-29
-3.47199e-29
-4.04771e-29
-4.95268e-29
-6.39506e-29
-8.61083e-29
-1.18178e-28
-1.61472e-28
-2.15601e-28
-2.77625e-28
-3.41416e-28
-3.97523e-28
-4.33892e-28
-4.37992e-28
-4.00989e-28
-3.24533e-28
-2.29721e-28
-1.65705e-28
-2.12967e-28
-4.73915e-28
-1.04517e-27
-1.97787e-27
-3.24132e-27
-4.67724e-27
-6.08787e-27
-7.13606e-27
-4.58922e-30
-4.78505e-30
-5.20965e-30
-5.90154e-30
-6.91637e-30
-8.31198e-30
-1.0131e-29
-1.23818e-29
-1.50235e-29
-1.79607e-29
-2.10595e-29
-2.41933e-29
-2.73256e-29
-3.06303e-29
-3.46335e-29
-4.0348e-29
-4.93483e-29
-6.37236e-29
-8.58449e-29
-1.17904e-28
-1.61226e-28
-2.15431e-28
-2.77581e-28
-3.41537e-28
-3.97814e-28
-4.34299e-28
-4.38347e-28
-4.00961e-28
-3.23616e-28
-2.2734e-28
-1.61489e-28
-2.07195e-28
-4.6799e-28
-1.04159e-27
-1.97942e-27
-3.25121e-27
-4.69431e-27
-6.11319e-27
-7.16274e-27
-4.57437e-30
-4.76934e-30
-5.19222e-30
-5.88178e-30
-6.89376e-30
-8.2861e-30
-1.01014e-29
-1.23482e-29
-1.4985e-29
-1.79162e-29
-2.1007e-29
-2.41293e-29
-2.72453e-29
-3.05268e-29
-3.44984e-29
-4.01717e-29
-4.91212e-29
-6.34374e-29
-8.54941e-29
-1.17486e-28
-1.60744e-28
-2.14891e-28
-2.76991e-28
-3.40906e-28
-3.97146e-28
-4.33577e-28
-4.37514e-28
-3.99895e-28
-3.22159e-28
-2.25442e-28
-1.59497e-28
-2.06247e-28
-4.70355e-28
-1.05039e-27
-1.99749e-27
-3.28086e-27
-4.7329e-27
-6.1588e-27
-7.20816e-27
-4.55251e-30
-4.74645e-30
-5.16711e-30
-5.85341e-30
-6.86106e-30
-8.24788e-30
-1.00564e-29
-1.22949e-29
-1.49219e-29
-1.78414e-29
-2.09183e-29
-2.40239e-29
-2.71194e-29
-3.03751e-29
-3.43135e-29
-3.99434e-29
-4.88362e-29
-6.30783e-29
-8.50392e-29
-1.1691e-28
-1.60019e-28
-2.13988e-28
-2.75886e-28
-3.39589e-28
-3.95621e-28
-4.31866e-28
-4.35651e-28
-3.97927e-28
-3.20208e-28
-2.23885e-28
-1.59284e-28
-2.09286e-28
-4.79743e-28
-1.06995e-27
-2.03023e-27
-3.32847e-27
-4.79138e-27
-6.22352e-27
-7.27098e-27
-4.52367e-30
-4.71633e-30
-5.13423e-30
-5.81629e-30
-6.8181e-30
-8.19721e-30
-9.99589e-30
-1.22223e-29
-1.48348e-29
-1.77374e-29
-2.0795e-29
-2.38789e-29
-2.69496e-29
-3.0176e-29
-3.40779e-29
-3.96599e-29
-4.84868e-29
-6.26366e-29
-8.44688e-29
-1.16165e-28
-1.59043e-28
-2.12727e-28
-2.74291e-28
-3.37634e-28
-3.93315e-28
-4.29267e-28
-4.32871e-28
-3.95155e-28
-3.17793e-28
-2.22557e-28
-1.60509e-28
-2.15653e-28
-4.9514e-28
-1.09891e-27
-2.07603e-27
-3.39234e-27
-4.86799e-27
-6.30569e-27
-7.35071e-27
-4.48787e-30
-4.67899e-30
-5.09353e-30
-5.77038e-30
-6.76482e-30
-8.13405e-30
-9.92e-30
-1.21306e-29
-1.47242e-29
-1.76051e-29
-2.06384e-29
-2.36957e-29
-2.67371e-29
-2.99302e-29
-3.37913e-29
-3.93191e-29
-4.8069e-29
-6.21065e-29
-8.37761e-29
-1.15244e-28
-1.57817e-28
-2.11113e-28
-2.72223e-28
-3.35074e-28
-3.90282e-28
-4.25851e-28
-4.29255e-28
-3.91646e-28
-3.14933e-28
-2.21373e-28
-1.62913e-28
-2.24846e-28
-5.15747e-28
-1.13615e-27
-2.13346e-27
-3.47076e-27
-4.96078e-27
-6.40319e-27
-7.44342e-27
-4.44517e-30
-4.63445e-30
-5.04504e-30
-5.71566e-30
-6.70121e-30
-8.05842e-30
-9.8288e-30
-1.202e-29
-1.45906e-29
-1.74451e-29
-2.04493e-29
-2.34752e-29
-2.6483e-29
-2.96384e-29
-3.34538e-29
-3.89202e-29
-4.75809e-29
-6.14851e-29
-8.29575e-29
-1.14144e-28
-1.56338e-28
-2.09153e-28
-2.69696e-28
-3.31934e-28
-3.86557e-28
-4.21666e-28
-4.24855e-28
-3.87444e-28
-3.11635e-28
-2.20264e-28
-1.66295e-28
-2.36466e-28
-5.40898e-28
-1.18068e-27
-2.20117e-27
-3.56201e-27
-5.06757e-27
-6.51342e-27
-7.54791e-27
-4.39561e-30
-4.58277e-30
-4.9888e-30
-5.65218e-30
-6.62733e-30
-7.9704e-30
-9.72242e-30
-1.18908e-29
-1.44342e-29
-1.72578e-29
-2.02282e-29
-2.32182e-29
-2.61878e-29
-2.93011e-29
-3.30656e-29
-3.84628e-29
-4.70215e-29
-6.07708e-29
-8.20116e-29
-1.12866e-28
-1.54609e-28
-2.06851e-28
-2.66719e-28
-3.28233e-28
-3.82168e-28
-4.16745e-28
-4.19709e-28
-3.82581e-28
-3.07905e-28
-2.19175e-28
-1.7049e-28
-2.5017e-28
-5.69995e-28
-1.23158e-27
-2.27777e-27
-3.66421e-27
-5.18593e-27
-6.6333e-27
-7.65891e-27
-4.33927e-30
-4.52403e-30
-4.92489e-30
-5.58002e-30
-6.54325e-30
-7.8701e-30
-9.60102e-30
-1.17432e-29
-1.42555e-29
-1.70438e-29
-1.99757e-29
-2.29252e-29
-2.58524e-29
-2.89191e-29
-3.26272e-29
-3.79473e-29
-4.6391e-29
-5.99637e-29
-8.09386e-29
-1.1141e-28
-1.52632e-28
-2.04213e-28
-2.63303e-28
-3.23985e-28
-3.77134e-28
-4.11115e-28
-4.13846e-28
-3.7708e-28
-3.03744e-28
-2.18056e-28
-1.75349e-28
-2.65642e-28
-6.0246e-28
-1.2879e-27
-2.36184e-27
-3.7753e-27
-5.31314e-27
-6.75934e-27
-7.77213e-27
-4.27624e-30
-4.45831e-30
-4.85339e-30
-5.49926e-30
-6.44909e-30
-7.75765e-30
-9.46478e-30
-1.15774e-29
-1.40547e-29
-1.68033e-29
-1.96924e-29
-2.25969e-29
-2.54772e-29
-2.8493e-29
-3.21393e-29
-3.73743e-29
-4.56898e-29
-5.90643e-29
-7.97393e-29
-1.09778e-28
-1.50411e-28
-2.01244e-28
-2.59457e-28
-3.19203e-28
-3.71476e-28
-4.04798e-28
-4.07289e-28
-3.70958e-28
-2.99151e-28
-2.1686e-28
-1.8073e-28
-2.82567e-28
-6.37701e-28
-1.34863e-27
-2.45181e-27
-3.89304e-27
-5.44621e-27
-6.88772e-27
-7.88555e-27
-4.20662e-30
-4.38572e-30
-4.77442e-30
-5.41003e-30
-6.34499e-30
-7.63322e-30
-9.31389e-30
-1.13937e-29
-1.38321e-29
-1.65368e-29
-1.93786e-29
-2.22339e-29
-2.50631e-29
-2.80233e-29
-3.16025e-29
-3.67445e-29
-4.49188e-29
-5.8074e-29
-7.84157e-29
-1.07972e-28
-1.47949e-28
-1.97951e-28
-2.5519e-28
-3.13901e-28
-3.65208e-28
-3.97816e-28
-4.0006e-28
-3.64235e-28
-2.94125e-28
-2.1554e-28
-1.86491e-28
-3.00627e-28
-6.751e-28
-1.41272e-27
-2.54601e-27
-4.015e-27
-5.58187e-27
-7.01422e-27
-7.99197e-27
-4.13052e-30
-4.30637e-30
-4.68809e-30
-5.31247e-30
-6.2311e-30
-7.49699e-30
-9.14859e-30
-1.11923e-29
-1.3588e-29
-1.62448e-29
-1.90349e-29
-2.18366e-29
-2.46105e-29
-2.7511e-29
-3.10178e-29
-3.60589e-29
-4.40794e-29
-5.69942e-29
-7.69698e-29
-1.05996e-28
-1.45253e-28
-1.94341e-28
-2.50513e-28
-3.08091e-28
-3.58349e-28
-3.90187e-28
-3.92182e-28
-3.56927e-28
-2.88668e-28
-2.1405e-28
-1.92488e-28
-3.19489e-28
-7.14004e-28
-1.47903e-27
-2.64266e-27
-4.13856e-27
-5.71665e-27
-7.13439e-27
-8.08582e-27
-4.04806e-30
-4.22038e-30
-4.59455e-30
-5.20673e-30
-6.10759e-30
-7.34917e-30
-8.96912e-30
-1.09736e-29
-1.33229e-29
-1.59276e-29
-1.86619e-29
-2.14057e-29
-2.41203e-29
-2.69568e-29
-3.03859e-29
-3.53187e-29
-4.31727e-29
-5.58267e-29
-7.54043e-29
-1.03854e-28
-1.42326e-28
-1.90422e-28
-2.45435e-28
-3.01788e-28
-3.50916e-28
-3.81932e-28
-3.83676e-28
-3.49052e-28
-2.82778e-28
-2.12346e-28
-1.98572e-28
-3.38805e-28
-7.53727e-28
-1.54636e-27
-2.73986e-27
-4.26095e-27
-5.8469e-27
-7.24365e-27
-8.16466e-27
-3.95937e-30
-4.1279e-30
-4.49393e-30
-5.09297e-30
-5.97467e-30
-7.18999e-30
-8.77575e-30
-1.07378e-29
-1.30372e-29
-1.55857e-29
-1.82599e-29
-2.09419e-29
-2.35932e-29
-2.63616e-29
-2.9708e-29
-3.45249e-29
-4.22004e-29
-5.45735e-29
-7.37218e-29
-1.01549e-28
-1.39175e-28
-1.86201e-28
-2.39967e-28
-2.95006e-28
-3.42926e-28
-3.73074e-28
-3.74564e-28
-3.40629e-28
-2.76459e-28
-2.1038e-28
-2.04592e-28
-3.58219e-28
-7.9355e-28
-1.61346e-27
-2.83564e-27
-4.3793e-27
-5.96885e-27
-7.33727e-27
-8.22018e-27
-3.86458e-30
-4.02908e-30
-4.38641e-30
-4.97136e-30
-5.83252e-30
-7.01968e-30
-8.56877e-30
-1.04854e-29
-1.27311e-29
-1.52196e-29
-1.78298e-29
-2.04459e-29
-2.30299e-29
-2.57262e-29
-2.89852e-29
-3.36789e-29
-4.11641e-29
-5.32369e-29
-7.19254e-29
-9.90853e-29
-1.35805e-28
-1.81687e-28
-2.34122e-28
-2.87761e-28
-3.34398e-28
-3.63633e-28
-3.6487e-28
-3.31678e-28
-2.69712e-28
-2.08108e-28
-2.10394e-28
-3.77359e-28
-8.32731e-28
-1.67904e-27
-2.92796e-27
-4.49068e-27
-6.07869e-27
-7.41053e-27
-8.24997e-27
-3.76386e-30
-3.92406e-30
-4.27214e-30
-4.8421e-30
-5.68137e-30
-6.83851e-30
-8.34849e-30
-1.02166e-29
-1.24053e-29
-1.483e-29
-1.73721e-29
-1.99183e-29
-2.24314e-29
-2.50517e-29
-2.82185e-29
-3.27822e-29
-4.00655e-29
-5.18192e-29
-7.00184e-29
-9.64685e-29
-1.32224e-28
-1.76889e-28
-2.27911e-28
-2.80067e-28
-3.25353e-28
-3.53633e-28
-3.54618e-28
-3.2222e-28
-2.62543e-28
-2.05487e-28
-2.15823e-28
-3.95852e-28
-8.70512e-28
-1.74174e-27
-3.01474e-27
-4.59212e-27
-6.17259e-27
-7.45877e-27
-8.24613e-27
-3.65736e-30
-3.81302e-30
-4.15131e-30
-4.7054e-30
-5.52146e-30
-6.64675e-30
-8.11526e-30
-9.93202e-30
-1.20602e-29
-1.44173e-29
-1.68874e-29
-1.93601e-29
-2.17986e-29
-2.43392e-29
-2.74092e-29
-3.1836e-29
-3.89065e-29
-5.03227e-29
-6.80043e-29
-9.37029e-29
-1.28438e-28
-1.71816e-28
-2.21347e-28
-2.71941e-28
-3.1581e-28
-3.43097e-28
-3.43835e-28
-3.12278e-28
-2.54957e-28
-2.02473e-28
-2.20724e-28
-4.1332e-28
-9.06124e-28
-1.80024e-27
-3.09392e-27
-4.68068e-27
-6.24685e-27
-7.47753e-27
-8.20337e-27
-3.54525e-30
-3.69613e-30
-4.02411e-30
-4.56146e-30
-5.35303e-30
-6.44471e-30
-7.86942e-30
-9.63193e-30
-1.16963e-29
-1.39821e-29
-1.63766e-29
-1.8772e-29
-2.11323e-29
-2.35897e-29
-2.65586e-29
-3.08421e-29
-3.7689e-29
-4.87503e-29
-6.58865e-29
-9.07936e-29
-1.24455e-28
-1.6648e-28
-2.14443e-28
-2.63401e-28
-3.05789e-28
-3.32049e-28
-3.32545e-28
-3.01874e-28
-2.46962e-28
-1.99029e-28
-2.24948e-28
-4.29388e-28
-9.38803e-28
-1.85318e-27
-3.16344e-27
-4.75352e-27
-6.29791e-27
-7.4627e-27
-8.11989e-27
-3.42771e-30
-3.57357e-30
-3.89074e-30
-4.4105e-30
-5.17634e-30
-6.23268e-30
-7.61134e-30
-9.31684e-30
-1.13142e-29
-1.35252e-29
-1.58403e-29
-1.81549e-29
-2.04337e-29
-2.28043e-29
-2.5668e-29
-2.98021e-29
-3.64151e-29
-4.71045e-29
-6.36689e-29
-8.77458e-29
-1.20281e-28
-1.60888e-28
-2.07214e-28
-2.54463e-28
-2.95313e-28
-3.20515e-28
-3.20777e-28
-2.91033e-28
-2.38567e-28
-1.95118e-28
-2.28348e-28
-4.4369e-28
-9.67797e-28
-1.89926e-27
-3.22133e-27
-4.80793e-27
-6.32244e-27
-7.41053e-27
-7.98982e-27
-3.30492e-30
-3.44554e-30
-3.75141e-30
-4.25277e-30
-4.99167e-30
-6.01099e-30
-7.34142e-30
-8.9872e-30
-1.09144e-29
-1.30471e-29
-1.52794e-29
-1.75097e-29
-1.97037e-29
-2.19843e-29
-2.47388e-29
-2.87175e-29
-3.50869e-29
-4.53881e-29
-6.13553e-29
-8.45651e-29
-1.15925e-28
-1.55053e-28
-1.99672e-28
-2.45146e-28
-2.84404e-28
-3.08519e-28
-3.08555e-28
-2.7978e-28
-2.29784e-28
-1.90708e-28
-2.30788e-28
-4.55873e-28
-9.92378e-28
-1.9372e-27
-3.26568e-27
-4.84136e-27
-6.3174e-27
-7.31774e-27
-7.81028e-27
-3.17707e-30
-3.31225e-30
-3.60633e-30
-4.08851e-30
-4.7993e-30
-5.77999e-30
-7.06007e-30
-8.64353e-30
-1.04975e-29
-1.25487e-29
-1.46947e-29
-1.68375e-29
-1.89435e-29
-2.1131e-29
-2.37725e-29
-2.75902e-29
-3.37065e-29
-4.36041e-29
-5.89498e-29
-8.12571e-29
-1.11393e-28
-1.48985e-28
-1.91832e-28
-2.35467e-28
-2.73082e-28
-2.96086e-28
-2.95909e-28
-2.6814e-28
-2.20626e-28
-1.85772e-28
-2.32137e-28
-4.65603e-28
-1.01185e-27
-1.96579e-27
-3.29472e-27
-4.85155e-27
-6.28016e-27
-7.18158e-27
-7.58142e-27
-3.04437e-30
-3.17389e-30
-3.45573e-30
-3.91798e-30
-4.59954e-30
-5.54003e-30
-6.76772e-30
-8.28633e-30
-1.00641e-29
-1.20306e-29
-1.40871e-29
-1.61391e-29
-1.81543e-29
-2.02457e-29
-2.27706e-29
-2.64219e-29
-3.22764e-29
-4.17555e-29
-5.64564e-29
-7.78274e-29
-1.06695e-28
-1.42695e-28
-1.83708e-28
-2.25446e-28
-2.6137e-28
-2.83243e-28
-2.82865e-28
-2.5614e-28
-2.11108e-28
-1.80288e-28
-2.32282e-28
-4.7257e-28
-1.02558e-27
-1.98389e-27
-3.30685e-27
-4.8365e-27
-6.20852e-27
-6.99983e-27
-7.30278e-27
-2.90702e-30
-3.03069e-30
-3.29985e-30
-3.74144e-30
-4.39268e-30
-5.29148e-30
-6.46481e-30
-7.91616e-30
-9.615e-30
-1.14936e-29
-1.34575e-29
-1.54158e-29
-1.73372e-29
-1.93297e-29
-2.17346e-29
-2.52146e-29
-3.07987e-29
-3.98453e-29
-5.38793e-29
-7.4282e-29
-1.01838e-28
-1.36194e-28
-1.75316e-28
-2.15099e-28
-2.4929e-28
-2.70014e-28
-2.69451e-28
-2.43805e-28
-2.01248e-28
-1.74242e-28
-2.31119e-28
-4.76493e-28
-1.03296e-27
-1.9905e-27
-3.30063e-27
-4.79456e-27
-6.10078e-27
-6.77076e-27
-6.97749e-27
-2.76524e-30
-2.88286e-30
-3.13894e-30
-3.55917e-30
-4.17906e-30
-5.03471e-30
-6.15181e-30
-7.53356e-30
-9.15074e-30
-1.09386e-29
-1.28068e-29
-1.46685e-29
-1.64935e-29
-1.83844e-29
-2.06663e-29
-2.39702e-29
-2.9276e-29
-3.78767e-29
-5.12229e-29
-7.06269e-29
-9.68312e-29
-1.29492e-28
-1.66669e-28
-2.04446e-28
-2.36865e-28
-2.56424e-28
-2.55693e-28
-2.31164e-28
-1.91065e-28
-1.67623e-28
-2.28564e-28
-4.77128e-28
-1.03349e-27
-1.9847e-27
-3.27483e-27
-4.72446e-27
-5.95584e-27
-6.49295e-27
-6.61221e-27
-2.61925e-30
-2.73065e-30
-2.97323e-30
-3.37144e-30
-3.95899e-30
-4.77014e-30
-5.8292e-30
-7.13913e-30
-8.67206e-30
-1.03664e-29
-1.2136e-29
-1.38984e-29
-1.56245e-29
-1.74114e-29
-1.95673e-29
-2.26907e-29
-2.77107e-29
-3.5853e-29
-4.84916e-29
-6.6868e-29
-9.16821e-29
-1.22602e-28
-1.57782e-28
-1.93505e-28
-2.24115e-28
-2.42498e-28
-2.41618e-28
-2.18241e-28
-1.80581e-28
-1.60432e-28
-2.2455e-28
-4.74268e-28
-1.02671e-27
-1.96572e-27
-3.22846e-27
-4.62534e-27
-5.77327e-27
-6.16506e-27
-6.2192e-27
-2.46927e-30
-2.57428e-30
-2.803e-30
-3.17856e-30
-3.73283e-30
-4.49815e-30
-5.49746e-30
-6.73346e-30
-8.1797e-30
-9.77778e-30
-1.14462e-29
-1.31067e-29
-1.47315e-29
-1.64121e-29
-1.84393e-29
-2.1378e-29
-2.61053e-29
-3.37773e-29
-4.56898e-29
-6.30116e-29
-8.63993e-29
-1.15535e-28
-1.48671e-28
-1.82294e-28
-2.11064e-28
-2.28261e-28
-2.27253e-28
-2.05065e-28
-1.69819e-28
-1.52674e-28
-2.19029e-28
-4.6775e-28
-1.01227e-27
-1.93295e-27
-3.16077e-27
-4.49681e-27
-5.55341e-27
-5.78513e-27
-5.84965e-27
-2.31554e-30
-2.414e-30
-2.6285e-30
-2.98082e-30
-3.50092e-30
-4.21918e-30
-5.1571e-30
-6.31716e-30
-7.67438e-30
-9.17371e-30
-1.07384e-29
-1.22945e-29
-1.38159e-29
-1.53881e-29
-1.72841e-29
-2.00344e-29
-2.44624e-29
-3.16532e-29
-4.2822e-29
-5.90638e-29
-8.09914e-29
-1.08302e-28
-1.39349e-28
-1.70831e-28
-1.97731e-28
-2.13736e-28
-2.12622e-28
-1.9166e-28
-1.58804e-28
-1.44362e-28
-2.11975e-28
-4.5746e-28
-9.89909e-28
-1.88593e-27
-3.07127e-27
-4.3389e-27
-5.29754e-27
-5.34841e-27
-5.16012e-27
-2.15829e-30
-2.25006e-30
-2.45e-30
-2.77852e-30
-3.26362e-30
-3.93365e-30
-4.80866e-30
-5.89088e-30
-7.15689e-30
-8.5551e-30
-1.00136e-29
-1.14632e-29
-1.2879e-29
-1.43409e-29
-1.61036e-29
-1.8662e-29
-2.27847e-29
-2.94839e-29
-3.98927e-29
-5.50309e-29
-7.54669e-29
-1.00914e-28
-1.29831e-28
-1.59135e-28
-1.84138e-28
-1.98946e-28
-1.97751e-28
-1.78054e-28
-1.47562e-28
-1.3552e-28
-2.03385e-28
-4.43334e-28
-9.59469e-28
-1.82438e-27
-2.95972e-27
-4.15211e-27
-5.00819e-27
-4.86079e-27
-4.19001e-27
-1.99778e-30
-2.0827e-30
-2.26779e-30
-2.57199e-30
-3.02129e-30
-3.642e-30
-4.45265e-30
-5.45527e-30
-6.628e-30
-7.92287e-30
-9.27298e-30
-1.06139e-29
-1.19224e-29
-1.32723e-29
-1.48995e-29
-1.72629e-29
-2.10747e-29
-2.72729e-29
-3.69067e-29
-5.09191e-29
-6.98342e-29
-9.33823e-29
-1.20132e-28
-1.47222e-28
-1.70305e-28
-1.83914e-28
-1.82662e-28
-1.6427e-28
-1.36122e-28
-1.26175e-28
-1.93279e-28
-4.25359e-28
-9.20894e-28
-1.7482e-27
-2.82617e-27
-3.93736e-27
-4.68909e-27
-4.33555e-27
-2.94015e-27
-1.83424e-30
-1.9122e-30
-2.08214e-30
-2.36154e-30
-2.77432e-30
-3.34468e-30
-4.08963e-30
-5.01098e-30
-6.08853e-30
-7.27799e-30
-8.51765e-30
-9.74803e-30
-1.09476e-29
-1.21838e-29
-1.36738e-29
-1.58393e-29
-1.93353e-29
-2.50238e-29
-3.38684e-29
-4.67348e-29
-6.41018e-29
-8.57185e-29
-1.10266e-28
-1.3511e-28
-1.56252e-28
-1.68662e-28
-1.67379e-28
-1.50334e-28
-1.24512e-28
-1.16367e-28
-1.81699e-28
-4.03578e-28
-8.74236e-28
-1.65748e-27
-2.67091e-27
-3.69591e-27
-4.34493e-27
-3.79547e-27
-1.26782e-27
-1.66794e-30
-1.73882e-30
-1.89334e-30
-2.1475e-30
-2.52309e-30
-3.04214e-30
-3.72016e-30
-4.5587e-30
-5.53929e-30
-6.62145e-30
-7.74877e-30
-8.86686e-30
-9.95588e-30
-1.10772e-29
-1.24284e-29
-1.43936e-29
-1.75692e-29
-2.27399e-29
-3.07827e-29
-4.24841e-29
-5.82782e-29
-7.79336e-29
-1.00247e-28
-1.22816e-28
-1.41999e-28
-1.53209e-28
-1.51923e-28
-1.36269e-28
-1.12764e-28
-1.0614e-28
-1.68711e-28
-3.7809e-28
-8.19661e-28
-1.55248e-27
-2.4945e-27
-3.4293e-27
-3.98082e-27
-3.2801e-27
-2.5324e-28
-1.49912e-30
-1.56281e-30
-1.70169e-30
-1.9302e-30
-2.26798e-30
-2.73487e-30
-3.3448e-30
-4.09913e-30
-4.98113e-30
-5.95423e-30
-6.9675e-30
-7.97176e-30
-8.94895e-30
-9.95418e-30
-1.11652e-29
-1.29279e-29
-1.57791e-29
-2.04249e-29
-2.76541e-29
-3.81735e-29
-5.23718e-29
-7.00385e-29
-9.00879e-29
-1.10357e-28
-1.27564e-28
-1.37577e-28
-1.36316e-28
-1.22096e-28
-1.00906e-28
-9.55456e-29
-1.54404e-28
-3.49045e-28
-7.57444e-28
-1.43366e-27
-2.29771e-27
-3.13923e-27
-3.60105e-27
-2.80604e-27
3.15224e-28
-1.32804e-30
-1.38446e-30
-1.50748e-30
-1.70997e-30
-2.00939e-30
-2.42332e-30
-2.96413e-30
-3.63296e-30
-4.41489e-30
-5.27737e-30
-6.17504e-30
-7.06409e-30
-7.92833e-30
-8.81653e-30
-9.88637e-30
-1.14447e-29
-1.39679e-29
-1.80823e-29
-2.44874e-29
-3.38091e-29
-4.6391e-29
-6.20442e-29
-7.98036e-29
-9.77483e-29
-1.12966e-28
-1.21785e-28
-1.20576e-28
-1.07839e-28
-8.89715e-29
-8.46415e-29
-1.3889e-28
-3.1665e-28
-6.87968e-28
-1.30167e-27
-2.08156e-27
-2.82749e-27
-3.20874e-27
-2.37644e-27
5.98754e-28
-1.15498e-30
-1.20403e-30
-1.311e-30
-1.48716e-30
-1.74771e-30
-2.10799e-30
-2.57873e-30
-3.16091e-30
-3.84145e-30
-4.5919e-30
-5.37261e-30
-6.14527e-30
-6.89561e-30
-7.66601e-30
-8.59378e-30
-9.94624e-30
-1.21383e-29
-1.57158e-29
-2.12872e-29
-2.93974e-29
-4.03441e-29
-5.39615e-29
-6.94073e-29
-8.5007e-29
-9.82223e-29
-1.05852e-28
-1.04722e-28
-9.35158e-29
-7.69901e-29
-7.34914e-29
-1.22298e-28
-2.81162e-28
-6.11723e-28
-1.1573e-27
-1.8473e-27
-2.49595e-27
-2.80598e-27
-1.98776e-27
6.96057e-28
-9.80183e-31
-1.0218e-30
-1.11257e-30
-1.26211e-30
-1.48336e-30
-1.78935e-30
-2.1892e-30
-2.6837e-30
-3.26169e-30
-3.89888e-30
-4.56145e-30
-5.2167e-30
-5.85239e-30
-6.50442e-30
-7.28951e-30
-8.43491e-30
-1.02934e-29
-1.33288e-29
-1.80584e-29
-2.49446e-29
-3.42395e-29
-4.58011e-29
-5.89121e-29
-7.21483e-29
-8.33508e-29
-8.97945e-29
-8.87713e-29
-7.91466e-29
-6.49927e-29
-6.21633e-29
-1.04779e-28
-2.42885e-28
-5.29298e-28
-1.00157e-27
-1.59637e-27
-2.14652e-27
-2.39411e-27
-1.63329e-27
6.81856e-28
-8.03932e-31
-8.38062e-31
-9.12491e-31
-1.03517e-30
-1.21674e-30
-1.4679e-30
-1.79614e-30
-2.20207e-30
-2.67648e-30
-3.19935e-30
-3.74279e-30
-4.27983e-30
-4.80029e-30
-5.3336e-30
-5.97562e-30
-6.91309e-30
-8.43591e-30
-1.09252e-29
-1.48057e-29
-2.04569e-29
-2.80855e-29
-3.75735e-29
-4.83312e-29
-5.91876e-29
-6.83681e-29
-7.36307e-29
-7.27408e-29
-6.47485e-29
-5.30091e-29
-5.07288e-29
-8.64995e-29
-2.02169e-28
-4.41376e-28
-8.35605e-28
-1.33041e-27
-1.78123e-27
-1.974e-27
-1.30558e-27
6.05453e-28
-6.26492e-31
-6.53081e-31
-7.11066e-31
-8.06686e-31
-9.48258e-31
-1.14414e-30
-1.40015e-30
-1.71676e-30
-2.08674e-30
-2.4944e-30
-2.9179e-30
-3.3361e-30
-3.74095e-30
-4.15538e-30
-4.65418e-30
-5.38318e-30
-6.56874e-30
-8.5084e-30
-1.15337e-29
-1.59407e-29
-2.18901e-29
-2.92894e-29
-3.76776e-29
-4.61401e-29
-5.32908e-29
-5.7377e-29
-5.66456e-29
-5.03378e-29
-4.10681e-29
-3.92619e-29
-6.7641e-29
-1.59402e-28
-3.48726e-28
-6.60714e-28
-1.05124e-27
-1.40218e-27
-1.54634e-27
-9.97725e-28
4.92823e-28
-4.48132e-31
-4.67146e-31
-5.08607e-31
-5.77017e-31
-6.78338e-31
-8.18558e-31
-1.00185e-30
-1.22852e-30
-1.49337e-30
-1.78512e-30
-2.08806e-30
-2.38697e-30
-2.67603e-30
-2.97161e-30
-3.32729e-30
-3.84759e-30
-4.69479e-30
-6.08214e-30
-8.24724e-30
-1.14021e-29
-1.56616e-29
-2.09592e-29
-2.69641e-29
-3.30206e-29
-3.81351e-29
-4.10494e-29
-4.05007e-29
-3.59295e-29
-2.91972e-29
-2.78383e-29
-4.83961e-29
-1.15008e-28
-2.52191e-28
-4.78333e-28
-7.6087e-28
-1.0116e-27
-1.11182e-27
-7.03819e-28
3.62739e-28
-2.69125e-31
-2.80539e-31
-3.05427e-31
-3.46515e-31
-4.07394e-31
-4.91668e-31
-6.0184e-31
-7.38095e-31
-8.97284e-31
-1.07259e-30
-1.25453e-30
-1.43391e-30
-1.60718e-30
-1.78415e-30
-1.99703e-30
-2.30874e-30
-2.81695e-30
-3.65004e-30
-4.95099e-30
-6.84733e-30
-9.40816e-30
-1.25933e-29
-1.62034e-29
-1.9844e-29
-2.29168e-29
-2.46636e-29
-2.43197e-29
-2.15372e-29
-1.74222e-29
-1.65335e-29
-2.89663e-29
-6.94386e-29
-1.5268e-28
-2.90024e-28
-4.61451e-28
-6.11875e-28
-6.71241e-28
-4.19089e-28
2.21928e-28
-8.97428e-32
-9.35445e-32
-1.01836e-31
-1.15536e-31
-1.35845e-31
-1.6397e-31
-2.00749e-31
-2.46243e-31
-2.99394e-31
-3.57916e-31
-4.18621e-31
-4.78412e-31
-5.36074e-31
-5.94857e-31
-6.65511e-31
-7.6905e-31
-9.38141e-31
-1.21573e-30
-1.64968e-30
-2.28267e-30
-3.13787e-30
-4.20188e-30
-5.40815e-30
-6.62477e-30
-7.65167e-30
-8.23474e-30
-8.1161e-30
-7.17347e-30
-5.76712e-30
-5.42259e-30
-9.55933e-30
-2.31667e-29
-5.11553e-29
-9.74537e-29
-1.55276e-28
-2.05507e-28
-2.25591e-28
-1.39669e-28
7.46849e-29
-1.1876e-20
-6.07752e-21
-3.89131e-21
-1.4698e-21
-1.78723e-21
-6.24307e-22
-3.16469e-22
-1.68115e-22
-1.04334e-22
-8.36586e-23
-3.28099e-23
-1.65137e-23
-9.33391e-24
-6.16996e-24
-4.19494e-24
-1.51319e-24
-6.64553e-25
-2.84157e-25
-8.54064e-26
4.25608e-26
1.39807e-25
1.76041e-25
1.88098e-25
1.90559e-25
1.8853e-25
)
;

boundaryField
{
    fixedWallsLeftTop
    {
        type            zeroGradient;
    }
    backFaceLeftTop
    {
        type            zeroGradient;
    }
    frontFaceLeftTop
    {
        type            zeroGradient;
    }
    symmetryWallLeftTop
    {
        type            fixedValue;
        value           uniform 0;
    }
    topToBottom
    {
        type            zeroGradient;
    }
    plug
    {
        type            cyclicAMI;
        value           nonuniform List<scalar> 
40
(
7.78114e-26
7.80367e-26
7.84221e-26
7.88836e-26
8.76775e-26
8.00509e-26
7.98755e-26
7.97715e-26
8.05031e-26
8.0564e-26
8.06303e-26
8.08601e-26
8.11662e-26
8.92915e-26
8.10916e-26
8.07717e-26
7.97077e-26
7.96305e-26
7.95616e-26
7.95009e-26
7.96046e-26
7.97856e-26
8.73874e-26
7.87298e-26
7.42815e-26
7.39393e-26
7.37666e-26
7.36064e-26
7.34587e-26
7.34721e-26
7.3569e-26
8.06555e-26
5.63691e-26
5.59715e-26
5.56603e-26
5.55078e-26
5.53893e-26
5.53026e-26
5.53177e-26
5.54106e-26
)
;
    }
    fixedWallsChannel
    {
        type            zeroGradient;
    }
    inlet
    {
        type            zeroGradient;
    }
    outlet
    {
        type            cyclicAMI;
        value           nonuniform List<scalar> 5(8.03419e-26 8.21291e-26 8.07385e-26 7.48133e-26 5.56161e-26);
    }
    backFaceInletChannel
    {
        type            zeroGradient;
    }
    frontFaceInletChannel
    {
        type            zeroGradient;
    }
}


// ************************************************************************* //
