/*--------------------------------*- C++ -*----------------------------------*\
| =========                 |                                                 |
| \\      /  F ield         | OpenFOAM: The Open Source CFD Toolbox           |
|  \\    /   O peration     | Version:  4.1                                   |
|   \\  /    A nd           | Web:      www.OpenFOAM.org                      |
|    \\/     M anipulation  |                                                 |
\*---------------------------------------------------------------------------*/
FoamFile
{
    version     2.0;
    format      ascii;
    class       surfaceScalarField;
    location    "9";
    object      phi;
}
// * * * * * * * * * * * * * * * * * * * * * * * * * * * * * * * * * * * * * //

dimensions      [0 3 -1 0 0 0 0];

internalField   nonuniform List<scalar> 
3240
(
-9.79469e-25
-9.93808e-25
1.43425e-26
-9.93801e-25
-9.93801e-25
-9.9381e-25
-1.02251e-24
2.87155e-26
-1.02249e-24
-1.02249e-24
-1.02251e-24
-1.06802e-24
4.55324e-26
-1.06798e-24
-1.06799e-24
-1.14833e-24
8.03702e-26
-1.14828e-24
-1.14828e-24
-1.1483e-24
-1.25619e-24
1.07929e-25
-1.25611e-24
-1.25614e-24
-1.41231e-24
1.56224e-25
-1.4122e-24
-1.4122e-24
-1.41224e-24
-1.61894e-24
2.06762e-25
-1.61881e-24
-1.61881e-24
-1.61885e-24
-1.89471e-24
2.75935e-25
-1.89455e-24
-1.89461e-24
-2.26803e-24
3.73517e-25
-2.26784e-24
-2.26784e-24
-2.2679e-24
-2.76825e-24
5.00456e-25
-2.76802e-24
-2.7681e-24
-3.43668e-24
6.6871e-25
-3.43641e-24
-3.43642e-24
-3.2104e-24
-2.98155e-24
-2.75229e-24
-2.44316e-24
-1.72411e-24
-6.03075e-25
-1.43086e-24
-1.19831e-24
-9.67343e-25
-7.90774e-25
-6.13983e-25
-4.3886e-25
-2.62287e-25
-9.09891e-27
5.32037e-25
-5.11516e-25
7.73567e-25
9.52009e-25
1.06614e-24
1.1822e-24
1.29886e-24
1.415e-24
1.53347e-24
1.72417e-24
2.18997e-24
-5.30779e-25
2.37398e-24
2.36673e-24
2.35887e-24
2.35338e-24
2.34919e-24
2.34522e-24
2.34387e-24
2.40688e-24
2.7326e-24
-5.69246e-25
2.30916e-24
1.83206e-24
1.35494e-24
8.7985e-25
4.05403e-25
-6.95122e-26
-5.44605e-25
-9.95764e-25
-8.76756e-25
-1.1976e-25
-7.55361e-25
-1.21123e-25
-7.55228e-25
-6.50584e-25
-1.04584e-25
-6.50476e-25
-5.53683e-25
-9.67729e-26
-4.86253e-25
-6.72795e-26
-4.86182e-25
-4.1988e-25
-6.62887e-26
-3.76528e-25
-4.32478e-26
-3.76477e-25
-3.31795e-25
-4.46587e-26
-3.3175e-25
-2.86515e-25
-4.52269e-26
-2.56026e-25
-3.04227e-26
-2.55986e-25
-2.24275e-25
-3.16982e-26
-2.24236e-25
-1.93386e-25
-3.08446e-26
-1.70006e-25
-2.33276e-26
-1.69964e-25
-1.47175e-25
-2.27854e-26
-1.28841e-25
-1.82829e-26
-1.28794e-25
-1.10707e-25
-1.80833e-26
-1.10657e-25
-9.49889e-26
-1.5666e-26
-8.02846e-26
-1.46493e-26
-8.0229e-26
-6.64712e-26
-1.3756e-26
-6.64129e-26
-5.52314e-26
-1.11806e-26
-4.32059e-26
-1.19654e-26
-4.31436e-26
-3.24943e-26
-1.06488e-26
-2.15703e-26
-1.08616e-26
-2.15057e-26
-1.04449e-26
-1.10603e-26
-1.03797e-26
-1.03795e-26
9.72944e-30
-9.72944e-30
1.98308e-29
-1.01074e-29
3.07018e-29
-1.08761e-29
4.27642e-29
-1.20644e-29
5.64847e-29
-1.37176e-29
7.23922e-29
-1.58984e-29
9.10972e-29
-1.8689e-29
1.13314e-28
-2.21953e-29
1.39887e-28
-2.65506e-29
1.71827e-28
-3.19218e-29
2.10347e-28
-3.85168e-29
2.56916e-28
-4.65934e-29
3.13324e-28
-5.64699e-29
3.81756e-28
-6.85377e-29
4.64885e-28
-8.32753e-29
5.65984e-28
-1.01264e-28
6.89046e-28
-1.23204e-28
8.3893e-28
-1.49935e-28
1.02151e-27
-1.82456e-28
1.24386e-27
-2.21955e-28
1.51442e-27
-2.69842e-28
1.84326e-27
-3.27795e-28
2.24233e-27
-3.97824e-28
2.72584e-27
-4.82346e-28
3.31068e-27
-5.84262e-28
4.01702e-27
-7.06992e-28
4.86882e-27
-8.54409e-28
5.89417e-27
-1.0305e-27
7.1249e-27
-1.23856e-27
8.59441e-27
-1.47934e-27
1.03317e-26
-1.74739e-27
1.23484e-26
-2.02398e-27
1.46119e-26
-2.26417e-27
1.69972e-26
-2.37509e-27
1.92061e-26
-2.18474e-27
2.06585e-26
-1.4134e-27
2.04129e-26
2.97471e-28
1.72951e-26
3.17813e-27
6.97912e-27
9.71951e-30
-1.94541e-29
1.98109e-29
-2.02067e-29
3.06711e-29
-2.17381e-29
4.27213e-29
-2.41072e-29
5.64278e-29
-2.74056e-29
7.23191e-29
-3.17598e-29
9.10051e-29
-3.73373e-29
1.13199e-28
-4.43519e-29
1.39746e-28
-5.30732e-29
1.71654e-28
-6.38366e-29
2.10135e-28
-7.70566e-29
2.56657e-28
-9.32434e-29
3.13007e-28
-1.13023e-28
3.81368e-28
-1.37162e-28
4.6441e-28
-1.66595e-28
5.65404e-28
-2.02461e-28
6.88339e-28
-2.46145e-28
8.3807e-28
-2.99322e-28
1.02047e-27
-3.64018e-28
1.24259e-27
-4.42674e-28
1.51289e-27
-5.38227e-28
1.84142e-27
-6.54195e-28
2.24013e-27
-7.94783e-28
2.72319e-27
-9.64984e-28
3.30751e-27
-1.17065e-27
4.01323e-27
-1.41846e-27
4.86433e-27
-1.71574e-27
5.88894e-27
-2.06972e-27
7.119e-27
-2.48597e-27
8.58818e-27
-2.96499e-27
1.0326e-26
-3.49528e-27
1.23452e-26
-4.03975e-27
1.4615e-26
-4.51047e-27
1.70136e-26
-4.72514e-27
1.92468e-26
-4.34342e-27
2.07373e-26
-2.80713e-27
2.05383e-26
6.08788e-28
1.74557e-26
6.38276e-27
1.34813e-26
9.68942e-30
-2.91485e-29
1.97496e-29
-3.02746e-29
3.05764e-29
-3.25665e-29
4.25894e-29
-3.61134e-29
5.62536e-29
-4.10524e-29
7.2096e-29
-4.75741e-29
9.07245e-29
-5.593e-29
1.12851e-28
-6.64422e-29
1.39316e-28
-7.95153e-29
1.71125e-28
-9.56523e-29
2.09487e-28
-1.15474e-28
2.55866e-28
-1.39742e-28
3.12041e-28
-1.69391e-28
3.8019e-28
-2.0556e-28
4.62976e-28
-2.49643e-28
5.63657e-28
-3.03337e-28
6.86212e-28
-3.68709e-28
8.35482e-28
-4.48271e-28
1.01732e-27
-5.45071e-28
1.23877e-27
-6.62798e-28
1.50826e-27
-8.059e-28
1.8358e-27
-9.79721e-28
2.23332e-27
-1.19064e-27
2.71496e-27
-1.4462e-27
3.2976e-27
-1.7552e-27
4.00134e-27
-2.12761e-27
4.85017e-27
-2.57422e-27
5.87229e-27
-3.10563e-27
7.09984e-27
-3.72991e-27
8.56697e-27
-4.44769e-27
1.03043e-26
-5.24205e-27
1.23263e-26
-6.05865e-27
1.46064e-26
-6.76827e-27
1.70288e-26
-7.10168e-27
1.93082e-26
-6.55244e-27
2.0874e-26
-4.28169e-27
2.07692e-26
8.18747e-28
1.77396e-26
9.52708e-27
2.04603e-26
9.6444e-30
-3.87978e-29
1.9658e-29
-4.02955e-29
3.04345e-29
-4.33447e-29
4.23918e-29
-4.80642e-29
5.59928e-29
-5.46366e-29
7.17618e-29
-6.33162e-29
9.0304e-29
-7.4438e-29
1.12328e-28
-8.84314e-29
1.3867e-28
-1.05836e-28
1.70332e-28
-1.2732e-28
2.08517e-28
-1.53711e-28
2.5468e-28
-1.8602e-28
3.10595e-28
-2.25489e-28
3.78427e-28
-2.73631e-28
4.60828e-28
-3.32297e-28
5.61042e-28
-4.03739e-28
6.8303e-28
-4.90708e-28
8.3161e-28
-5.96548e-28
1.01261e-27
-7.25325e-28
1.23305e-27
-8.81966e-28
1.5013e-27
-1.07242e-27
1.82736e-27
-1.30385e-27
2.2231e-27
-1.58477e-27
2.7026e-27
-1.92529e-27
3.2827e-27
-2.33711e-27
3.98348e-27
-2.83352e-27
4.82891e-27
-3.42885e-27
5.84732e-27
-4.13718e-27
7.07113e-27
-4.96935e-27
8.53519e-27
-5.92658e-27
1.02716e-26
-6.98742e-27
1.2298e-26
-8.0818e-27
1.45931e-26
-9.04189e-27
1.70508e-26
-9.51537e-27
1.93991e-26
-8.83342e-27
2.1078e-26
-5.87387e-27
2.11176e-26
8.78613e-28
1.81769e-26
1.25763e-26
2.80829e-26
9.58452e-30
-4.8387e-29
1.9536e-29
-5.02541e-29
3.02457e-29
-5.40561e-29
4.21289e-29
-5.99412e-29
5.56456e-29
-6.81372e-29
7.13169e-29
-7.89614e-29
8.97443e-29
-9.28322e-29
1.11631e-28
-1.10285e-28
1.37811e-28
-1.31993e-28
1.69277e-28
-1.58791e-28
2.07224e-28
-1.91709e-28
2.53101e-28
-2.32008e-28
3.08669e-28
-2.81234e-28
3.7608e-28
-3.41274e-28
4.5797e-28
-4.14431e-28
5.57563e-28
-5.03515e-28
6.78796e-28
-6.11953e-28
8.26459e-28
-7.43919e-28
1.00635e-27
-9.04489e-28
1.22543e-27
-1.09982e-27
1.49205e-27
-1.33736e-27
1.81613e-27
-1.62605e-27
2.20948e-27
-1.97657e-27
2.68613e-27
-2.40153e-27
3.26284e-27
-2.91557e-27
3.95966e-27
-3.53529e-27
4.80058e-27
-4.27863e-27
5.81403e-27
-5.1633e-27
7.03284e-27
-6.2032e-27
8.49276e-27
-7.40071e-27
1.02278e-26
-8.73094e-27
1.22596e-26
-1.01101e-26
1.45742e-26
-1.13353e-26
1.70781e-26
-1.19764e-26
1.95174e-26
-1.12077e-26
2.13481e-26
-7.62121e-27
2.15855e-26
7.35861e-28
1.87971e-26
1.54682e-26
3.50032e-26
9.50988e-30
-5.79015e-29
1.93839e-29
-6.01351e-29
3.00103e-29
-6.46841e-29
4.18011e-29
-7.17258e-29
5.52126e-29
-8.1533e-29
7.07621e-29
-9.44854e-29
8.90462e-29
-1.11084e-28
1.10763e-28
-1.3197e-28
1.36739e-28
-1.57948e-28
1.6796e-28
-1.90017e-28
2.05612e-28
-2.2941e-28
2.51132e-28
-2.77636e-28
3.06267e-28
-3.36543e-28
3.73154e-28
-4.08387e-28
4.54407e-28
-4.95924e-28
5.53226e-28
-6.02514e-28
6.73517e-28
-7.32258e-28
8.20036e-28
-8.90154e-28
9.98533e-28
-1.08228e-27
1.21593e-27
-1.31602e-27
1.4805e-27
-1.60029e-27
1.80211e-27
-1.94583e-27
2.19248e-27
-2.36542e-27
2.66557e-27
-2.8742e-27
3.23806e-27
-3.48975e-27
3.92993e-27
-4.23198e-27
4.76519e-27
-5.12251e-27
5.77243e-27
-6.18285e-27
6.98494e-27
-7.43027e-27
8.43955e-27
-8.869e-27
1.01727e-26
-1.0472e-26
1.22106e-26
-1.21443e-26
1.45485e-26
-1.36522e-26
1.71088e-26
-1.44946e-26
1.96609e-26
-1.36964e-26
2.16824e-26
-9.56223e-27
2.21748e-26
3.33806e-28
1.95785e-26
1.81633e-26
4.34828e-26
9.42058e-30
-6.73266e-29
1.9202e-29
-6.99234e-29
2.97286e-29
-7.52124e-29
4.14088e-29
-8.34e-29
5.46945e-29
-9.48033e-29
7.00981e-29
-1.09864e-28
8.82107e-29
-1.29165e-28
1.09724e-28
-1.53451e-28
1.35456e-28
-1.83659e-28
1.66384e-28
-2.2095e-28
2.03683e-28
-2.66757e-28
2.48776e-28
-3.22835e-28
3.03393e-28
-3.91331e-28
3.69653e-28
-4.74869e-28
4.50143e-28
-5.7665e-28
5.48036e-28
-7.00583e-28
6.67202e-28
-8.51437e-28
8.12351e-28
-1.03503e-27
9.89183e-28
-1.25842e-27
1.20456e-27
-1.53022e-27
1.46668e-27
-1.86081e-27
1.78532e-27
-2.26267e-27
2.17213e-27
-2.75074e-27
2.64095e-27
-3.34262e-27
3.20837e-27
-4.05883e-27
3.89431e-27
-4.92264e-27
4.72278e-27
-5.95941e-27
5.72254e-27
-7.19461e-27
6.92739e-27
-8.64927e-27
8.37543e-27
-1.03302e-26
1.01058e-26
-1.22097e-26
1.21502e-26
-1.41845e-26
1.45148e-26
-1.59954e-26
1.71408e-26
-1.70787e-26
1.98263e-26
-1.63197e-26
2.20782e-26
-1.17363e-26
2.28879e-26
-3.89753e-28
2.05912e-26
2.05546e-26
5.0391e-26
9.31676e-30
-7.66478e-29
1.89904e-29
-7.96037e-29
2.94011e-29
-8.56247e-29
4.09526e-29
-9.49455e-29
5.40921e-29
-1.07927e-28
6.93261e-29
-1.25073e-28
8.72393e-29
-1.47046e-28
1.08516e-28
-1.74696e-28
1.33965e-28
-2.09087e-28
1.64552e-28
-2.51543e-28
2.0144e-28
-3.03693e-28
2.46036e-28
-3.67536e-28
3.00052e-28
-4.45516e-28
3.65581e-28
-5.40617e-28
4.45186e-28
-6.56487e-28
5.42002e-28
-7.97573e-28
6.59858e-28
-9.69307e-28
8.03415e-28
-1.17831e-27
9.78311e-28
-1.43264e-27
1.19133e-27
-1.74209e-27
1.4506e-27
-2.11849e-27
1.7658e-27
-2.5761e-27
2.14845e-27
-3.13192e-27
2.6123e-27
-3.80607e-27
3.17381e-27
-4.62197e-27
3.85284e-27
-5.60628e-27
4.67337e-27
-6.78819e-27
5.66435e-27
-8.1973e-27
6.86016e-27
-9.85881e-27
8.30025e-27
-1.1783e-26
1.00268e-26
-1.39431e-26
1.20778e-26
-1.62308e-26
1.44715e-26
-1.83674e-26
1.71712e-26
-1.97368e-26
2.00096e-26
-1.90973e-26
2.25321e-26
-1.41834e-26
2.37257e-26
-1.50154e-27
2.17846e-26
2.25859e-26
5.75882e-26
9.19858e-30
-8.58507e-29
1.87496e-29
-8.91613e-29
2.90283e-29
-9.59049e-29
4.04334e-29
-1.06345e-28
5.34062e-29
-1.20885e-28
6.84472e-29
-1.4009e-28
8.61333e-29
-1.64702e-28
1.0714e-28
-1.95671e-28
1.32266e-28
-2.34193e-28
1.62466e-28
-2.81747e-28
1.98886e-28
-3.40161e-28
2.42917e-28
-4.1167e-28
2.96248e-28
-4.99013e-28
3.60947e-28
-6.05532e-28
4.39543e-28
-7.35312e-28
5.35132e-28
-8.93335e-28
6.51498e-28
-1.08569e-27
7.93242e-28
-1.31978e-27
9.65933e-28
-1.60466e-27
1.17628e-27
-1.9513e-27
1.4323e-27
-2.37296e-27
1.74357e-27
-2.88563e-27
2.12148e-27
-3.5084e-27
2.57966e-27
-4.26385e-27
3.13444e-27
-5.17835e-27
3.80556e-27
-6.28194e-27
4.61701e-27
-7.60772e-27
5.59789e-27
-9.18963e-27
6.78319e-27
-1.10574e-26
8.21385e-27
-1.32258e-26
9.93527e-27
-1.56707e-26
1.19923e-26
-1.82825e-26
1.44167e-26
-2.07696e-26
1.71968e-26
-2.24753e-26
2.02062e-26
-2.20469e-26
2.30394e-26
-1.69439e-26
2.46892e-26
-3.0742e-27
2.31847e-26
2.41761e-26
6.51597e-26
9.06622e-30
-9.49212e-29
1.84798e-29
-9.85813e-29
2.86107e-29
-1.06037e-28
3.98517e-29
-1.1758e-28
5.26381e-29
-1.33657e-28
6.74627e-29
-1.5489e-28
8.48945e-29
-1.82103e-28
1.05599e-28
-2.16345e-28
1.30364e-28
-2.58938e-28
1.6013e-28
-3.11518e-28
1.96026e-28
-3.76104e-28
2.39423e-28
-4.55169e-28
2.91987e-28
-5.5174e-28
3.55755e-28
-6.69514e-28
4.33222e-28
-8.13004e-28
5.27438e-28
-9.87721e-28
6.42134e-28
-1.20039e-27
7.81846e-28
-1.45923e-27
9.52068e-28
-1.77422e-27
1.15941e-27
-2.15752e-27
1.41179e-27
-2.6238e-27
1.71866e-27
-3.19078e-27
2.09127e-27
-3.87959e-27
2.54308e-27
-4.71529e-27
3.0903e-27
-5.72714e-27
3.75253e-27
-6.94863e-27
4.55373e-27
-8.41683e-27
5.52318e-27
-1.01702e-26
6.69646e-27
-1.22436e-26
8.11605e-27
-1.46569e-26
9.8308e-27
-1.7391e-26
1.18929e-26
-2.03384e-26
1.43485e-26
-2.32026e-26
1.72139e-26
-2.52993e-26
2.04104e-26
-2.51849e-26
2.35942e-26
-2.0058e-26
2.57792e-26
-5.18716e-27
2.4824e-26
2.52125e-26
7.19392e-26
8.91989e-30
-1.03845e-28
1.81816e-29
-1.07849e-28
2.8149e-29
-1.16006e-28
3.92087e-29
-1.28634e-28
5.17887e-29
-1.46222e-28
6.63742e-29
-1.69452e-28
8.35248e-29
-1.99223e-28
1.03895e-28
-2.36686e-28
1.28261e-28
-2.83283e-28
1.57546e-28
-3.40808e-28
1.92863e-28
-4.11467e-28
2.3556e-28
-4.97967e-28
2.87276e-28
-6.03618e-28
3.50016e-28
-7.32464e-28
4.26233e-28
-8.89443e-28
5.18931e-28
-1.08059e-27
6.3178e-28
-1.31326e-27
7.69247e-28
-1.59644e-27
9.36736e-28
-1.94106e-27
1.14076e-27
-2.36044e-27
1.38911e-27
-2.87065e-27
1.6911e-27
-3.49109e-27
2.05784e-27
-4.24493e-27
2.50261e-27
-5.15969e-27
3.04144e-27
-6.26752e-27
3.6938e-27
-7.60537e-27
4.48359e-27
-9.21435e-27
5.44024e-27
-1.11377e-26
6.59993e-27
-1.34158e-26
8.00669e-27
-1.60746e-26
9.7129e-27
-1.9102e-26
1.17783e-26
-2.23969e-26
1.42647e-26
-2.56658e-26
1.72185e-26
-2.82119e-26
2.06155e-26
-2.85247e-26
2.41891e-26
-2.35651e-26
2.69952e-26
-7.92681e-27
2.6693e-26
2.55913e-26
8.03721e-26
8.75981e-30
-1.12609e-28
1.78553e-29
-1.16951e-28
2.76439e-29
-1.25796e-28
3.85051e-29
-1.39489e-28
5.08595e-29
-1.58562e-28
6.51833e-29
-1.83753e-28
8.20263e-29
-2.16037e-28
1.02032e-28
-2.56661e-28
1.2596e-28
-3.07192e-28
1.5472e-28
-3.69572e-28
1.89403e-28
-4.46196e-28
2.31334e-28
-5.39997e-28
2.82122e-28
-6.54565e-28
3.43737e-28
-7.94285e-28
4.18587e-28
-9.64513e-28
5.09624e-28
-1.17179e-27
6.20453e-28
-1.4241e-27
7.55461e-28
-1.73119e-27
9.19961e-28
-2.10493e-27
1.12035e-27
-2.55974e-27
1.36429e-27
-3.11311e-27
1.66095e-27
-3.78609e-27
2.02125e-27
-4.60387e-27
2.4583e-27
-5.59637e-27
2.98792e-27
-6.79867e-27
3.62944e-27
-8.25116e-27
4.40666e-27
-9.99911e-27
5.34912e-27
-1.20907e-26
6.49357e-27
-1.45722e-26
7.88559e-27
-1.7477e-26
9.58111e-27
-2.08015e-26
1.16475e-26
-2.44557e-26
1.41628e-26
-2.81573e-26
1.7206e-26
-3.1214e-26
2.08139e-26
-3.2077e-26
2.48146e-26
-2.75027e-26
2.83359e-26
-1.13877e-26
2.88841e-26
2.5115e-26
8.64821e-26
8.58622e-30
-1.212e-28
1.75015e-29
-1.25872e-28
2.70961e-29
-1.35392e-28
3.77422e-29
-1.5013e-28
4.98518e-29
-1.70657e-28
6.3892e-29
-1.9777e-28
8.04013e-29
-2.32517e-28
1.0001e-28
-2.76241e-28
1.23465e-28
-3.30627e-28
1.51655e-28
-3.97767e-28
1.85651e-28
-4.80237e-28
2.26751e-28
-5.81195e-28
2.76533e-28
-7.04503e-28
3.36927e-28
-8.54883e-28
4.10296e-28
-1.0381e-27
4.99532e-28
-1.26119e-27
6.0817e-28
-1.53275e-27
7.40512e-28
-1.86328e-27
9.01768e-28
-2.26556e-27
1.09822e-27
-2.75513e-27
1.33737e-27
-3.35082e-27
1.62824e-27
-4.07533e-27
1.98155e-27
-4.95585e-27
2.4102e-27
-6.02468e-27
2.92982e-27
-7.31978e-27
3.55952e-27
-8.88503e-27
4.32299e-27
-1.07699e-26
5.24986e-27
-1.30277e-26
6.37738e-27
-1.57112e-26
7.75261e-27
-1.88618e-26
9.43495e-27
-2.24871e-26
1.14995e-26
-2.65117e-26
1.40406e-26
-3.06741e-26
1.71715e-26
-3.43042e-26
2.09969e-26
-3.58487e-26
2.54593e-26
-3.19057e-26
2.9796e-26
-1.56705e-26
3.13386e-26
2.36398e-26
9.44845e-26
8.3994e-30
-1.29603e-28
1.71207e-29
-1.346e-28
2.65066e-29
-1.44779e-28
3.69211e-29
-1.60539e-28
4.87673e-29
-1.8249e-28
6.25021e-29
-2.11482e-28
7.86524e-29
-2.48639e-28
9.78349e-29
-2.95395e-28
1.20779e-28
-3.53553e-28
1.48356e-28
-4.25349e-28
1.81613e-28
-5.13538e-28
2.21819e-28
-6.21496e-28
2.70518e-28
-7.53356e-28
3.29599e-28
-9.14163e-28
4.01372e-28
-1.11008e-27
4.88669e-28
-1.34864e-27
5.94948e-28
-1.63904e-27
7.2442e-28
-1.9925e-27
8.82185e-28
-2.42271e-27
1.07439e-27
-2.94629e-27
1.30839e-27
-3.58341e-27
1.59302e-27
-4.35837e-27
1.93879e-27
-5.30032e-27
2.3584e-27
-6.44394e-27
2.86721e-27
-7.83005e-27
3.48413e-27
-9.50601e-27
4.23268e-27
-1.15256e-26
5.14252e-27
-1.39474e-26
6.25136e-27
-1.6831e-26
7.6076e-27
-2.0227e-26
9.27396e-27
-2.41559e-26
1.1333e-26
-2.85615e-26
1.38954e-26
-3.32117e-26
1.71097e-26
-3.74782e-26
2.11546e-26
-3.98419e-26
2.61087e-26
-3.68045e-26
3.13684e-26
-2.08833e-26
3.41722e-26
2.08994e-26
9.779e-26
8.19962e-30
-1.37806e-28
1.67135e-29
-1.43119e-28
2.58762e-29
-1.53943e-28
3.60431e-29
-1.707e-28
4.76076e-29
-1.94041e-28
6.10158e-29
-2.24868e-28
7.67821e-29
-2.64377e-28
9.55086e-29
-3.14093e-28
1.17907e-28
-3.75933e-28
1.44828e-28
-4.52275e-28
1.77295e-28
-5.46047e-28
2.16544e-28
-6.6084e-28
2.64086e-28
-8.01047e-28
3.21762e-28
-9.72034e-28
3.9183e-28
-1.18036e-27
4.77053e-28
-1.43402e-27
5.8081e-28
-1.74281e-27
7.07212e-28
-2.11867e-27
8.61242e-28
-2.57614e-27
1.0489e-27
-3.13293e-27
1.2774e-27
-3.81051e-27
1.55534e-27
-4.63477e-27
1.89305e-27
-5.63677e-27
2.30295e-27
-6.85352e-27
2.80017e-27
-8.32869e-27
3.40335e-27
-1.01131e-26
4.13581e-27
-1.22649e-26
5.02717e-27
-1.48482e-26
6.11552e-27
-1.79298e-26
7.45045e-27
-2.15702e-26
9.09774e-27
-2.58047e-26
1.1147e-26
-3.06006e-26
1.37247e-26
-3.57641e-26
1.70152e-26
-4.07288e-26
2.12762e-26
-4.40533e-26
2.67456e-26
-4.2223e-26
3.30398e-26
-2.71377e-26
3.72476e-26
1.67516e-26
1.03293e-25
7.98721e-30
-1.45797e-28
1.62806e-29
-1.51418e-28
2.52059e-29
-1.6287e-28
3.51095e-29
-1.80599e-28
4.63745e-29
-2.05292e-28
5.94354e-29
-2.37908e-28
7.47934e-29
-2.79708e-28
9.30349e-29
-3.32307e-28
1.14854e-28
-3.97734e-28
1.41077e-28
-4.78504e-28
1.72703e-28
-5.77715e-28
2.10936e-28
-6.99166e-28
2.57246e-28
-8.47504e-28
3.13429e-28
-1.02841e-27
3.81683e-28
-1.24881e-27
4.64702e-28
-1.51719e-27
5.65776e-28
-1.8439e-27
6.88913e-28
-2.24157e-27
8.3897e-28
-2.72561e-27
1.0218e-27
-3.31477e-27
1.24443e-27
-4.03179e-27
1.51526e-27
-4.9041e-27
1.84438e-27
-5.96466e-27
2.24395e-27
-7.25278e-27
2.7288e-27
-8.81493e-27
3.31727e-27
-1.07054e-26
4.03247e-27
-1.29868e-26
4.90391e-27
-1.57287e-26
5.9699e-27
-1.90056e-26
7.28107e-27
-2.28889e-26
8.90591e-27
-2.74304e-26
1.09405e-26
-3.26243e-26
1.35261e-26
-3.83241e-26
1.68822e-26
-4.40457e-26
2.13494e-26
-4.84735e-26
2.73491e-26
-4.81762e-26
3.47954e-26
-3.45518e-26
4.07091e-26
1.08955e-26
1.13507e-25
7.76248e-30
-1.53564e-28
1.58225e-29
-1.59484e-28
2.44968e-29
-1.71545e-28
3.41217e-29
-1.90218e-28
4.50699e-29
-2.16227e-28
5.77634e-29
-2.5058e-28
7.26895e-29
-2.94607e-28
9.04179e-29
-3.50009e-28
1.11623e-28
-4.18922e-28
1.37109e-28
-5.03995e-28
1.67845e-28
-6.08492e-28
2.05003e-28
-7.36414e-28
2.5001e-28
-8.92655e-28
3.04613e-28
-1.0832e-27
3.70948e-28
-1.31535e-27
4.51633e-28
-1.59803e-27
5.49869e-28
-1.94215e-27
6.69551e-28
-2.36102e-27
8.15403e-28
-2.87089e-27
9.93119e-28
-3.49152e-27
1.20953e-27
-4.24689e-27
1.47283e-27
-5.16594e-27
1.79285e-27
-6.28348e-27
2.18146e-27
-7.64108e-27
2.65317e-27
-9.28799e-27
3.22602e-27
-1.1282e-26
3.9228e-27
-1.36899e-26
4.77283e-27
-1.65874e-26
5.81457e-27
-2.00566e-26
7.09941e-27
-2.41806e-26
8.69815e-27
-2.9029e-26
1.07125e-26
-3.46269e-26
1.32973e-26
-4.08828e-26
1.67052e-26
-4.74151e-26
2.13614e-26
-5.30853e-26
2.78942e-26
-5.46672e-26
3.66133e-26
-4.32466e-26
4.48132e-26
2.75217e-27
1.13005e-25
7.52578e-30
-1.61093e-28
1.534e-29
-1.67304e-28
2.37499e-29
-1.79956e-28
3.30814e-29
-1.99545e-28
4.36958e-29
-2.26829e-28
5.60023e-29
-2.62866e-28
7.04734e-29
-3.09052e-28
8.76613e-29
-3.67171e-28
1.0822e-28
-4.39463e-28
1.32929e-28
-5.28709e-28
1.62728e-28
-6.3833e-28
1.98753e-28
-7.72526e-28
2.42388e-28
-9.3643e-28
2.95327e-28
-1.13632e-27
3.5964e-28
-1.37985e-27
4.37868e-28
-1.6764e-27
5.33114e-28
-2.03741e-27
6.49156e-28
-2.47684e-27
7.90578e-28
-3.01176e-27
9.62904e-28
-3.66291e-27
1.17277e-27
-4.45548e-27
1.42813e-27
-5.41989e-27
1.73855e-27
-6.59275e-27
2.11558e-27
-8.01783e-27
2.57341e-27
-9.74713e-27
3.1297e-27
-1.18419e-26
3.8069e-27
-1.43733e-26
4.63406e-27
-1.74228e-26
5.64961e-27
-2.10808e-26
6.90547e-27
-2.54426e-26
8.47424e-27
-3.0597e-26
1.04622e-26
-3.66025e-26
1.3036e-26
-4.34303e-26
1.64784e-26
-5.08199e-26
2.12981e-26
-5.78637e-26
2.83511e-26
-6.16832e-26
3.84534e-26
-5.33323e-26
4.92229e-26
-7.96035e-27
1.17449e-25
7.27748e-30
-1.68374e-28
1.48339e-29
-1.74865e-28
2.29663e-29
-1.8809e-28
3.199e-29
-2.08563e-28
4.22542e-29
-2.37081e-28
5.41549e-29
-2.74747e-28
6.81486e-29
-3.23021e-28
8.47696e-29
-3.83767e-28
1.0465e-28
-4.59328e-28
1.28544e-28
-5.52608e-28
1.5736e-28
-6.67185e-28
1.92197e-28
-8.07448e-28
2.34393e-28
-9.78762e-28
2.85585e-28
-1.18769e-27
3.47779e-28
-1.44223e-27
4.23428e-28
-1.75219e-27
5.15536e-28
-2.12953e-27
6.2776e-28
-2.58885e-27
7.64532e-28
-3.148e-27
9.31201e-28
-3.82868e-27
1.13419e-27
-4.65724e-27
1.38122e-27
-5.66554e-27
1.68155e-27
-6.89196e-27
2.04641e-27
-8.38242e-27
2.48962e-27
-1.01916e-26
3.02845e-27
-1.23841e-26
3.68492e-27
-1.50356e-26
4.48774e-27
-1.82334e-26
5.47514e-27
-2.20763e-26
6.6993e-27
-2.66721e-26
8.23402e-27
-3.21301e-26
1.01891e-26
-3.85446e-26
1.27404e-26
-4.5955e-26
1.61966e-26
-5.42395e-26
2.11454e-26
-6.27741e-26
2.86853e-26
-6.91911e-26
4.02684e-26
-6.49068e-26
5.42389e-26
-2.18711e-26
1.28285e-25
7.01795e-30
-1.75395e-28
1.4305e-29
-1.82157e-28
2.21474e-29
-1.95933e-28
3.08493e-29
-2.1726e-28
4.07476e-29
-2.46967e-28
5.22239e-29
-2.86204e-28
6.57187e-29
-3.36491e-28
8.17472e-29
-3.99771e-28
1.00919e-28
-4.78484e-28
1.23961e-28
-5.75654e-28
1.51749e-28
-6.95011e-28
1.85344e-28
-8.41125e-28
2.26036e-28
-1.01958e-27
2.75403e-28
-1.23722e-27
3.3538e-28
-1.50239e-27
4.08335e-28
-1.82528e-27
4.97163e-28
-2.21837e-27
6.05394e-28
-2.69688e-27
7.37305e-28
-3.2794e-27
8.98059e-28
-3.98856e-27
1.09386e-27
-4.85185e-27
1.33216e-27
-5.90253e-27
1.62193e-27
-7.18066e-27
1.97404e-27
-8.73428e-27
2.40192e-27
-1.06207e-26
2.92239e-27
-1.29079e-26
3.557e-27
-1.56758e-26
4.33402e-27
-1.90178e-26
5.29131e-27
-2.30412e-26
6.48098e-27
-2.78664e-26
7.97743e-27
-3.36242e-26
9.8927e-27
-4.04463e-26
1.2409e-26
-4.84448e-26
1.58553e-26
-5.76503e-26
2.08888e-26
-6.77727e-26
2.88568e-26
-7.71319e-26
4.19901e-26
-7.8039e-26
6.02443e-26
-4.00604e-26
1.22065e-25
6.74761e-30
-1.82146e-28
1.37539e-29
-1.89168e-28
2.12943e-29
-2.03474e-28
2.9661e-29
-2.25623e-28
3.91781e-29
-2.56473e-28
5.02124e-29
-2.9722e-28
6.31875e-29
-3.49443e-28
7.85987e-29
-4.15159e-28
9.70319e-29
-4.96902e-28
1.19187e-28
-5.97814e-28
1.45905e-28
-7.21766e-28
1.78206e-28
-8.73505e-28
2.1733e-28
-1.05884e-27
2.64797e-28
-1.28485e-27
3.22464e-28
-1.56023e-27
3.92611e-28
-1.89556e-27
4.78022e-28
-2.30379e-27
5.82093e-28
-2.80075e-27
7.08938e-28
-3.40574e-27
8.63527e-28
-4.14231e-27
1.05183e-27
-5.03901e-27
1.28104e-27
-6.13047e-27
1.55978e-27
-7.45838e-27
1.89859e-27
-9.07284e-27
2.31044e-27
-1.10337e-26
2.81167e-27
-1.34122e-26
3.42332e-27
-1.62928e-26
4.17309e-27
-1.97745e-26
5.0983e-27
-2.39733e-26
6.25067e-27
-2.90228e-26
7.70455e-27
-3.50751e-26
9.57276e-27
-4.23004e-26
1.20408e-26
-5.08862e-26
1.54504e-26
-6.10257e-26
2.05145e-26
-7.28052e-26
2.88206e-26
-8.54158e-26
4.35096e-26
-9.27344e-26
6.67289e-26
-6.32065e-26
1.21295e-25
6.46687e-30
-1.88616e-28
1.31817e-29
-1.95888e-28
2.04083e-29
-2.10702e-28
2.8427e-29
-2.33637e-28
3.75482e-29
-2.65583e-28
4.81235e-29
-3.07778e-28
6.05589e-29
-3.61856e-28
7.5329e-29
-4.29907e-28
9.29954e-29
-5.14554e-28
1.14229e-28
-6.19051e-28
1.39835e-28
-7.47408e-28
1.70792e-28
-9.04539e-28
2.0829e-28
-1.09646e-27
2.53782e-28
-1.33051e-27
3.09051e-28
-1.61567e-27
3.76282e-28
-1.96292e-27
4.58144e-28
-2.38566e-27
5.57893e-28
-2.9003e-27
6.79475e-28
-3.52685e-27
8.27658e-28
-4.28968e-27
1.00818e-27
-5.21843e-27
1.22792e-27
-6.349e-27
1.4952e-27
-7.72469e-27
1.82015e-27
-9.39756e-27
2.2153e-27
-1.143e-26
2.69645e-27
-1.38964e-26
3.28405e-27
-1.68854e-26
4.00513e-27
-2.05021e-26
4.89631e-27
-2.48709e-26
6.00858e-27
-3.01384e-26
7.41554e-27
-3.64784e-26
9.22933e-27
-4.40996e-26
1.16352e-26
-5.32656e-26
1.49792e-26
-6.4337e-26
2.00101e-26
-7.78081e-26
2.85281e-26
-9.39163e-26
4.46913e-26
-1.08911e-25
7.41079e-26
-9.25375e-26
9.83836e-26
6.17615e-30
-1.94795e-28
1.25891e-29
-2.02305e-28
1.94909e-29
-2.17604e-28
2.71492e-29
-2.41291e-28
3.58603e-29
-2.74283e-28
4.59604e-29
-3.17861e-28
5.78368e-29
-3.73711e-28
7.19431e-29
-4.43991e-28
8.88155e-29
-5.31412e-28
1.09094e-28
-6.39335e-28
1.3355e-28
-7.71898e-28
1.63116e-28
-9.34178e-28
1.98927e-28
-1.13238e-27
2.42375e-28
-1.3741e-27
2.95161e-28
-1.66861e-27
3.59372e-28
-2.02725e-27
4.37558e-28
-2.46386e-27
5.32831e-28
-2.99539e-27
6.48962e-28
-3.64252e-27
7.90508e-28
-4.43046e-27
9.62953e-28
-5.38983e-27
1.17289e-27
-6.55778e-27
1.42829e-27
-7.97915e-27
1.73885e-27
-9.70791e-27
2.11664e-27
-1.18088e-26
2.57689e-27
-1.43595e-26
3.13938e-27
-1.74526e-26
3.83038e-27
-2.11992e-26
4.68561e-27
-2.57319e-26
5.75498e-27
-3.12106e-26
7.11069e-27
-3.783e-26
8.86268e-27
-4.58368e-26
1.11924e-26
-5.55691e-26
1.44404e-26
-6.75538e-26
1.93658e-26
-8.27093e-26
2.79285e-26
-1.02466e-25
4.53469e-26
-1.26349e-25
8.17441e-26
-1.28832e-25
7.52391e-26
5.87591e-30
-2.00674e-28
1.19772e-29
-2.0841e-28
1.85434e-29
-2.24171e-28
2.58295e-29
-2.48572e-28
3.41172e-29
-2.8256e-28
4.37264e-29
-3.27453e-28
5.50256e-29
-3.84989e-28
6.84462e-29
-4.57392e-28
8.44986e-29
-5.47452e-28
1.03792e-28
-6.58632e-28
1.27059e-28
-7.95197e-28
1.55187e-28
-9.62377e-28
1.89259e-28
-1.16657e-27
2.30595e-28
-1.41559e-27
2.80816e-28
-1.71899e-27
3.41907e-28
-2.08845e-27
4.16297e-28
-2.53826e-27
5.06945e-28
-3.08587e-27
6.17444e-28
-3.75259e-27
7.52133e-28
-4.56441e-27
9.16235e-28
-5.55294e-27
1.11604e-27
-6.75648e-27
1.35914e-27
-8.22137e-27
1.65482e-27
-1.00034e-26
2.01461e-27
-1.21697e-26
2.45316e-27
-1.48008e-26
2.98952e-27
-1.79935e-26
3.64907e-27
-2.18644e-26
4.46646e-27
-2.65546e-26
5.4902e-27
-3.22365e-26
6.79042e-27
-3.91255e-26
8.47339e-27
-4.75047e-26
1.0713e-26
-5.77829e-26
1.38341e-26
-7.06454e-26
1.85755e-26
-8.74301e-26
2.69733e-26
-1.10855e-25
4.52487e-26
-1.44651e-25
8.99058e-26
-1.73364e-25
4.36508e-26
5.56661e-30
-2.06243e-28
1.13467e-29
-2.14194e-28
1.75674e-29
-2.30393e-28
2.44699e-29
-2.55471e-28
3.23215e-29
-2.90402e-28
4.14249e-29
-3.36541e-28
5.21295e-29
-3.95674e-28
6.48438e-29
-4.70086e-28
8.00513e-29
-5.62647e-28
9.83292e-29
-6.76914e-28
1.20372e-28
-8.17271e-28
1.4702e-28
-9.89092e-28
1.79298e-28
-1.19895e-27
2.18459e-28
-1.45488e-27
2.66037e-28
-1.76671e-27
3.23915e-28
-2.14644e-27
3.94393e-28
-2.60875e-27
4.80276e-28
-3.17158e-27
5.84971e-28
-3.85687e-27
7.12592e-28
-4.69133e-27
8.68092e-28
-5.70749e-27
1.05744e-27
-6.94479e-27
1.28785e-27
-8.45095e-27
1.56817e-27
-1.02835e-26
1.90937e-27
-1.25118e-26
2.32545e-27
-1.52194e-26
2.83468e-27
-1.85069e-26
3.46146e-27
-2.24964e-26
4.23919e-27
-2.73371e-26
5.21464e-27
-3.32136e-26
6.45525e-27
-4.03611e-26
8.06226e-27
-4.90966e-26
1.01985e-26
-5.98937e-26
1.31627e-26
-7.35818e-26
1.76385e-26
-9.18891e-26
2.56216e-26
-1.18833e-25
4.41017e-26
-1.63163e-25
9.86163e-26
-2.27723e-25
2.20987e-26
5.24873e-30
-2.11495e-28
1.06988e-29
-2.19648e-28
1.65643e-29
-2.36259e-28
2.30727e-29
-2.61975e-28
3.04759e-29
-2.97796e-28
3.90596e-29
-3.4511e-28
4.9153e-29
-4.05749e-28
6.11414e-29
-4.82056e-28
7.54806e-29
-5.76974e-28
9.27149e-29
-6.94152e-28
1.13499e-28
-8.38084e-28
1.38625e-28
-1.01428e-27
1.6906e-28
-1.22949e-27
2.05985e-28
-1.49194e-27
2.50848e-28
-1.81171e-27
3.05422e-28
-2.20112e-27
3.71879e-28
-2.67522e-27
4.52865e-28
-3.25241e-27
5.51593e-28
-3.95521e-27
6.71945e-28
-4.81102e-27
8.186e-28
-5.85325e-27
9.97194e-28
-7.12241e-27
1.21455e-27
-8.66753e-27
1.47903e-27
-1.05478e-26
1.80106e-27
-1.28348e-26
2.19395e-27
-1.56147e-26
2.6751e-27
-1.89919e-26
3.26784e-27
-2.3094e-26
4.00413e-27
-2.80777e-26
4.92873e-27
-3.41393e-26
6.10582e-27
-4.15328e-26
7.63037e-27
-5.06061e-26
9.65096e-27
-6.18896e-26
1.24304e-26
-7.63352e-26
1.65607e-26
-9.60062e-26
2.38484e-26
-1.2612e-25
4.15213e-26
-1.80873e-25
1.08604e-25
-2.94612e-25
-4.39602e-25
4.92276e-30
-2.1642e-28
1.00344e-29
-2.24763e-28
1.55356e-29
-2.41761e-28
2.16398e-29
-2.68076e-28
2.85834e-29
-3.04731e-28
3.6634e-29
-3.53147e-28
4.61006e-29
-4.15198e-28
5.73446e-29
-4.93283e-28
7.07935e-29
-5.90412e-28
8.69575e-29
-7.1032e-28
1.06451e-28
-8.57605e-28
1.30017e-28
-1.03791e-27
1.58562e-28
-1.25813e-27
1.93194e-28
-1.5267e-27
2.35272e-28
-1.85392e-27
2.86458e-28
-2.2524e-27
3.48791e-28
-2.73756e-27
4.24753e-28
-3.32823e-27
5.1736e-28
-4.04744e-27
6.30256e-28
-4.9233e-27
7.67834e-28
-5.98999e-27
9.35389e-28
-7.28905e-27
1.13934e-27
-8.87075e-27
1.38755e-27
-1.07959e-26
1.68987e-27
-1.3138e-26
2.05886e-27
-1.59859e-26
2.51102e-27
-1.94477e-26
3.06849e-27
-2.36559e-26
3.76166e-27
-2.87747e-26
4.63299e-27
-3.50114e-26
5.74289e-27
-4.26371e-26
7.17902e-27
-5.20273e-26
9.07312e-27
-6.37597e-26
1.16436e-26
-7.88813e-26
1.53561e-26
-9.97092e-26
2.16582e-26
-1.32424e-25
3.69722e-26
-1.9623e-25
1.02835e-25
-3.60233e-25
-8.68674e-25
4.5892e-30
-2.21011e-28
9.35446e-30
-2.29532e-28
1.4483e-29
-2.4689e-28
2.01736e-29
-2.73763e-28
2.66467e-29
-3.11196e-28
3.4152e-29
-3.60639e-28
4.29772e-29
-4.24007e-28
5.34594e-29
-5.03749e-28
6.59972e-29
-6.0294e-28
8.10661e-29
-7.25392e-28
9.92386e-29
-8.75804e-28
1.21208e-28
-1.05993e-27
1.47819e-28
-1.28483e-27
1.80105e-28
-1.5591e-27
2.19332e-28
-1.89327e-27
2.67052e-28
-2.30021e-27
3.25164e-28
-2.79568e-27
3.95984e-28
-3.39891e-27
4.82325e-28
-4.13344e-27
5.87588e-28
-5.02798e-27
7.15871e-28
-6.11749e-27
8.7212e-28
-7.44444e-27
1.06233e-27
-9.06028e-27
1.29387e-27
-1.10273e-26
1.57595e-27
-1.34209e-26
1.92038e-27
-1.63324e-26
2.34269e-27
-1.98734e-26
2.86374e-27
-2.4181e-26
3.51219e-27
-2.94265e-26
4.32796e-27
-3.58275e-26
5.36728e-27
-4.36707e-26
6.70972e-27
-5.33551e-26
8.46825e-27
-6.54952e-26
1.08104e-26
-8.12011e-26
1.40474e-26
-1.0294e-25
1.91056e-26
-1.37488e-25
3.04109e-26
-2.07584e-25
8.25065e-26
-4.1206e-25
-1.29881e-24
4.24857e-30
-2.25262e-28
8.66014e-30
-2.33946e-28
1.3408e-29
-2.51638e-28
1.86763e-29
-2.79028e-28
2.4669e-29
-3.17181e-28
3.16172e-29
-3.67575e-28
3.97875e-29
-4.32162e-28
4.94918e-29
-5.13438e-28
6.1099e-29
-6.14537e-28
7.50496e-29
-7.39346e-28
9.18734e-29
-8.92653e-28
1.12212e-28
-1.08033e-27
1.36849e-28
-1.30955e-27
1.66738e-28
-1.58909e-27
2.03054e-28
-1.9297e-27
2.47233e-28
-2.34448e-27
3.01034e-28
-2.84948e-27
3.66603e-28