/*--------------------------------*- C++ -*----------------------------------*\
| =========                 |                                                 |
| \\      /  F ield         | OpenFOAM: The Open Source CFD Toolbox           |
|  \\    /   O peration     | Version:  4.1                                   |
|   \\  /    A nd           | Web:      www.OpenFOAM.org                      |
|    \\/     M anipulation  |                                                 |
\*---------------------------------------------------------------------------*/
FoamFile
{
    version     2.0;
    format      ascii;
    class       volVectorField;
    location    "9";
    object      U;
}
// * * * * * * * * * * * * * * * * * * * * * * * * * * * * * * * * * * * * * //

dimensions      [0 1 -1 0 0 0 0];

internalField   nonuniform List<vector> 
1705
(
(-1.77373e-60 -6.1193e-28 -9.68522e-30)
(-1.38495e-59 -2.98607e-28 2.13215e-29)
(9.87119e-60 -6.25109e-28 3.09684e-29)
(5.83173e-57 -8.78529e-28 5.58559e-30)
(1.70709e-54 -5.98266e-28 -2.06468e-29)
(3.2541e-52 -3.15538e-28 6.73419e-29)
(1.55107e-50 -6.81304e-28 2.09323e-29)
(3.4925e-48 -9.03728e-28 -1.34486e-29)
(4.84158e-46 -5.95002e-28 -3.2163e-29)
(1.33362e-43 -3.49731e-28 1.17371e-28)
(4.80767e-46 -7.55314e-28 9.31256e-30)
(2.79012e-48 -6.35808e-28 -1.34154e-29)
(5.81135e-50 -4.02207e-28 1.76586e-28)
(1.13181e-51 -8.34516e-28 3.9199e-29)
(2.10772e-49 -1.01519e-27 -2.20423e-30)
(3.54603e-47 -6.77465e-28 -2.79935e-29)
(2.11584e-46 -4.82684e-28 2.47524e-28)
(1.87963e-43 -9.70963e-28 2.74873e-29)
(1.89951e-45 -7.68817e-28 -6.76912e-30)
(3.43897e-47 -5.86075e-28 3.44352e-28)
(1.10388e-47 -1.12162e-27 7.06271e-29)
(2.40694e-45 -1.24852e-27 1.31308e-29)
(2.92192e-43 -8.70944e-28 -2.60165e-29)
(2.51976e-46 -7.27868e-28 4.61287e-28)
(1.34822e-47 -1.35061e-27 5.85037e-29)
(-5.62396e-45 -1.43141e-27 -1.53998e-29)
(-5.39977e-43 -1.00887e-27 -5.17221e-29)
(2.22251e-44 -9.10721e-28 6.10707e-28)
(-2.74097e-43 -1.64237e-27 3.86714e-29)
(-2.97089e-45 -1.22388e-27 -2.26021e-29)
(-5.84688e-46 -1.13671e-27 8.32972e-28)
(-5.93827e-43 -1.98918e-27 1.14913e-28)
(-1.03786e-44 -2.0057e-27 3.78998e-30)
(-6.20692e-43 -1.47292e-27 -5.84507e-29)
(5.77623e-44 -1.44327e-27 1.10072e-27)
(2.98065e-42 -2.49085e-27 9.33891e-29)
(1.90623e-39 -1.8354e-27 -1.1485e-29)
(7.05755e-37 -1.82535e-27 1.50527e-27)
(3.63926e-35 -3.10018e-27 2.22487e-28)
(1.79425e-32 -3.06874e-27 1.56281e-28)
(1.73365e-31 -3.32368e-27 1.05142e-26)
(1.58332e-31 -4.33577e-27 1.06479e-26)
(-8.00278e-32 -3.3742e-27 1.067e-26)
(-1.6968e-29 3.4153e-26 1.42355e-26)
(3.32206e-30 -1.10195e-27 7.29491e-27)
(-1.69248e-29 -3.74901e-26 1.36114e-26)
(-1.01453e-31 -6.26067e-28 1.08054e-26)
(8.01651e-32 3.35939e-28 1.07364e-26)
(-7.83477e-31 -6.54407e-28 1.11031e-26)
(-7.55132e-31 -9.91994e-28 1.11134e-26)
(-7.74228e-31 -2.02473e-27 1.10391e-26)
(-1.44383e-30 -1.11096e-27 1.11098e-26)
(-4.73392e-29 3.62917e-26 1.45231e-26)
(8.90407e-30 5.51244e-28 7.58203e-27)
(-4.71408e-29 -3.56764e-26 1.4093e-26)
(-2.41106e-31 1.35745e-27 1.11772e-26)
(1.63006e-30 2.23702e-27 1.11656e-26)
(5.43552e-31 1.1656e-27 1.12577e-26)
(5.2805e-31 7.78846e-28 1.1286e-26)
(5.58143e-31 -2.97175e-28 1.12644e-26)
(2.88602e-30 5.63998e-28 1.13759e-26)
(1.64177e-28 3.74636e-26 1.45865e-26)
(-3.15678e-29 1.67682e-27 7.51625e-27)
(1.62249e-28 -3.40217e-26 1.43856e-26)
(1.03455e-30 2.71153e-27 1.0686e-26)
(5.44731e-31 3.46052e-27 1.06626e-26)
(5.54043e-31 2.3058e-27 1.07748e-26)
(5.67194e-31 1.83704e-27 1.08355e-26)
(5.71765e-31 6.99302e-28 1.08478e-26)
(-6.80634e-32 1.4244e-27 1.09726e-26)
(-4.42825e-29 3.63624e-26 1.38257e-26)
(9.41857e-30 7.39175e-27 6.53846e-27)
(-5.23991e-29 -2.66836e-26 1.12214e-26)
(-1.21552e-30 2.37336e-27 8.75437e-27)
(-4.86432e-31 2.6523e-27 8.75801e-27)
(-4.82837e-31 1.2604e-27 8.85529e-27)
(-4.88749e-31 4.71692e-28 8.88594e-27)
(-5.00066e-31 -6.23864e-28 8.86634e-27)
(-9.24229e-31 -8.80692e-28 8.86084e-27)
(-3.03215e-29 1.47666e-26 9.90517e-27)
(1.95277e-30 1.28825e-26 7.68283e-28)
(1.63776e-34 -4.32496e-28 -2.32028e-28)
(8.89945e-36 -4.77012e-28 -1.8058e-30)
(2.4301e-39 -3.38902e-28 -2.03233e-28)
(4.84748e-41 -3.75622e-28 -1.83388e-29)
(2.30708e-44 -3.65193e-28 -1.81887e-28)
(2.3729e-47 -2.53138e-28 -1.3483e-28)
(4.90661e-46 -2.58765e-28 -6.11605e-30)
(4.61015e-43 -2.752e-28 -1.23157e-28)
(-4.33318e-43 -1.84954e-28 -9.36632e-29)
(-5.09231e-46 -2.01989e-28 -1.2261e-31)
(-9.84011e-48 -1.4842e-28 -8.85072e-29)
(2.34465e-46 -1.77129e-28 -8.43096e-30)
(2.88126e-43 -1.97253e-28 -8.39432e-29)
(-4.13525e-43 -1.15859e-28 -6.50034e-29)
(-4.95744e-46 -1.43078e-28 -3.97916e-30)
(-9.56476e-47 -1.07753e-28 -6.25068e-29)
(-2.2261e-43 -1.31907e-28 -9.78546e-30)
(3.65006e-43 -1.48283e-28 -6.08894e-29)
(-3.84523e-43 -7.09696e-29 -4.77578e-29)
(-4.62237e-46 -1.08071e-28 -5.8206e-30)
(-1.80452e-47 -1.27123e-28 -4.61015e-29)
(-1.7111e-47 -5.53864e-29 -3.74942e-29)
(-4.41946e-46 -8.87197e-29 -2.23411e-30)
(-3.68566e-43 -6.94219e-29 -3.63023e-29)
(-4.42305e-46 -8.49568e-29 -5.77444e-30)
(-1.72098e-47 -9.14838e-29 -3.50099e-29)
(-1.71754e-47 -3.37843e-29 -2.86572e-29)
(-4.4389e-46 -5.92899e-29 -2.59169e-30)
(-3.4596e-43 -4.75323e-29 -2.81518e-29)
(-8.7034e-46 -5.56812e-29 -4.63582e-30)
(-3.4299e-43 -5.68215e-29 -2.74387e-29)
(-1.51089e-46 -1.85693e-29 -2.31208e-29)
(-4.5176e-46 -3.40146e-29 -2.05155e-30)
(-3.61744e-43 -3.7001e-29 -2.27546e-29)
(-1.40201e-46 -1.23222e-29 -2.05096e-29)
(-7.95063e-48 -8.62715e-30 -1.97355e-31)
(-1.59609e-47 -9.36697e-30 -2.08815e-29)
(-4.04321e-46 -3.73791e-30 2.27309e-31)
(-3.11412e-43 6.25204e-31 -2.09449e-29)
(-1.86534e-275 3.24314e-33 -1.62157e-32)
(-3.79876e-269 3.36917e-33 -4.92668e-32)
(-7.57359e-263 3.6254e-33 -8.42207e-32)
(-1.47723e-256 4.02151e-33 -1.22443e-31)
(-2.8169e-250 4.57259e-33 -1.65414e-31)
(-5.24749e-244 5.29949e-33 -2.14794e-31)
(-9.54211e-238 6.2297e-33 -2.72482e-31)
(-1.69233e-231 7.39844e-33 -3.40684e-31)
(-2.92474e-225 8.85019e-33 -4.22001e-31)
(-4.92085e-219 1.06406e-32 -5.19523e-31)
(-8.05201e-213 1.2839e-32 -6.36955e-31)
(-1.28e-206 1.55312e-32 -7.7877e-31)
(-1.97449e-200 1.88233e-32 -9.50398e-31)
(-2.95189e-194 2.28459e-32 -1.15846e-30)
(-4.27134e-188 2.77584e-32 -1.41106e-30)
(-5.97339e-182 3.37546e-32 -1.71811e-30)
(-8.06106e-176 4.1068e-32 -2.09171e-30)
(-1.04796e-169 4.99783e-32 -2.54662e-30)
(-1.31e-163 6.08188e-32 -3.10073e-30)
(-1.57145e-157 7.39851e-32 -3.77561e-30)
(-1.80498e-151 8.99471e-32 -4.59712e-30)
(-1.98026e-145 1.09265e-31 -5.59612e-30)
(-2.06956e-139 1.32608e-31 -6.80931e-30)
(-2.05416e-133 1.60782e-31 -8.28027e-30)
(-1.92985e-127 1.94754e-31 -1.00608e-29)
(-1.70962e-121 2.35664e-31 -1.22128e-29)
(-1.42195e-115 2.84803e-31 -1.48097e-29)
(-1.10491e-109 3.43501e-31 -1.79383e-29)
(-7.97539e-104 4.12853e-31 -2.16984e-29)
(-5.3119e-98 4.93112e-31 -2.61988e-29)
(-3.23881e-92 5.82463e-31 -3.15435e-29)
(-1.79072e-86 6.74661e-31 -3.78001e-29)
(-8.87424e-81 7.54723e-31 -4.49338e-29)
(-3.88497e-75 7.91696e-31 -5.26819e-29)
(-1.47477e-69 7.28246e-31 -6.03391e-29)
(-4.73643e-64 4.71132e-31 -6.64413e-29)
(-1.24403e-58 -9.91614e-32 -6.84528e-29)
(-2.54253e-53 -1.05938e-30 -6.28473e-29)
(-3.72881e-48 -2.3263e-30 -4.72539e-29)
(-8.33933e-279 9.72788e-33 -1.61991e-32)
(-1.69017e-272 1.01047e-32 -4.92171e-32)
(-3.35336e-266 1.08714e-32 -8.41363e-32)
(-6.50865e-260 1.20572e-32 -1.2232e-31)
(-1.23496e-253 1.37077e-32 -1.65248e-31)
(-2.289e-247 1.58861e-32 -2.14577e-31)
(-4.14114e-241 1.86754e-32 -2.72206e-31)
(-7.30654e-235 2.21824e-32 -3.40339e-31)
(-1.25612e-228 2.65413e-32 -4.21574e-31)
(-2.10217e-222 3.19195e-32 -5.18998e-31)
(-3.42117e-216 3.85245e-32 -6.36312e-31)
(-5.40858e-210 4.66123e-32 -7.77982e-31)
(-8.29635e-204 5.64977e-32 -9.49435e-31)
(-1.23322e-197 6.85666e-32 -1.15728e-30)
(-1.77404e-191 8.32902e-32 -1.40962e-30)
(-2.46615e-185 1.01242e-31 -1.71635e-30)
(-3.30769e-179 1.23116e-31 -2.08956e-30)
(-4.27305e-173 1.49752e-31 -2.544e-30)
(-5.30699e-167 1.82158e-31 -3.09755e-30)
(-6.32367e-161 2.21543e-31 -3.77175e-30)
(-7.21317e-155 2.69356e-31 -4.59246e-30)
(-7.85676e-149 3.2733e-31 -5.5905e-30)
(-8.14946e-143 3.97536e-31 -6.80255e-30)
(-8.02511e-137 4.82444e-31 -8.27215e-30)
(-7.4768e-131 5.8497e-31 -1.00511e-29)
(-6.56499e-125 7.08486e-31 -1.22012e-29)
(-5.40853e-119 8.56718e-31 -1.47959e-29)
(-4.15947e-113 1.03341e-30 -1.7922e-29)
(-2.96849e-107 1.24151e-30 -2.16798e-29)
(-1.95227e-101 1.48144e-30 -2.61785e-29)
(-1.17337e-95 1.74755e-30 -3.15236e-29)
(-6.38003e-90 2.02125e-30 -3.77852e-29)
(-3.09907e-84 2.25821e-30 -4.49336e-29)
(-1.32334e-78 2.36674e-30 -5.27143e-29)
(-4.86273e-73 2.17605e-30 -6.04341e-29)
(-1.49247e-67 1.40684e-30 -6.66407e-29)
(-3.65763e-62 -3.02092e-31 -6.87937e-29)
(-6.62315e-57 -3.18697e-30 -6.33246e-29)
(-7.43777e-52 -6.82018e-30 -4.74073e-29)
(9.72593e-277 1.62009e-32 -1.61489e-32)
(1.96878e-270 1.68271e-32 -4.90648e-32)
(3.90128e-264 1.81015e-32 -8.38762e-32)
(7.56262e-258 2.00736e-32 -1.21942e-31)
(1.43313e-251 2.28193e-32 -1.64737e-31)
(2.65292e-245 2.64446e-32 -2.13915e-31)
(4.7934e-239 3.10891e-32 -2.71366e-31)
(8.4466e-233 3.69314e-32 -3.3929e-31)
(1.45028e-226 4.41962e-32 -4.20275e-31)
(2.42406e-220 5.3163e-32 -5.17399e-31)
(3.9402e-214 6.41768e-32 -6.34351e-31)
(6.22166e-208 7.76619e-32 -7.75585e-31)
(9.5325e-202 9.4138e-32 -9.46507e-31)
(1.41541e-195 1.14241e-31 -1.15371e-30)
(2.034e-189 1.38746e-31 -1.40527e-30)
(2.82482e-183 1.686e-31 -1.71105e-30)
(3.78552e-177 2.04951e-31 -2.0831e-30)
(4.88674e-171 2.49198e-31 -2.53614e-30)
(6.06561e-165 3.0303e-31 -3.08799e-30)
(7.22468e-159 3.68491e-31 -3.76013e-30)
(8.23935e-153 4.48042e-31 -4.57835e-30)
(8.97517e-147 5.44639e-31 -5.5734e-30)
(9.3132e-141 6.61808e-31 -6.78183e-30)
(9.17826e-135 8.0373e-31 -8.2471e-30)
(8.56191e-129 9.75283e-31 -1.00209e-29)
(7.5316e-123 1.18202e-30 -1.21648e-29)
(6.22081e-117 1.42999e-30 -1.47524e-29)
(4.80081e-111 1.72512e-30 -1.78707e-29)
(3.44211e-105 2.07196e-30 -2.16201e-29)
(2.27768e-99 2.47089e-30 -2.61112e-29)
(1.38009e-93 2.91244e-30 -3.14519e-29)
(7.58538e-88 3.36613e-30 -3.77176e-29)
(3.73844e-82 3.75958e-30 -4.48879e-29)
(1.62854e-76 3.94227e-30 -5.27254e-29)
(6.15583e-71 3.63195e-30 -6.0562e-29)
(1.97039e-65 2.36293e-30 -6.69708e-29)
(5.16367e-60 -4.75855e-31 -6.94064e-29)
(1.05494e-54 -5.30329e-30 -6.41828e-29)
(1.55708e-49 -1.13138e-29 -4.77745e-29)
(-1.82397e-275 2.26488e-32 -1.60739e-32)
(-3.71577e-269 2.35233e-32 -4.8837e-32)
(-7.41073e-263 2.53038e-32 -8.3487e-32)
(-1.44599e-256 2.80592e-32 -1.21376e-31)
(-2.75836e-250 3.18963e-32 -1.63973e-31)
(-5.14043e-244 3.69634e-32 -2.12923e-31)
(-9.35118e-238 4.3456e-32 -2.70108e-31)
(-1.65916e-231 5.16245e-32 -3.37718e-31)
(-2.86868e-225 6.17836e-32 -4.18328e-31)
(-4.82874e-219 7.43241e-32 -5.15002e-31)
(-7.90508e-213 8.97282e-32 -6.31412e-31)
(-1.25728e-206 1.08588e-31 -7.7199e-31)
(-1.94048e-200 1.31627e-31 -9.42119e-31)
(-2.90268e-194 1.59731e-31 -1.14836e-30)
(-4.20267e-188 1.9398e-31 -1.39875e-30)
(-5.88113e-182 2.35692e-31 -1.70311e-30)
(-7.94202e-176 2.86472e-31 -2.07344e-30)
(-1.03324e-169 3.48273e-31 -2.52439e-30)
(-1.29264e-163 4.23465e-31 -3.07369e-30)
(-1.55196e-157 5.14921e-31 -3.74275e-30)
(-1.78425e-151 6.26107e-31 -4.55723e-30)
(-1.95952e-145 7.61189e-31 -5.54775e-30)
(-2.05018e-139 9.25139e-31 -6.75073e-30)
(-2.03741e-133 1.12383e-30 -8.20946e-30)
(-1.91672e-127 1.36411e-30 -9.97546e-30)
(-1.70053e-121 1.65371e-30 -1.21102e-29)
(-1.41675e-115 2.00102e-30 -1.46872e-29)
(-1.10293e-109 2.41427e-30 -1.77936e-29)
(-7.97777e-104 2.89975e-30 -2.15307e-29)
(-5.32608e-98 3.45809e-30 -2.60104e-29)
(-3.2562e-92 4.07649e-30 -3.13445e-29)
(-1.80589e-86 4.71348e-30 -3.76158e-29)
(-8.98107e-81 5.27005e-30 -4.48183e-29)
(-3.94783e-75 5.53901e-30 -5.27398e-29)
(-1.50573e-69 5.12861e-30 -6.075e-29)
(-4.86235e-64 3.38517e-30 -6.74623e-29)
(-1.28514e-58 -5.65801e-31 -7.0327e-29)
(-2.64637e-53 -7.36782e-30 -6.54922e-29)
(-3.93184e-48 -1.61811e-29 -4.90358e-29)
(3.90517e-277 2.90616e-32 -1.59741e-32)
(7.90062e-271 3.01832e-32 -4.85339e-32)
(1.56466e-264 3.2467e-32 -8.29691e-32)
(3.03131e-258 3.60018e-32 -1.20624e-31)
(5.74091e-252 4.09246e-32 -1.62957e-31)
(1.06206e-245 4.74259e-32 -2.11603e-31)
(1.91776e-239 5.57568e-32 -2.68434e-31)
(3.37715e-233 6.62389e-32 -3.35625e-31)
(5.7947e-227 7.92762e-32 -4.15735e-31)
(9.67887e-221 9.53704e-32 -5.1181e-31)
(1.57215e-214 1.1514e-31 -6.27499e-31)
(2.48066e-208 1.39343e-31 -7.67205e-31)
(3.7979e-202 1.68908e-31 -9.36278e-31)
(5.6349e-196 2.04969e-31 -1.14124e-30)
(8.0912e-190 2.48909e-31 -1.39008e-30)
(1.12279e-183 3.02418e-31 -1.69255e-30)
(1.50338e-177 3.67554e-31 -2.06059e-30)
(1.93904e-171 4.46822e-31 -2.50875e-30)
(2.40466e-165 5.43271e-31 -3.05466e-30)
(2.86152e-159 6.60596e-31 -3.71961e-30)
(3.2603e-153 8.03261e-31 -4.5291e-30)
(3.54797e-147 9.76633e-31 -5.51359e-30)
(3.67786e-141 1.18712e-30 -6.7093e-30)
(3.62078e-135 1.44227e-30 -8.1593e-30)
(3.37399e-129 1.7509e-30 -9.91491e-30)
(2.96471e-123 2.12294e-30 -1.20375e-29)
(2.44597e-117 2.56916e-30 -1.46003e-29)
(1.88549e-111 3.10016e-30 -1.76909e-29)
(1.35032e-105 3.72418e-30 -2.14114e-29)
(8.92505e-100 4.44243e-30 -2.58759e-29)
(5.40193e-94 5.23945e-30 -3.12008e-29)
(2.96598e-88 6.06398e-30 -3.74788e-29)
(1.46042e-82 6.79241e-30 -4.47228e-29)
(6.35695e-77 7.16393e-30 -5.27537e-29)
(2.40165e-71 6.68037e-30 -6.09927e-29)
(7.6861e-66 4.49835e-30 -6.81097e-29)
(2.01517e-60 -5.38177e-31 -7.1557e-29)
(4.12389e-55 -9.34819e-30 -6.73058e-29)
(6.11806e-50 -2.10285e-29 -5.13993e-29)
(-1.34158e-275 3.54295e-32 -1.58497e-32)
(-2.75653e-269 3.67964e-32 -4.8156e-32)
(-5.54429e-263 3.95801e-32 -8.23232e-32)
(-1.09088e-256 4.3889e-32 -1.19685e-31)
(-2.09823e-250 4.98901e-32 -1.61689e-31)
(-3.94229e-244 5.78156e-32 -2.09957e-31)
(-7.22973e-238 6.79721e-32 -2.66346e-31)
(-1.29303e-231 8.07516e-32 -3.33014e-31)
(-2.25333e-225 9.66469e-32 -4.12502e-31)
(-3.82259e-219 1.1627e-31 -5.07829e-31)
(-6.30624e-213 1.40373e-31 -6.22618e-31)
(-1.01063e-206 1.69882e-31 -7.61237e-31)
(-1.57155e-200 2.05926e-31 -9.28994e-31)
(-2.36827e-194 2.49887e-31 -1.13236e-30)
(-3.45405e-188 3.03452e-31 -1.37926e-30)
(-4.86847e-182 3.68676e-31 -1.67938e-30)
(-6.62137e-176 4.4807e-31 -2.04456e-30)
(-8.67483e-170 5.44691e-31 -2.48924e-30)
(-1.09278e-163 6.62257e-31 -3.03093e-30)
(-1.32096e-157 8.05282e-31 -3.69075e-30)
(-1.52887e-151 9.79219e-31 -4.49402e-30)
(-1.69015e-145 1.19063e-30 -5.47098e-30)
(-1.77984e-139 1.44733e-30 -6.6576e-30)
(-1.78007e-133 1.75858e-30 -8.0967e-30)
(-1.68515e-127 2.13511e-30 -9.83933e-30)
(-1.50431e-121 2.58909e-30 -1.19466e-29)
(-1.26089e-115 3.13371e-30 -1.44918e-29)
(-9.87448e-110 3.78205e-30 -1.75626e-29)
(-7.18434e-104 4.54449e-30 -2.12622e-29)
(-4.82403e-98 5.42324e-30 -2.57074e-29)
(-2.966e-92 6.40098e-30 -3.10202e-29)
(-1.65414e-86 7.41814e-30 -3.73052e-29)
(-8.27167e-81 8.32916e-30 -4.45984e-29)
(-3.65571e-75 8.82367e-30 -5.27622e-29)
(-1.40174e-69 8.30135e-30 -6.12831e-29)
(-4.55015e-64 5.7278e-30 -6.8906e-29)
(-1.20874e-58 -3.56579e-31 -7.30963e-29)
(-2.50147e-53 -1.12105e-29 -6.95903e-29)
(-3.73779e-48 -2.61622e-29 -5.32836e-29)
(-1.42772e-275 4.17427e-32 -1.57008e-32)
(-2.93288e-269 4.33528e-32 -4.77039e-32)
(-5.89776e-263 4.66322e-32 -8.15505e-32)
(-1.1602e-256 5.17086e-32 -1.18562e-31)
(-2.23112e-250 5.87788e-32 -1.60171e-31)
(-4.19119e-244 6.81165e-32 -2.07987e-31)
(-7.68478e-238 8.00829e-32 -2.63847e-31)
(-1.37418e-231 9.51402e-32 -3.2989e-31)
(-2.39433e-225 1.13869e-31 -4.08632e-31)
(-4.06111e-219 1.36989e-31 -5.03065e-31)
(-6.69866e-213 1.65389e-31 -6.16776e-31)
(-1.07335e-206 2.00157e-31 -7.54094e-31)
(-1.66882e-200 2.42625e-31 -9.20277e-31)
(-2.51449e-194 2.94419e-31 -1.12174e-30)
(-3.66675e-188 3.57525e-31 -1.36632e-30)
(-5.16752e-182 4.34366e-31 -1.66362e-30)
(-7.02708e-176 5.27898e-31 -2.02539e-30)
(-9.20503e-170 6.41726e-31 -2.46591e-30)
(-1.1594e-163 7.80235e-31 -3.00254e-30)
(-1.40129e-157 9.48748e-31 -3.65621e-30)
(-1.62161e-151 1.1537e-30 -4.45203e-30)
(-1.7924e-145 1.40283e-30 -5.41997e-30)
(-1.88723e-139 1.70539e-30 -6.59571e-30)
(-1.88719e-133 2.07227e-30 -8.02175e-30)
(-1.78627e-127 2.51619e-30 -9.74881e-30)
(-1.59433e-121 3.05154e-30 -1.18377e-29)
(-1.33613e-115 3.69397e-30 -1.43617e-29)
(-1.04622e-109 4.45915e-30 -1.74088e-29)
(-7.61094e-104 5.35985e-30 -2.10831e-29)
(-5.11e-98 6.39974e-30 -2.55046e-29)
(-3.14174e-92 7.56058e-30 -3.08019e-29)
(-1.75229e-86 8.77627e-30 -3.70932e-29)
(-8.76496e-81 9.88252e-30 -4.44417e-29)
(-3.87605e-75 1.05244e-29 -5.27593e-29)
(-1.48789e-69 1.00053e-29 -6.16119e-29)
(-4.83897e-64 7.09948e-30 -6.98413e-29)
(-1.28919e-58 1.86198e-32 -7.49446e-29)
(-2.67647e-53 -1.2906e-29 -7.24669e-29)
(-3.98516e-48 -3.12913e-29 -5.73195e-29)
(-6.69642e-279 4.79915e-32 -1.55278e-32)
(-1.36879e-272 4.98424e-32 -4.71783e-32)
(-2.73871e-266 5.36124e-32 -8.06521e-32)
(-5.36026e-260 5.94485e-32 -1.17256e-31)
(-1.02552e-253 6.75769e-32 -1.58407e-31)
(-1.91647e-247 7.83124e-32 -2.05696e-31)
(-3.49552e-241 9.20704e-32 -2.60941e-31)
(-6.21739e-235 1.09382e-31 -3.26257e-31)
(-1.07747e-228 1.30915e-31 -4.04132e-31)
(-1.81755e-222 1.57498e-31 -4.97525e-31)
(-2.98137e-216 1.9015e-31 -6.09984e-31)
(-4.75028e-210 2.30124e-31 -7.45789e-31)
(-7.34333e-204 2.78949e-31 -9.10142e-31)
(-1.10001e-197 3.38495e-31 -1.10938e-30)
(-1.59456e-191 4.11046e-31 -1.35127e-30)
(-2.23359e-185 4.99385e-31 -1.6453e-30)
(-3.01856e-179 6.06915e-31 -2.00309e-30)
(-3.92905e-173 7.37778e-31 -2.43878e-30)
(-4.91655e-167 8.97021e-31 -2.96953e-30)
(-5.90251e-161 1.09077e-30 -3.61605e-30)
(-6.78338e-155 1.32643e-30 -4.4032e-30)
(-7.4442e-149 1.61292e-30 -5.36064e-30)
(-7.77976e-143 1.96089e-30 -6.52371e-30)
(-7.71912e-137 2.3829e-30 -7.93454e-30)
(-7.24668e-131 2.8936e-30 -9.64347e-30)
(-6.41213e-125 3.50964e-30 -1.1711e-29)
(-5.32414e-119 4.2492e-30 -1.42103e-29)
(-4.12749e-113 5.13064e-30 -1.72295e-29)
(-2.97008e-107 6.16936e-30 -2.08741e-29)
(-1.97016e-101 7.37106e-30 -2.52672e-29)
(-1.19487e-95 8.71761e-30 -3.05449e-29)
(-6.56e-90 1.01384e-29 -3.68408e-29)
(-3.22024e-84 1.14543e-29 -4.42487e-29)
(-1.39139e-78 1.22718e-29 -5.27377e-29)
(-5.18293e-73 1.18056e-29 -6.19681e-29)
(-1.61718e-67 8.63988e-30 -7.09033e-29)
(-4.04849e-62 6.30398e-31 -7.70974e-29)
(-7.56004e-57 -1.43802e-29 -7.58523e-29)
(-8.99953e-52 -3.59929e-29 -6.1529e-29)
(-2.50997e-279 5.41662e-32 -1.53309e-32)
(-5.42999e-273 5.6255e-32 -4.65799e-32)
(-1.14528e-266 6.05099e-32 -7.96293e-32)
(-2.35461e-260 6.70968e-32 -1.15769e-31)
(-4.71722e-254 7.62709e-32 -1.56398e-31)
(-9.20516e-248 8.83877e-32 -2.03088e-31)
(-1.74878e-241 1.03916e-31 -2.57633e-31)
(-3.23247e-235 1.23456e-31 -3.22121e-31)
(-5.80945e-229 1.4776e-31 -3.99009e-31)
(-1.01439e-222 1.77763e-31 -4.91218e-31)
(-1.71937e-216 2.14618e-31 -6.02251e-31)
(-2.82631e-210 2.59735e-31 -7.36335e-31)
(-4.50099e-204 3.14843e-31 -8.98603e-31)
(-6.9365e-198 3.8205e-31 -1.09532e-30)
(-1.03318e-191 4.63933e-31 -1.33414e-30)
(-1.48533e-185 5.63636e-31 -1.62445e-30)
(-2.05797e-179 6.84998e-31 -1.97771e-30)
(-2.74354e-173 8.32698e-31 -2.40789e-30)
(-3.5129e-167 1.01243e-30 -2.93194e-30)
(-4.31165e-161 1.23113e-30 -3.57033e-30)
(-5.06175e-155 1.49715e-30 -4.3476e-30)
(-5.6701e-149 1.82058e-30 -5.29308e-30)
(-6.04432e-143 2.21344e-30 -6.44172e-30)
(-6.11318e-137 2.68997e-30 -7.8352e-30)
(-5.84636e-131 3.26677e-30 -9.52346e-30)
(-5.26673e-125 3.96274e-30 -1.15666e-29)
(-4.4498e-119 4.79864e-30 -1.40375e-29)
(-3.50836e-113 5.79564e-30 -1.70247e-29)
(-2.56625e-107 6.97209e-30 -2.0635e-29)
(-1.72958e-101 8.33624e-30 -2.49949e-29)
(-1.0653e-95 9.87127e-30 -3.02484e-29)
(-5.93702e-90 1.15044e-29 -3.65459e-29)
(-2.95707e-84 1.30457e-29 -4.4015e-29)
(-1.29571e-78 1.40707e-29 -5.2689e-29)
(-4.89178e-73 1.37147e-29 -6.23383e-29)
(-1.54588e-67 1.03758e-29 -7.20764e-29)
(-3.91627e-62 1.52521e-30 -7.95486e-29)
(-7.39496e-57 -1.55874e-29 -7.97916e-29)
(-8.91031e-52 -4.09162e-29 -6.52782e-29)
(-5.61257e-276 6.02573e-32 -1.51103e-32)
(-1.21612e-269 6.25809e-32 -4.59098e-32)
(-2.57023e-263 6.73141e-32 -7.84837e-32)
(-5.29704e-257 7.46416e-32 -1.14103e-31)
(-1.06415e-250 8.48474e-32 -1.54149e-31)
(-2.08296e-244 9.83268e-32 -2.00167e-31)
(-3.97042e-238 1.15602e-31 -2.53927e-31)
(-7.36537e-232 1.37339e-31 -3.17488e-31)
(-1.32878e-225 1.64377e-31 -3.9327e-31)
(-2.32954e-219 1.97755e-31 -4.84154e-31)
(-3.96525e-213 2.38755e-31 -5.9359e-31)
(-6.54698e-207 2.88946e-31 -7.25744e-31)
(-1.04744e-200 3.50251e-31 -8.85679e-31)
(-1.62197e-194 4.25015e-31 -1.07957e-30)
(-2.42796e-188 5.16105e-31 -1.31495e-30)
(-3.5086e-182 6.27019e-31 -1.60109e-30)
(-4.88739e-176 7.62027e-31 -1.94928e-30)
(-6.55192e-170 9.26338e-31 -2.37329e-30)
(-8.43791e-164 1.1263e-30 -2.88984e-30)
(-1.0419e-157 1.3696e-30 -3.51911e-30)
(-1.23087e-151 1.66559e-30 -4.28531e-30)
(-1.38788e-145 2.02547e-30 -5.21738e-30)
(-1.48969e-139 2.46266e-30 -6.34983e-30)
(-1.51763e-133 2.99305e-30 -7.72387e-30)
(-1.46257e-127 3.63516e-30 -9.38892e-30)
(-1.32839e-121 4.41019e-30 -1.14047e-29)
(-1.13224e-115 5.34152e-30 -1.38437e-29)
(-9.0124e-110 6.45329e-30 -1.67948e-29)
(-6.6615e-104 7.76703e-30 -2.0366e-29)
(-4.54217e-98 9.29422e-30 -2.46874e-29)
(-2.83473e-92 1.10206e-29 -2.99113e-29)
(-1.6041e-86 1.28736e-29 -3.62059e-29)
(-8.13606e-81 1.46574e-29 -4.37355e-29)
(-3.64592e-75 1.59249e-29 -5.26039e-29)
(-1.41705e-69 1.57439e-29 -6.2707e-29)
(-4.66123e-64 1.2334e-29 -7.33412e-29)
(-1.25442e-58 2.75374e-30 -8.229e-29)
(-2.62889e-53 -1.64629e-29 -8.43405e-29)
(-3.97408e-48 -4.56996e-29 -7.16749e-29)
(-2.50477e-279 6.62555e-32 -1.48664e-32)
(-5.4204e-273 6.88103e-32 -4.51688e-32)
(-1.14357e-266 7.40145e-32 -7.72172e-32)
(-2.35171e-260 8.20713e-32 -1.12262e-31)
(-4.71253e-254 9.3293e-32 -1.51661e-31)
(-9.19805e-248 1.08114e-31 -1.96937e-31)
(-1.74779e-241 1.27109e-31 -2.4983e-31)
(-3.23128e-235 1.5101e-31 -3.12366e-31)
(-5.80842e-229 1.8074e-31 -3.86925e-31)
(-1.01439e-222 2.17442e-31 -4.76343e-31)
(-1.71967e-216 2.62524e-31 -5.84013e-31)
(-2.82729e-210 3.17712e-31 -7.14035e-31)
(-4.5033e-204 3.85119e-31 -8.71389e-31)
(-6.94119e-198 4.67326e-31 -1.06215e-30)
(-1.03405e-191 5.67482e-31 -1.29374e-30)
(-1.48682e-185 6.89436e-31 -1.57527e-30)
(-2.06037e-179 8.37884e-31 -1.91784e-30)
(-2.74721e-173 1.01856e-30 -2.33503e-30)
(-3.5182e-167 1.23843e-30 -2.84329e-30)
(-4.31893e-161 1.50599e-30 -3.46247e-30)
(-5.07126e-155 1.83149e-30 -4.21643e-30)
(-5.68189e-149 2.22729e-30 -5.13366e-30)
(-6.05819e-143 2.70818e-30 -6.2482e-30)
(-6.12865e-137 3.29166e-30 -7.6007e-30)
(-5.86265e-131 3.99822e-30 -9.24003e-30)
(-5.28291e-125 4.85133e-30 -1.12253e-29)
(-4.4649e-119 5.87706e-30 -1.36289e-29)
(-3.52156e-113 7.10265e-30 -1.65396e-29)
(-2.57699e-107 8.55314e-30 -2.00668e-29)
(-1.73769e-101 1.02438e-29 -2.43442e-29)
(-1.07094e-95 1.21643e-29 -2.95325e-29)
(-5.97281e-90 1.42451e-29 -3.58185e-29)
(-2.97766e-84 1.62895e-29 -4.34047e-29)
(-1.30632e-78 1.78371e-29 -5.24717e-29)
(-4.93998e-73 1.79032e-29 -6.30565e-29)
(-1.56486e-67 1.4541e-29 -7.46744e-29)
(-3.97945e-62 4.37127e-30 -8.5308e-29)
(-7.56678e-57 -1.69347e-29 -8.94823e-29)
(-9.27361e-52 -5.07701e-29 -7.83528e-29)
(-1.06589e-278 7.21515e-32 -1.45996e-32)
(-2.1484e-272 7.49335e-32 -4.43582e-32)
(-4.23903e-266 8.06008e-32 -7.58315e-32)
(-8.18236e-260 8.93745e-32 -1.10248e-31)
(-1.54399e-253 1.01595e-31 -1.4894e-31)
(-2.84602e-247 1.17735e-31 -1.93404e-31)
(-5.12057e-241 1.3842e-31 -2.45348e-31)
(-8.98503e-235 1.64449e-31 -3.06762e-31)
(-1.53622e-228 1.96825e-31 -3.79984e-31)
(-2.55688e-222 2.36793e-31 -4.67797e-31)
(-4.13854e-216 2.85888e-31 -5.73536e-31)
(-6.5072e-210 3.45988e-31 -7.01225e-31)
(-9.92769e-204 4.19394e-31 -8.55756e-31)
(-1.4678e-197 5.08916e-31 -1.04309e-30)
(-2.10025e-191 6.17986e-31 -1.27053e-30)
(-2.9042e-185 7.50792e-31 -1.54701e-30)
(-3.87487e-179 9.12452e-31 -1.88345e-30)
(-4.9799e-173 1.10921e-30 -2.29318e-30)
(-6.15338e-167 1.34866e-30 -2.79236e-30)
(-7.29547e-161 1.64006e-30 -3.4005e-30)
(-8.2808e-155 1.99459e-30 -4.14105e-30)
(-8.97641e-149 2.42572e-30 -5.04204e-30)
(-9.26747e-143 2.9496e-30 -6.13696e-30)
(-9.08506e-137 3.58535e-30 -7.46587e-30)
(-8.42795e-131 4.3554e-30 -9.07698e-30)
(-7.37008e-125 5.28551e-30 -1.10289e-29)
(-6.04888e-119 6.40449e-30 -1.33934e-29)
(-4.63602e-113 7.74281e-30 -1.62595e-29)
(-3.29872e-107 9.32934e-30 -1.97377e-29)
(-2.16419e-101 1.11839e-29 -2.39652e-29)
(-1.2985e-95 1.33012e-29 -2.9111e-29)
(-7.0547e-90 1.56175e-29 -3.53809e-29)
(-3.42814e-84 1.7941e-29 -4.30171e-29)
(-1.4668e-78 1.98086e-29 -5.22811e-29)
(-5.4126e-73 2.02006e-29 -6.33663e-29)
(-1.67352e-67 1.70225e-29 -7.60476e-29)
(-4.15163e-62 6.4381e-30 -8.85851e-29)
(-7.6744e-57 -1.69021e-29 -9.53689e-29)
(-8.97999e-52 -5.56186e-29 -8.50238e-29)
(-2.2455e-275 7.79363e-32 -1.43103e-32)
(-4.54939e-269 8.09412e-32 -4.34793e-32)
(-9.02329e-263 8.70628e-32 -7.4329e-32)
(-1.75089e-256 9.65398e-32 -1.08063e-31)
(-3.32149e-250 1.0974e-31 -1.45989e-31)
(-6.15547e-244 1.27174e-31 -1.89572e-31)
(-1.11353e-237 1.49518e-31 -2.40488e-31)
(-1.9647e-231 1.77634e-31 -3.00685e-31)
(-3.37794e-225 2.12606e-31 -3.72457e-31)
(-5.65411e-219 2.5578e-31 -4.5853e-31)
(-9.20436e-213 3.08811e-31 -5.62174e-31)
(-1.4557e-206 3.73731e-31 -6.87334e-31)
(-2.2341e-200 4.53023e-31 -8.38803e-31)
(-3.32309e-194 5.49723e-31 -1.02243e-30)
(-4.78429e-188 6.67537e-31 -1.24537e-30)
(-6.65738e-182 8.10992e-31 -1.51637e-30)
(-8.93974e-176 9.85617e-31 -1.84616e-30)
(-1.15651e-169 1.19816e-30 -2.24779e-30)
(-1.43874e-163 1.45683e-30 -2.73712e-30)
(-1.71772e-157 1.77162e-30 -3.33329e-30)
(-1.96383e-151 2.15464e-30 -4.0593e-30)
(-2.14478e-145 2.62047e-30 -4.94266e-30)
(-2.23166e-139 3.18657e-30 -6.01628e-30)
(-2.20567e-133 3.87368e-30 -7.31955e-30)
(-2.06383e-127 4.70615e-30 -8.9e-30)
(-1.82136e-121 5.71206e-30 -1.08155e-29)
(-1.50957e-115 6.92301e-30 -1.31375e-29)
(-1.16931e-109 8.37282e-30 -1.59547e-29)
(-8.41743e-104 1.00945e-29 -1.93786e-29)
(-5.59443e-98 1.21129e-29 -2.35499e-29)
(-3.40636e-92 1.44295e-29 -2.86458e-29)
(-1.88256e-86 1.69891e-29 -3.48905e-29)
(-9.33695e-81 1.96105e-29 -4.25665e-29)
(-4.09762e-75 2.18394e-29 -5.20198e-29)
(-1.56278e-69 2.26419e-29 -6.36137e-29)
(-5.05792e-64 1.98028e-29 -7.74269e-29)
(-1.34452e-58 9.01933e-30 -9.2093e-29)
(-2.79922e-53 -1.62517e-29 -1.01894e-28)
(-4.23048e-48 -6.03218e-29 -9.35279e-29)
(-1.07546e-275 8.36008e-32 -1.39989e-32)
(-2.02362e-269 8.68241e-32 -4.25332e-32)
(-3.70304e-263 9.33905e-32 -7.27118e-32)
(-6.57754e-257 1.03556e-31 -1.05712e-31)
(-1.13149e-250 1.17716e-31 -1.42813e-31)
(-1.8796e-244 1.36417e-31 -1.85448e-31)
(-3.00394e-238 1.60385e-31 -2.35256e-31)
(-4.59535e-232 1.90545e-31 -2.94144e-31)
(-6.67979e-226 2.2806e-31 -3.64355e-31)
(-9.12139e-220 2.74372e-31 -4.48556e-31)
(-1.14713e-213 3.31258e-31 -5.49945e-31)
(-1.27622e-207 4.00897e-31 -6.72383e-31)
(-1.12713e-201 4.85953e-31 -8.20557e-31)
(-4.3132e-196 5.89682e-31 -1.00019e-30)
(1.18361e-189 7.1606e-31 -1.21828e-30)
(4.17406e-183 8.69944e-31 -1.48339e-30)
(9.01921e-177 1.05726e-30 -1.80602e-30)
(1.61106e-170 1.28526e-30 -2.19894e-30)
(2.55999e-164 1.56276e-30 -2.67766e-30)
(3.72342e-158 1.90047e-30 -3.26094e-30)
(5.02331e-152 2.31141e-30 -3.97128e-30)
(6.32708e-146 2.81123e-30 -4.83566e-30)
(7.46207e-140 3.41872e-30 -5.88632e-30)
(8.24701e-134 4.15621e-30 -7.16195e-30)
(8.53519e-128 5.04994e-30 -8.70931e-30)
(8.25682e-122 6.13035e-30 -1.05855e-29)
(7.4451e-116 7.43183e-30 -1.28613e-29)
(6.23372e-110 8.99172e-30 -1.56253e-29)
(4.82361e-104 1.08474e-29 -1.89897e-29)
(3.42917e-98 1.30296e-29 -2.30981e-29)
(2.22361e-92 1.55477e-29 -2.81358e-29)
(1.30356e-86 1.83577e-29 -3.43447e-29)
(6.83322e-81 2.12953e-29 -4.2047e-29)
(3.15882e-75 2.39275e-29 -5.16749e-29)
(1.26499e-69 2.52302e-29 -6.37736e-29)
(4.28589e-64 2.29034e-29 -7.87721e-29)
(1.18896e-58 1.21845e-29 -9.5796e-29)
(2.5726e-53 -1.48465e-29 -1.09237e-28)
(4.00224e-48 -6.40917e-29 -1.025e-28)
(-9.25338e-279 8.91364e-32 -1.36659e-32)
(-1.76056e-272 9.25731e-32 -4.15217e-32)
(-3.26329e-266 9.95742e-32 -7.09825e-32)
(-5.88402e-260 1.10413e-31 -1.03198e-31)
(-1.03027e-253 1.2551e-31 -1.39417e-31)
(-1.74814e-247 1.4545e-31 -1.81038e-31)
(-2.86708e-241 1.71005e-31 -2.29662e-31)
(-4.53021e-235 2.03163e-31 -2.8715e-31)
(-6.86647e-229 2.43162e-31 -3.55691e-31)
(-9.92348e-223 2.92541e-31 -4.37891e-31)
(-1.3552e-216 3.53195e-31 -5.36869e-31)
(-1.72342e-210 4.27446e-31 -6.56395e-31)
(-1.98625e-204 5.18135e-31 -8.01046e-31)
(-1.95068e-198 6.28733e-31 -9.76408e-31)
(-1.3242e-192 7.6348e-31 -1.18931e-30)
(2.84451e-187 9.27556e-31 -1.44813e-30)
(3.33305e-180 1.12729e-30 -1.7631e-30)
(8.27025e-174 1.37039e-30 -2.14669e-30)
(1.54145e-167 1.66628e-30 -2.61408e-30)
(2.48023e-161 2.02641e-30 -3.18356e-30)
(3.60429e-155 2.46464e-30 -3.87714e-30)
(4.82346e-149 2.99771e-30 -4.7212e-30)
(6.00011e-143 3.6457e-30 -5.74728e-30)
(6.96839e-137 4.43249e-30 -6.9933e-30)
(7.56799e-131 5.38625e-30 -8.50517e-30)
(7.68453e-125 6.53972e-30 -1.03391e-29)
(7.28407e-119 7.93016e-30 -1.25652e-29)
(6.4283e-113 9.59854e-30 -1.52716e-29)
(5.26223e-107 1.15869e-29 -1.85711e-29)
(3.9766e-101 1.39324e-29 -2.26098e-29)
(2.75746e-95 1.66535e-29 -2.75802e-29)
(1.74152e-89 1.97207e-29 -3.3741e-29)
(9.92604e-84 2.29919e-29 -4.14526e-29)
(5.04753e-78 2.6069e-29 -5.12328e-29)
(2.25724e-72 2.7965e-29 -6.38185e-29)
(8.71371e-67 2.63424e-29 -8.0036e-29)
(2.83227e-61 1.60069e-29 -9.96429e-29)
(7.47634e-56 -1.25504e-29 -1.17149e-28)
(1.50918e-50 -6.70278e-29 -1.1355e-28)
(-2.20037e-275 9.45346e-32 -1.33119e-32)
(-4.45851e-269 9.81793e-32 -4.0446e-32)
(-8.84427e-263 1.05604e-31 -6.91438e-32)
(-1.71642e-256 1.171e-31 -1.00525e-31)
(-3.25666e-250 1.33111e-31 -1.35806e-31)
(-6.03647e-244 1.54259e-31 -1.76349e-31)
(-1.09224e-237 1.81362e-31 -2.23714e-31)
(-1.92757e-231 2.15467e-31 -2.79712e-31)
(-3.31499e-225 2.57889e-31 -3.46479e-31)
(-5.55034e-219 3.1026e-31 -4.2655e-31)
(-9.03836e-213 3.74587e-31 -5.22965e-31)
(-1.42996e-206 4.53336e-31 -6.39395e-31)
(-2.19547e-200 5.49517e-31 -7.803e-31)
(-3.2671e-194 6.66814e-31 -9.51121e-31)
(-4.70603e-188 8.09724e-31 -1.15851e-30)
(-6.55213e-182 9.83739e-31 -1.41063e-30)
(-8.8039e-176 1.19557e-30 -1.71745e-30)
(-1.13974e-169 1.45341e-30 -2.09114e-30)
(-1.41899e-163 1.76725e-30 -2.54646e-30)
(-1.69563e-157 2.14924e-30 -3.10127e-30)
(-1.9405e-151 2.6141e-30 -3.77702e-30)