/*--------------------------------*- C++ -*----------------------------------*\
| =========                 |                                                 |
| \\      /  F ield         | OpenFOAM: The Open Source CFD Toolbox           |
|  \\    /   O peration     | Version:  4.1                                   |
|   \\  /    A nd           | Web:      www.OpenFOAM.org                      |
|    \\/     M anipulation  |                                                 |
\*---------------------------------------------------------------------------*/
FoamFile
{
    version     2.0;
    format      ascii;
    class       volScalarField;
    location    "2";
    object      p;
}
// * * * * * * * * * * * * * * * * * * * * * * * * * * * * * * * * * * * * * //

dimensions      [0 2 -2 0 0 0 0];

internalField   nonuniform List<scalar> 
26785
(
17.6656
15.6958
13.282
10.4189
8.02646
6.08814
5.28609
4.64061
3.99051
3.1542
1.55381
-0.182922
-1.19826
-1.6742
-1.58173
-1.40101
-1.29718
-1.30274
-1.2249
-0.703638
-0.25473
-0.0439026
0.296232
0.623911
0.804077
0.922745
0.955696
0.91814
0.940396
0.804616
0.498916
0.311905
0.203757
-0.00465241
-0.316428
-0.587276
-0.745057
-0.854942
-0.957753
-1.05098
-1.10756
-1.12366
-1.10985
-1.08548
-1.056
-1.0213
-0.982619
-0.930828
-0.873588
-0.807158
-0.742182
-0.677731
-0.613442
-0.547049
-0.481451
-0.418997
-0.361067
-0.30762
-0.258675
-0.216058
-0.179739
-0.14706
-0.114081
-0.0807745
-0.04808
-0.018387
0.00585205
0.0239192
0.0390677
0.051313
0.0589895
0.0638946
0.0693964
0.0736691
0.0747148
0.0758453
0.0787464
0.0833222
0.0905319
0.0999293
0.108273
0.114489
0.119794
0.124585
0.128784
0.132489
0.134574
0.134915
0.133476
0.130206
0.124665
0.116805
0.106445
0.0942173
0.0806301
0.0661587
0.0509197
0.0355394
0.0189937
0.00624904
17.6187
15.6554
13.2526
10.387
8.00438
6.07237
5.26413
4.60791
3.95277
3.10518
1.50705
-0.197071
-1.19927
-1.67378
-1.57941
-1.40023
-1.29021
-1.30411
-1.23061
-0.702433
-0.262176
-0.0472013
0.298733
0.620828
0.801447
0.924467
0.958447
0.919519
0.938202
0.80312
0.49611
0.311982
0.20579
-0.00289959
-0.316908
-0.588404
-0.744793
-0.853799
-0.956947
-1.05094
-1.1079
-1.1238
-1.10955
-1.08496
-1.05557
-1.02079
-0.982209
-0.931138
-0.873765
-0.807354
-0.742186
-0.677993
-0.613703
-0.547408
-0.481659
-0.419271
-0.361362
-0.307929
-0.258826
-0.216117
-0.179929
-0.147514
-0.114503
-0.0810523
-0.0482091
-0.0184426
0.00566215
0.0236055
0.0388111
0.0510892
0.0586602
0.0634546
0.0692247
0.0736425
0.0745089
0.0755349
0.0784262
0.0829862
0.0904833
0.100201
0.108476
0.114485
0.119847
0.124589
0.128771
0.132516
0.134568
0.134807
0.13336
0.130052
0.124469
0.116548
0.106171
0.0939581
0.0803683
0.0658786
0.0506333
0.0352598
0.0186436
0.0064259
17.5558
15.5974
13.198
10.3363
7.97559
6.04816
5.22366
4.54767
3.89075
3.02473
1.44127
-0.209852
-1.203
-1.67676
-1.57375
-1.40958
-1.29245
-1.31201
-1.24402
-0.699175
-0.277177
-0.063263
0.304919
0.623736
0.798766
0.917098
0.952781
0.922076
0.947427
0.79892
0.485815
0.310132
0.207739
-0.00119742
-0.320346
-0.592888
-0.745928
-0.852945
-0.956521
-1.05178
-1.10907
-1.12455
-1.10939
-1.08449
-1.05539
-1.02032
-0.981903
-0.931984
-0.874348
-0.807729
-0.742222
-0.678515
-0.614322
-0.548169
-0.482223
-0.419811
-0.361781
-0.308406
-0.259222
-0.21648
-0.180142
-0.147752
-0.114767
-0.0813152
-0.0484982
-0.0188704
0.00514165
0.0232896
0.038756
0.0508417
0.0583374
0.0636414
0.0696602
0.0737771
0.0748673
0.0762344
0.0789717
0.0835891
0.0915312
0.101334
0.10917
0.115049
0.1205
0.125178
0.129205
0.132775
0.134679
0.134739
0.133146
0.129652
0.123875
0.115764
0.105248
0.0929416
0.0793175
0.0648382
0.0496301
0.0343028
0.017756
0.00651756
17.4797
15.5235
13.1154
10.2635
7.92878
6.00249
5.14308
4.43289
3.76756
2.88057
1.33743
-0.239591
-1.21605
-1.68287
-1.57157
-1.4317
-1.30827
-1.32369
-1.25517
-0.700751
-0.297666
-0.0757219
0.314406
0.629867
0.800383
0.909344
0.94523
0.93159
0.966468
0.792335
0.468276
0.308261
0.211601
0.000224436
-0.327793
-0.600167
-0.746981
-0.851366
-0.955746
-1.05285
-1.11014
-1.12501
-1.10893
-1.0839
-1.05521
-1.0198
-0.981449
-0.932882
-0.875154
-0.808534
-0.742441
-0.678748
-0.614659
-0.548785
-0.483119
-0.420884
-0.36286
-0.309555
-0.260509
-0.21778
-0.181063
-0.148214
-0.115149
-0.0818432
-0.0492657
-0.0200282
0.00389654
0.0224635
0.0380857
0.0500157
0.0579469
0.0640942
0.0701432
0.0740392
0.0758
0.0777535
0.080285
0.0851284
0.0934765
0.102761
0.11025
0.116223
0.121553
0.126064
0.129919
0.133159
0.134788
0.134596
0.132661
0.128848
0.122798
0.114471
0.103868
0.0915333
0.0779089
0.0634634
0.0483638
0.0331802
0.0169835
0.00674183
17.3895
15.435
13.0093
10.1651
7.85885
5.93169
5.02747
4.27227
3.58754
2.67674
1.1853
-0.2991
-1.24455
-1.69421
-1.57739
-1.46645
-1.33165
-1.33466
-1.26482
-0.705911
-0.315153
-0.0822328
0.319838
0.635556
0.80625
0.902509
0.93741
0.94698
0.989951
0.783248
0.446193
0.306374
0.217222
0.00074943
-0.337658
-0.606568
-0.747515
-0.850162
-0.955367
-1.05442
-1.11165
-1.12578
-1.10884
-1.08371
-1.05589
-1.02026
-0.981219
-0.933194
-0.875692
-0.809638
-0.74355
-0.679546
-0.615335
-0.549816
-0.484647
-0.422811
-0.364927
-0.311756
-0.262833
-0.219983
-0.182673
-0.149171
-0.1159
-0.0827262
-0.0504039
-0.0214405
0.00258335
0.0213637
0.0369961
0.0492017
0.0578116
0.0643601
0.0704164
0.0747321
0.0771329
0.0793679
0.082388
0.0875839
0.095571
0.104365
0.111821
0.117783
0.122863
0.127175
0.130746
0.133545
0.134783
0.134242
0.131907
0.12772
0.121369
0.112832
0.102139
0.0897929
0.0762155
0.0618706
0.0469873
0.0320719
0.0165749
0.00690221
17.2982
15.3399
12.8947
10.0561
7.78132
5.85111
4.89798
4.08931
3.37716
2.44472
1.01306
-0.367106
-1.27527
-1.69696
-1.57729
-1.50171
-1.3536
-1.34437
-1.27402
-0.713636
-0.329621
-0.0861425
0.317067
0.640039
0.816089
0.894075
0.928809
0.966517
1.01219
0.769359
0.426946
0.305169
0.224389
-0.00300089
-0.350162
-0.607589
-0.74568
-0.850118
-0.957699
-1.05747
-1.11387
-1.12706
-1.1098
-1.0836
-1.057
-1.02242
-0.983176
-0.934522
-0.876637
-0.810961
-0.744917
-0.680581
-0.616287
-0.551216
-0.48667
-0.425339
-0.367726
-0.314772
-0.265984
-0.222961
-0.185007
-0.150794
-0.117202
-0.0840814
-0.0519603
-0.0231852
0.000958169
0.0200379
0.0358909
0.0484393
0.0576339
0.0646441
0.0709683
0.0757766
0.0787915
0.0814929
0.0850735
0.0904682
0.0980547
0.106474
0.113817
0.119638
0.12444
0.128476
0.131653
0.133932
0.134689
0.133728
0.130952
0.126356
0.11967
0.110923
0.100161
0.0878538
0.0743977
0.0602539
0.0457211
0.0312001
0.0166817
0.00697849
17.2225
15.2519
12.7878
9.95853
7.71566
5.78133
4.77774
3.9076
3.16369
2.21107
0.844652
-0.429654
-1.30161
-1.68575
-1.5695
-1.53444
-1.37366
-1.35707
-1.28564
-0.727499
-0.345177
-0.0916263
0.303231
0.641354
0.828699
0.882224
0.919181
0.985064
1.02899
0.748401
0.420007
0.310078
0.227614
-0.018893
-0.360008
-0.605225
-0.742924
-0.853734
-0.96452
-1.06172
-1.11566
-1.12782
-1.11178
-1.08639
-1.05974
-1.02525
-0.985349
-0.935823
-0.877586
-0.812301
-0.746415
-0.681882
-0.617634
-0.553083
-0.489232
-0.428467
-0.371206
-0.318514
-0.269865
-0.226651
-0.188065
-0.153129
-0.119136
-0.0859822
-0.0539792
-0.0253033
-0.000950263
0.0185714
0.0347957
0.0477507
0.0575986
0.0652248
0.0719374
0.0772162
0.0808773
0.0841467
0.0881831
0.0936969
0.100968
0.108972
0.116038
0.121654
0.126156
0.129828
0.13255
0.134272
0.134498
0.133069
0.129831
0.124828
0.117833
0.108916
0.0981298
0.085927
0.0726737
0.0588207
0.0447493
0.0307013
0.0173193
0.00694749
17.1696
15.1764
12.6949
9.87979
7.66635
5.72457
4.66926
3.73175
2.95446
1.98151
0.683781
-0.487965
-1.32744
-1.66694
-1.56237
-1.57016
-1.39771
-1.37903
-1.30434
-0.752994
-0.367275
-0.103702
0.274171
0.636388
0.841545
0.864147
0.907867
1.00033
1.03587
0.722019
0.420936
0.323631
0.223084
-0.0478124
-0.373332
-0.593882
-0.7349
-0.860096
-0.975074
-1.06736
-1.11742
-1.129
-1.11413
-1.0903
-1.06323
-1.02851
-0.987773
-0.937296
-0.878786
-0.813882
-0.748259
-0.683691
-0.619617
-0.555642
-0.492528
-0.432369
-0.375525
-0.323116
-0.274587
-0.231157
-0.191943
-0.156274
-0.121796
-0.0884947
-0.0565041
-0.0278028
-0.00311875
0.0169489
0.033685
0.0471786
0.0577548
0.0660788
0.0732643
0.0790341
0.0833497
0.0871981
0.0916152
0.0972164
0.104184
0.111716
0.118415
0.123771
0.127938
0.131199
0.133424
0.134591
0.134276
0.132372
0.128691
0.123307
0.116032
0.106981
0.0962113
0.0841607
0.0711675
0.0576678
0.0441217
0.030573
0.0183566
0.00681238
17.1354
15.1111
12.618
9.81937
7.63092
5.6768
4.57304
3.56803
2.75986
1.76418
0.535589
-0.542723
-1.35478
-1.64656
-1.56151
-1.611
-1.42937
-1.41308
-1.33208
-0.794797
-0.39911
-0.125094
0.227403
0.624013
0.851703
0.838821
0.893762
1.01059
1.0261
0.692136
0.421654
0.336953
0.215873
-0.0813076
-0.38532
-0.584983
-0.729566
-0.869265
-0.987372
-1.07404
-1.11972
-1.13061
-1.11786
-1.0951
-1.06737
-1.03218
-0.990526
-0.939135
-0.880378
-0.815817
-0.750542
-0.686082
-0.6223
-0.558939
-0.496573
-0.437036
-0.380633
-0.3285
-0.280054
-0.236381
-0.196552
-0.160152
-0.125129
-0.0915727
-0.0594721
-0.0306064
-0.00550568
0.015195
0.0325786
0.0467164
0.0580788
0.0671632
0.0748952
0.0811991
0.0861804
0.0905973
0.0953661
0.101049
0.107729
0.114779
0.121057
0.126085
0.129874
0.132697
0.134417
0.135032
0.13418
0.131798
0.127686
0.121944
0.114415
0.105253
0.0945206
0.0826431
0.0699354
0.0568123
0.0438065
0.0307373
0.0196147
0.00661313
17.1086
15.0491
12.5521
9.76584
7.59516
5.62467
4.47699
3.40949
2.57627
1.55615
0.396365
-0.600065
-1.38869
-1.63061
-1.57233
-1.66039
-1.4733
-1.46321
-1.37234
-0.857852
-0.442898
-0.159953
0.161981
0.603213
0.854079
0.80877
0.878254
1.01188
0.988551
0.6568
0.426288
0.349673
0.203381
-0.115625
-0.39525
-0.581721
-0.728846
-0.881883
-1.00101
-1.08113
-1.12285
-1.13334
-1.12268
-1.10054
-1.07207
-1.03629
-0.993783
-0.941562
-0.882649
-0.818417
-0.753535
-0.689302
-0.62589
-0.563162
-0.501542
-0.442627
-0.386664
-0.334784
-0.286372
-0.242416
-0.201953
-0.164807
-0.129166
-0.0952343
-0.0628726
-0.0337125
-0.00809651
0.0133323
0.0314637
0.046354
0.0585688
0.0684481
0.0768006
0.083699
0.0893283
0.0942946
0.0994023
0.105143
0.111534
0.118113
0.123938
0.12859
0.131979
0.134349
0.135557
0.135628
0.134244
0.131389
0.126858
0.120775
0.113007
0.103748
0.0930581
0.081356
0.0689345
0.0561849
0.0437016
0.0310699
0.0209231
0.00638446
17.0801
14.9885
12.4888
9.7094
7.54961
5.56532
4.38072
3.25823
2.4062
1.35914
0.266064
-0.663136
-1.42909
-1.62028
-1.59658
-1.71744
-1.53138
-1.53085
-1.42651
-0.943635
-0.500613
-0.210759
0.0824024
0.572025
0.841983
0.774199
0.863328
1.00389
0.922776
0.617436
0.434816
0.361375
0.184543
-0.146826
-0.404912
-0.582624
-0.735192
-0.897064
-1.01533
-1.08865
-1.12673
-1.1378
-1.12835
-1.10644
-1.07721
-1.04081
-0.997534
-0.944604
-0.885566
-0.821644
-0.757205
-0.693289
-0.630317
-0.568228
-0.507338
-0.449024
-0.393477
-0.341819
-0.293395
-0.249116
-0.208017
-0.170116
-0.1338
-0.0993849
-0.0666396
-0.0370638
-0.0108293
0.0113836
0.0303382
0.0460686
0.0591622
0.0698627
0.0789036
0.0864245
0.0926801
0.0981756
0.1036
0.109387
0.115525
0.121669
0.127046
0.131304
0.134284
0.136197
0.136898
0.13644
0.134538
0.131216
0.126276
0.119864
0.111867
0.102508
0.0918512
0.0803052
0.0681466
0.0557409
0.0437341
0.0314818
0.0221755
0.00615144
17.0516
14.9251
12.4175
9.6416
7.48595
5.49421
4.27709
3.10573
2.23924
1.16409
0.137854
-0.737077
-1.47762
-1.62026
-1.63953
-1.78295
-1.60845
-1.61627
-1.49593
-1.05261
-0.573902
-0.278265
-0.00613773
0.528454
0.806406
0.730755
0.84517
0.988589
0.843526
0.581777
0.441495
0.365814
0.157398
-0.175739
-0.41706
-0.58716
-0.748416
-0.914314
-1.02969
-1.09684
-1.13174
-1.14349
-1.13463
-1.11272
-1.0828
-1.04585
-1.00195
-0.948453
-0.889388
-0.825782
-0.76179
-0.698252
-0.635756
-0.574302
-0.514104
-0.456359
-0.401197
-0.349715
-0.301216
-0.256568
-0.214801
-0.176112
-0.139049
-0.104042
-0.0707819
-0.04066
-0.0137189
0.00933383
0.0291914
0.0458186
0.0598201
0.0713789
0.0811601
0.0893324
0.0962124
0.102228
0.107966
0.113808
0.11973
0.125478
0.130417
0.134266
0.136822
0.138273
0.138467
0.137486
0.135071
0.131284
0.125937
0.119196
0.110965
0.101493
0.0908447
0.0794236
0.0674913
0.0553878
0.0438007
0.0318715
0.0232798
0.00591764
17.0185
14.8562
12.336
9.56176
7.40867
5.41583
4.16826
2.95275
2.07396
0.972104
0.0132204
-0.821005
-1.5317
-1.6325
-1.70076
-1.85458
-1.70607
-1.71506
-1.57951
-1.18165
-0.66186
-0.359796
-0.0993916
0.472769
0.743953
0.680353
0.822598
0.963073
0.773203
0.55596
0.444413
0.353973
0.120596
-0.203202
-0.432144
-0.598136
-0.767049
-0.933111
-1.04386
-1.1057
-1.13829
-1.15006
-1.14134
-1.11928
-1.08877
-1.05137
-1.007
-0.953065
-0.893993
-0.830686
-0.767156
-0.704033
-0.64204
-0.581202
-0.521656
-0.46444
-0.409624
-0.358272
-0.309648
-0.26459
-0.222139
-0.182642
-0.144784
-0.109096
-0.0752097
-0.0444372
-0.0167188
0.00722513
0.0280307
0.0455917
0.0605266
0.0729629
0.083517
0.0923692
0.0998725
0.106397
0.112445
0.118349
0.124085
0.129473
0.13399
0.137425
0.139552
0.140539
0.140233
0.138739
0.135822
0.131575
0.125823
0.118753
0.110281
0.100677
0.0900085
0.0786737
0.0669228
0.0550711
0.0438397
0.0321791
0.0241866
0.00568717
16.9732
14.7733
12.238
9.46766
7.31787
5.32639
4.04638
2.79294
1.90144
0.779355
-0.110937
-0.916953
-1.58983
-1.66071
-1.78071
-1.93461
-1.82425
-1.81957
-1.6778
-1.32822
-0.763877
-0.452531
-0.197248
0.402886
0.653628
0.620535
0.794718
0.925238
0.712496
0.530481
0.439364
0.323973
0.074115
-0.232218
-0.449755
-0.617226
-0.790714
-0.953889
-1.05864
-1.11556
-1.14636
-1.15746
-1.14852
-1.12622
-1.09526
-1.05755
-1.01287
-0.958625
-0.899628
-0.836616
-0.773518
-0.710823
-0.649323
-0.589071
-0.530124
-0.473389
-0.418867
-0.367591
-0.31878
-0.273263
-0.230087
-0.189746
-0.151028
-0.114566
-0.0799406
-0.0484179
-0.0198449
0.00504352
0.0268408
0.0453789
0.0612746
0.0746124
0.0859703
0.0955252
0.10365
0.110671
0.117019
0.122992
0.128567
0.133629
0.137746
0.140769
0.142466
0.142994
0.142194
0.140197
0.136784
0.13208
0.125921
0.118512
0.109783
0.100022
0.0892978
0.0780054
0.0663855
0.0547319
0.0437916
0.0323537
0.0248619
0.00545986
16.9121
14.6764
12.1266
9.36457
7.21837
5.22932
3.91518
2.63216
1.72594
0.59142
-0.234175
-1.02146
-1.64576
-1.70457
-1.87519
-2.02203
-1.95744
-1.92776
-1.79032
-1.48115
-0.877668
-0.55407
-0.295503
0.319554
0.545062
0.557635
0.763218
0.871305
0.656677
0.498794
0.423898
0.282004
0.0221674
-0.264036
-0.469885
-0.64249
-0.818049
-0.976331
-1.07434
-1.12649
-1.15558
-1.16551
-1.15609
-1.13351
-1.10222
-1.06433
-1.01947
-0.965026
-0.906091
-0.843343
-0.780659
-0.718382
-0.657364
-0.597659
-0.539259
-0.482953
-0.428678
-0.377427
-0.328386
-0.282374
-0.238458
-0.197254
-0.157637
-0.120331
-0.0848875
-0.0525367
-0.0230528
0.00281824
0.0256359
0.0451758
0.0620472
0.0762956
0.0884701
0.0987348
0.107473
0.114978
0.121621
0.127672
0.133115
0.137889
0.141633
0.144258
0.145533
0.145608
0.144327
0.141838
0.137938
0.132778
0.126208
0.118451
0.109449
0.0995035
0.0886862
0.0773906
0.0658498
0.0543396
0.0436271
0.032371
0.0252937
0.00523367
16.8271
14.56
12.0014
9.24939
7.10551
5.11959
3.77275
2.46961
1.54492
0.40694
-0.360447
-1.13328
-1.69966
-1.76666
-1.97997
-2.11565
-2.10015
-2.04095
-1.91438
-1.62869
-0.99998
-0.666478
-0.389997
0.226977
0.427292
0.49138
0.725548
0.799058
0.600976
0.460651
0.392346
0.23003
-0.0331108
-0.299979
-0.495058
-0.672695
-0.848123
-1.00034
-1.09127
-1.13867
-1.16583
-1.17425
-1.16416
-1.1413
-1.10983
-1.07189
-1.02698
-0.972423
-0.913605
-0.851097
-0.788775
-0.726889
-0.666313
-0.607105
-0.549186
-0.49325
-0.439162
-0.387883
-0.338554
-0.292006
-0.24731
-0.205209
-0.164641
-0.126422
-0.0900743
-0.0568188
-0.0263646
0.000528912
0.0243994
0.0449669
0.0628307
0.0780007
0.091005
0.101988
0.111338
0.119316
0.126254
0.132395
0.137733
0.142252
0.145652
0.147894
0.148754
0.148386
0.146632
0.143657
0.139275
0.133659
0.12667
0.118552
0.109254
0.0990949
0.0881455
0.0768007
0.0652875
0.053868
0.0433244
0.0322168
0.025481
0.00500791
16.7231
14.4325
11.8681
9.12433
6.98307
5.00271
3.62851
2.31193
1.36433
0.230607
-0.488292
-1.2485
-1.75875
-1.84395
-2.08176
-2.21447
-2.24792
-2.16041
-2.04443
-1.7679
-1.1293
-0.786946
-0.479767
0.131209
0.312986
0.418592
0.677001
0.715637
0.542241
0.421176
0.348307
0.171162
-0.0890348
-0.338645
-0.525789
-0.706492
-0.879744
-1.02507
-1.10898
-1.15181
-1.17674
-1.18347
-1.17264
-1.14954
-1.11799
-1.08012
-1.03525
-0.980632
-0.921888
-0.859576
-0.797572
-0.736038
-0.675868
-0.617103
-0.559609
-0.503985
-0.450038
-0.398687
-0.349038
-0.301927
-0.256445
-0.213431
-0.171889
-0.13271
-0.0954071
-0.0611952
-0.0297334
-0.00179533
0.0231407
0.0447442
0.0636028
0.0796937
0.0935287
0.10523
0.115185
0.123629
0.130861
0.137105
0.142365
0.146663
0.14975
0.151628
0.15209
0.151291
0.149076
0.145627
0.14077
0.134698
0.127287
0.118796
0.109185
0.0987842
0.0876672
0.0762303
0.0646968
0.0533184
0.0428883
0.0318993
0.0254394
0.0047844
16.6004
14.2929
11.725
8.98682
6.84911
4.87811
3.47995
2.15376
1.18248
0.0595839
-0.620111
-1.36525
-1.82666
-1.93361
-2.17739
-2.32079
-2.39578
-2.28364
-2.17431
-1.90088
-1.26295
-0.908298
-0.571435
0.0265531
0.210129
0.339171
0.605446
0.622827
0.475871
0.37675
0.29387
0.106508
-0.146137
-0.380467
-0.562446
-0.743351
-0.912479
-1.0504
-1.12755
-1.16601
-1.18843
-1.19338
-1.18175
-1.15842
-1.12688
-1.08915
-1.0444
-0.989766
-0.93113
-0.868978
-0.807229
-0.745999
-0.686174
-0.627791
-0.57065
-0.515279
-0.461414
-0.409943
-0.359928
-0.312221
-0.26592
-0.22197
-0.179416
-0.139232
-0.100918
-0.0656991
-0.0331906
-0.00418379
0.0218359
0.0444869
0.0643481
0.0813648
0.0960366
0.10846
0.119019
0.127926
0.135456
0.141819
0.147028
0.151137
0.153939
0.155476
0.155555
0.154338
0.151675
0.14776
0.142433
0.135906
0.128066
0.11919
0.109246
0.0985753
0.0872548
0.0756845
0.0640841
0.0526993
0.042331
0.0314343
0.0251906
0.00456625
16.463
14.1465
11.5762
8.84309
6.71064
4.75075
3.33236
1.99744
1.00458
-0.102413
-0.754881
-1.48037
-1.90242
-2.03183
-2.27372
-2.43194
-2.5349
-2.40914
-2.30306
-2.02791
-1.39991
-1.02427
-0.665091
-0.0921217
0.116239
0.264004
0.516022
0.523647
0.403052
0.326182
0.23309
0.0391765
-0.203921
-0.424235
-0.602282
-0.781518
-0.945218
-1.07547
-1.1464
-1.18088
-1.2006
-1.20377
-1.19135
-1.16781
-1.13631
-1.09877
-1.05418
-0.999564
-0.940981
-0.878944
-0.817396
-0.756417
-0.696887
-0.638827
-0.581982
-0.52681
-0.472987
-0.421362
-0.37096
-0.322644
-0.27553
-0.230642
-0.187072
-0.145864
-0.106517
-0.0702683
-0.0366987
-0.00661706
0.0204848
0.0441799
0.065039
0.0829766
0.0984814
0.111624
0.122783
0.132151
0.139986
0.146483
0.151669
0.155622
0.158172
0.159394
0.159111
0.157495
0.154399
0.150032
0.144244
0.137265
0.128996
0.119727
0.109435
0.0984713
0.0869179
0.0751779
0.0634691
0.0520348
0.0416802
0.0308496
0.0247656
0.00435846
16.3079
13.9885
11.4179
8.69185
6.56746
4.616
3.18304
1.83937
0.828218
-0.259929
-0.893719
-1.5937
-1.98439
-2.1344
-2.37411
-2.54549
-2.6617
-2.5356
-2.43086
-2.1446
-1.53347
-1.13687
-0.756475
-0.220503
0.0214235
0.19156
0.416532
0.42067
0.32414
0.266452
0.16531
-0.031138
-0.263485
-0.47093
-0.644677
-0.820309
-0.977627
-1.10035
-1.16572
-1.1966
-1.21352
-1.2149
-1.20165
-1.17785
-1.1464
-1.10908
-1.06468
-1.01011
-0.951601
-0.889645
-0.828243
-0.767456
-0.708154
-0.65035
-0.59373
-0.5387
-0.484865
-0.433049
-0.382226
-0.333284
-0.28534
-0.239508
-0.194908
-0.152659
-0.112253
-0.0749512
-0.0403024
-0.00913638
0.0190539
0.0437964
0.0656573
0.0845191
0.100862
0.114728
0.126492
0.136325
0.144476
0.151128
0.156318
0.160148
0.162478
0.163414
0.162792
0.160796
0.157283
0.152476
0.146235
0.13881
0.130108
0.120438
0.109781
0.0985027
0.0866867
0.0747419
0.0628837
0.0513577
0.04097
0.0301796
0.0241986
0.00416681
16.1375
13.8237
11.2549
8.53781
6.42577
4.47798
3.03616
1.68324
0.6577
-0.41376
-1.03289
-1.70061
-2.07336
-2.24104
-2.4778
-2.65791
-2.7808
-2.66109
-2.55271
-2.25632
-1.6649
-1.24835
-0.844473
-0.348581
-0.0758032
0.120111
0.316524
0.321009
0.244338
0.200203
0.0939748
-0.102104
-0.323187
-0.518609
-0.687361
-0.858333
-1.0089
-1.12445
-1.18495
-1.21271
-1.22684
-1.22647
-1.21239
-1.18831
-1.15688
-1.11977
-1.07559
-1.02106
-0.962593
-0.900684
-0.839378
-0.778732
-0.719603
-0.661996
-0.605549
-0.550614
-0.496738
-0.444707
-0.393462
-0.343899
-0.29515
-0.248395
-0.202787
-0.159508
-0.118052
-0.0797013
-0.0439802
-0.011738
0.0175289
0.0433099
0.0661658
0.0859472
0.103125
0.117714
0.130086
0.140391
0.148871
0.155701
0.160926
0.164666
0.166812
0.167493
0.166561
0.164208
0.160299
0.15507
0.148391
0.140527
0.131397
0.121322
0.110291
0.0986821
0.0865811
0.0744017
0.0623592
0.0507036
0.0402399
0.0294617
0.0235273
0.00399789
15.9542
13.6505
11.0862
8.37809
6.2819
4.3344
2.88792
1.52677
0.491933
-0.56569
-1.17082
-1.80359
-2.16787
-2.34896
-2.58233
-2.76853
-2.89408
-2.78088
-2.66058
-2.36114
-1.79712
-1.35723
-0.931187
-0.471657
-0.174563
0.0450432
0.216459
0.225614
0.165092
0.127243
0.0188264
-0.173778
-0.383205
-0.567511
-0.730351
-0.895527
-1.03915
-1.14802
-1.20436
-1.22943
-1.24077
-1.23867
-1.22369
-1.19926
-1.16782
-1.1309
-1.08694
-1.03249
-0.974091
-0.912213
-0.850965
-0.790404
-0.731382
-0.673908
-0.617569
-0.562679
-0.50872
-0.456453
-0.40477
-0.354592
-0.305044
-0.257385
-0.210784
-0.166489
-0.123986
-0.0845896
-0.0477957
-0.0144798
0.0158639
0.042685
0.0665415
0.0872492
0.105271
0.120595
0.133586
0.144379
0.153208
0.160242
0.165534
0.169224
0.171223
0.171683
0.170469
0.167784
0.163501
0.157867
0.150763
0.14247
0.132914
0.12243
0.111015
0.0990589
0.086649
0.0742055
0.0619427
0.0501193
0.0395355
0.0287385
0.0227906
0.00385764
15.766
13.4744
10.9162
8.21674
6.13652
4.19025
2.74284
1.37276
0.332665
-0.712447
-1.30476
-1.90624
-2.26342
-2.45304
-2.68902
-2.88106
-3.00301
-2.8964
-2.75944
-2.45672
-1.92654
-1.46219
-1.01647
-0.585963
-0.270961
-0.0314217
0.120759
0.135924
0.0893091
0.0533207
-0.055823
-0.243274
-0.441245
-0.615207
-0.771789
-0.931017
-1.06793
-1.1706
-1.22346
-1.24625
-1.25486
-1.25107
-1.2352
-1.21037
-1.17887
-1.14212
-1.09838
-1.04402
-0.985669
-0.923816
-0.86259
-0.802072
-0.743108
-0.685717
-0.629446
-0.574568
-0.520513
-0.468006
-0.415909
-0.365145
-0.314849
-0.266334
-0.218791
-0.173521
-0.130007
-0.0895896
-0.0517445
-0.0173724
0.0140336
0.0418875
0.0667413
0.0883761
0.107247
0.123313
0.136935
0.148231
0.157432
0.164699
0.170094
0.173772
0.175665
0.175941
0.174478
0.17149
0.166859
0.160843
0.153334
0.144624
0.134651
0.12376
0.11196
0.0996458
0.0869101
0.0741784
0.0616656
0.0496403
0.0388959
0.0280471
0.0220251
0.00375098
15.5675
13.2903
10.7411
8.05096
5.986
4.04382
2.59864
1.2188
0.176582
-0.855166
-1.43509
-2.00923
-2.35749
-2.55031
-2.79362
-2.99383
-3.10472
-3.00484
-2.85274
-2.54103
-2.04159
-1.56051
-1.10086
-0.690095
-0.363543
-0.110842
0.0286474
0.0499995
0.0151635
-0.0206732
-0.129478
-0.310458
-0.497508
-0.662176
-0.812224
-0.965125
-1.09551
-1.19252
-1.24249
-1.2633
-1.26925
-1.26381
-1.247
-1.22171
-1.19008
-1.15347
-1.10995
-1.0557
-0.997453
-0.935629
-0.874412
-0.813894
-0.754937
-0.697578
-0.641324
-0.586425
-0.532252
-0.479508
-0.427006
-0.375691
-0.324684
-0.275361
-0.226917
-0.18071
-0.13621
-0.0947898
-0.0559025
-0.02048
0.0119909
0.0408844
0.0667475
0.0893236
0.109061
0.125888
0.140165
0.151989
0.161593
0.169127
0.174665
0.178373
0.180201
0.180331
0.178654
0.175393
0.17044
0.164064
0.156167
0.147054
0.136669
0.125375
0.113183
0.1005
0.0874189
0.0743734
0.0615783
0.0493153
0.0383673
0.027429
0.0212674
0.00368089
15.3614
13.1017
10.5643
7.8857
5.83446
3.89891
2.45733
1.06864
0.0263314
-0.992928
-1.56222
-2.1119
-2.45043
-2.64468
-2.89378
-3.10131
-3.20176
-3.10964
-2.94387
-2.61918
-2.13796
-1.64919
-1.18475
-0.782693
-0.448884
-0.18895
-0.0564215
-0.0299147
-0.0550541
-0.0908647
-0.198837
-0.373173
-0.550279
-0.706567
-0.850305
-0.997232
-1.12151
-1.21329
-1.26087
-1.27993
-1.2834
-1.2764
-1.25869
-1.23292
-1.20113
-1.16461
-1.12129
-1.06718
-1.00902
-0.94724
-0.886016
-0.825477
-0.766497
-0.709141
-0.652888
-0.597959
-0.54368
-0.490722
-0.437867
-0.386057
-0.334412
-0.284352
-0.235081
-0.187993
-0.142555
-0.100166
-0.0602623
-0.0238052
0.00972112
0.0396532
0.0665287
0.0900544
0.110669
0.128275
0.143226
0.155605
0.16564
0.173476
0.179197
0.182979
0.184784
0.184808
0.182952
0.179452
0.174207
0.167499
0.159237
0.149737
0.138955
0.127263
0.114681
0.101623
0.0881835
0.074804
0.0617007
0.0491684
0.037978
0.0269111
0.0205459
0.00364769
15.1431
12.9037
10.3828
7.71939
5.68113
3.75397
2.31684
0.921262
-0.118185
-1.12698
-1.68758
-2.21346
-2.54192
-2.7372
-2.9874
-3.1959
-3.29189
-3.20927
-3.02761
-2.68906
-2.21516
-1.72371
-1.26441
-0.864184
-0.5258
-0.264494
-0.135697
-0.104818
-0.122408
-0.158151
-0.264772
-0.432278
-0.600464
-0.749385
-0.886883
-1.02774
-1.14617
-1.23317
-1.27877
-1.29627
-1.29746
-1.28898
-1.2704
-1.24411
-1.2121
-1.17562
-1.13248
-1.07851
-1.02049
-0.958785
-0.897565
-0.836986
-0.777961
-0.720585
-0.66431
-0.609348
-0.55497
-0.501829
-0.448659
-0.396411
-0.344187
-0.293454
-0.243406
-0.195483
-0.149137
-0.105795
-0.0648828
-0.0273907
0.00720139
0.0381858
0.0660925
0.0905887
0.112106
0.130517
0.146173
0.159139
0.169639
0.177818
0.183766
0.187665
0.18949
0.189447
0.187449
0.183743
0.178234
0.171219
0.162611
0.15274
0.14157
0.129487
0.116512
0.103068
0.0892539
0.0755176
0.0620763
0.0492402
0.0377649
0.0265251
0.0198894
0.00364994
14.9251
12.7035
10.2002
7.55562
5.52966
3.612
2.17976
0.779304
-0.255665
-1.25446
-1.80871
-2.31385
-2.63324
-2.82894
-3.07694
-3.27988
-3.37396
-3.30297
-3.10443
-2.75282
-2.28152
-1.78589
-1.33425
-0.934041
-0.592688
-0.33243
-0.206431
-0.172645
-0.184403
-0.220061
-0.325347
-0.486534
-0.646891
-0.789174
-0.920837
-1.05611
-1.16912
-1.25169
-1.29561
-1.31171
-1.31092
-1.3011
-1.28171
-1.25496
-1.22271
-1.18619
-1.14315
-1.08937
-1.03149
-0.969883
-0.908669
-0.848062
-0.788995
-0.731607
-0.675331
-0.620359
-0.565921
-0.512648
-0.459229
-0.406615
-0.353894
-0.302561
-0.251809
-0.203104
-0.15589
-0.111625
-0.0697223
-0.0312028
0.00445201
0.0364925
0.0654374
0.090916
0.113352
0.132587
0.148972
0.162551
0.17355
0.182108
0.188324
0.192381
0.194267
0.194196
0.192092
0.188213
0.182473
0.175177
0.166247
0.156025
0.144484
0.132017
0.118652
0.104819
0.0906187
0.076508
0.0627054
0.0495361
0.0377378
0.0262821
0.0193153
0.00368371
14.7049
12.4983
10.0138
7.39167
5.37868
3.4715
2.04533
0.641916
-0.388052
-1.37543
-1.92301
-2.41225
-2.72423
-2.91743
-3.16081
-3.35614
-3.44575
-3.38201
-3.16945
-2.80814
-2.33862
-1.83701
-1.39133
-0.99225
-0.650374
-0.393477
-0.270287
-0.234679
-0.24232
-0.27804
-0.381915
-0.53711
-0.690619
-0.827014
-0.953038
-1.08273
-1.19059
-1.26911
-1.31158
-1.32641
-1.32397
-1.3129
-1.29279
-1.26559
-1.23306
-1.19645
-1.15347
-1.09986
-1.04216
-0.980672
-0.919501
-0.858882
-0.799796
-0.742419
-0.686158
-0.631207
-0.576745
-0.523388
-0.469771
-0.416851
-0.363688
-0.311812
-0.260395
-0.210941
-0.162876
-0.117696
-0.0748007
-0.0352453
0.00148754
0.0346009
0.0646046
0.0910881
0.114467
0.134557
0.1517
0.165924
0.177459
0.186435
0.192958
0.197214
0.199199
0.199137
0.196963
0.192943
0.187
0.179447
0.170215
0.159659
0.147756
0.13491
0.121152
0.10692
0.092319
0.0778127
0.0636209
0.0500846
0.0379216
0.0262031
0.0188437
0.00374565
14.4843
12.2936
9.82778
7.23044
5.23067
3.3342
1.9153
0.510663
-0.515061
-1.48949
-2.03013
-2.50743
-2.81366
-3.00367
-3.24135
-3.42929
-3.51176
-3.44771
-3.22489
-2.85883
-2.38905
-1.87966
-1.43681
-1.0396
-0.699113
-0.445945
-0.325669
-0.289491
-0.294312
-0.330385
-0.433142
-0.583049
-0.730604
-0.861621
-0.982503
-1.10713
-1.21027
-1.28505
-1.32619
-1.33988
-1.3362
-1.32401
-1.30328
-1.27572
-1.24291
-1.2061
-1.16305
-1.10965
-1.05213
-0.990808
-0.929708
-0.869134
-0.810083
-0.752773
-0.696587
-0.64171
-0.587282
-0.533897
-0.480147
-0.426982
-0.373443
-0.321078
-0.269048
-0.218877
-0.169991
-0.123913
-0.0800356
-0.0394469
-0.0016376
0.032552
0.0636203
0.0911188
0.115455
0.136416
0.154337
0.169231
0.18133
0.190757
0.197622
0.202111
0.20423
0.204212
0.202001
0.197871
0.191753
0.183969
0.174459
0.163587
0.151337
0.13812
0.123971
0.109337
0.0943252
0.0794076
0.0648051
0.0508729
0.0383101
0.0262861
0.0184816
0.00383107
14.2557
12.0845
9.63957
7.06924
5.08449
3.19926
1.78893
0.384839
-0.637554
-1.59812
-2.13209
-2.59873
-2.89803
-3.08609
-3.3181
-3.49795
-3.57169
-3.50033
-3.26879
-2.90138
-2.4294
-1.91292
-1.4719
-1.07774
-0.740546
-0.49217
-0.374841
-0.338831
-0.342041
-0.378694
-0.480405
-0.625469
-0.767835
-0.894026
-1.01009
-1.12969
-1.22839
-1.29981
-1.33963
-1.3524
-1.34791
-1.33466
-1.31338
-1.28546
-1.25234
-1.21526
-1.17207
-1.11883
-1.06154
-1.00043
-0.939472
-0.879012
-0.820074
-0.762902
-0.706846
-0.6521
-0.597751
-0.544383
-0.490537
-0.437168
-0.383287
-0.330463
-0.277838
-0.226966
-0.177262
-0.130285
-0.0854155
-0.0437828
-0.0048825
0.0303983
0.0625491
0.0910826
0.1164
0.138253
0.156978
0.172571
0.185266
0.195176
0.202415
0.20717
0.209456
0.209513
0.207295
0.203082
0.196814
0.188822
0.179052
0.167878
0.155287
0.141702
0.127158
0.112113
0.0966752
0.0813256
0.0662846
0.0519237
0.0389223
0.0265455
0.0182425
0.00393774
14.0225
11.8757
9.45252
6.91064
4.94305
3.06936
1.66771
0.265708
-0.754393
-1.7013
-2.23004
-2.68656
-2.97699
-3.16618
-3.39368
-3.56369
-3.62815
-3.54816
-3.30716
-2.93734
-2.46158
-1.93856
-1.49886
-1.10811
-0.774982
-0.531161
-0.416821
-0.381797
-0.384207
-0.421748
-0.522701
-0.663553
-0.801343
-0.923099
-1.03494
-1.15005
-1.24473
-1.31309
-1.35159
-1.36382
-1.35881
-1.34454
-1.32276
-1.29453
-1.26109
-1.22362
-1.18015
-1.12716
-1.07011
-1.00925
-0.948503
-0.888259
-0.829535
-0.772597
-0.716759
-0.662209
-0.607994
-0.554684
-0.500783
-0.447245
-0.393058
-0.339804
-0.286611
-0.235058
-0.184556
-0.136688
-0.0908356
-0.048163
-0.00817607
0.0281956
0.0614307
0.0910053
0.117309
0.140067
0.159611
0.175922
0.189233
0.199649
0.207287
0.212335
0.214817
0.214977
0.212779
0.208509
0.202116
0.193938
0.183929
0.172467
0.159546
0.145597
0.130661
0.115201
0.099329
0.0835323
0.0680324
0.053217
0.039745
0.0269725
0.0181261
0.00406303
13.7872
11.6638
9.26362
6.7526
4.80603
2.94469
1.55201
0.153663
-0.865027
-1.79992
-2.32431
-2.77112
-3.0522
-3.24264
-3.46473
-3.62417
-3.67969
-3.59112
-3.33906
-2.96391
-2.4837
-1.95635
-1.51843
-1.1317
-0.803511
-0.565067
-0.453847