# vtk DataFile Version 2.0
track0
ASCII
DATASET POLYDATA
POINTS 10809 float
-0.0205 0.001 1e-05
-0.0202034 0.00100023 1e-05
-0.0199069 0.00100077 1e-05
-0.0196103 0.0010015 1e-05
-0.0193137 0.00100243 1e-05
-0.0190172 0.00100355 1e-05
-0.0187132 0.00100513 1e-05
-0.0184093 0.00100627 1e-05
-0.0181054 0.00100736 1e-05
-0.0178015 0.0010084 1e-05
-0.0174976 0.00100941 1e-05
-0.0172058 0.00101071 1e-05
-0.016914 0.00101143 1e-05
-0.0166222 0.00101212 1e-05
-0.0163305 0.00101278 1e-05
-0.0160387 0.00101341 1e-05
-0.0157586 0.00101437 1e-05
-0.0154784 0.00101494 1e-05
-0.0151983 0.00101555 1e-05
-0.0149182 0.0010162 1e-05
-0.0146381 0.00101689 1e-05
-0.0143692 0.00101788 1e-05
-0.0141002 0.00101864 1e-05
-0.0138313 0.00101945 1e-05
-0.0135624 0.00102032 1e-05
-0.0132934 0.00102125 1e-05
-0.0130353 0.00102237 1e-05
-0.0127771 0.00102336 1e-05
-0.0125189 0.0010244 1e-05
-0.0122607 0.00102547 1e-05
-0.0120025 0.00102659 1e-05
-0.0117547 0.0010278 1e-05
-0.0115068 0.00102894 1e-05
-0.0112589 0.00103011 1e-05
-0.0110111 0.00103131 1e-05
-0.0107632 0.00103253 1e-05
-0.0105252 0.00103377 1e-05
-0.0102873 0.001035 1e-05
-0.0100493 0.00103623 1e-05
-0.00981133 0.00103749 1e-05
-0.00957337 0.00103876 1e-05
-0.00951822 0.00103906 1e-05
-0.00946308 0.00103935 1e-05
-0.00940793 0.00103965 1e-05
-0.00935279 0.00103995 1e-05
-0.00929776 0.00104025 1e-05
-0.00912442 0.0010412 1e-05
-0.00895109 0.00104215 1e-05
-0.00877775 0.00104311 1e-05
-0.00860442 0.00104407 1e-05
-0.00843108 0.00104503 1e-05
-0.00821175 0.00104626 1e-05
-0.00799242 0.00104749 1e-05
-0.00777309 0.00104873 1e-05
-0.00755376 0.00104997 1e-05
-0.00733443 0.00105121 1e-05
-0.00712387 0.0010524 1e-05
-0.0069133 0.00105359 1e-05
-0.00670273 0.00105479 1e-05
-0.00649217 0.00105599 1e-05
-0.0062816 0.00105719 1e-05
-0.00607944 0.00105832 1e-05
-0.00587729 0.00105947 1e-05
-0.00567514 0.00106061 1e-05
-0.00547298 0.00106175 1e-05
-0.00527083 0.00106289 1e-05
-0.00507675 0.00106397 1e-05
-0.00488267 0.00106505 1e-05
-0.0046886 0.00106613 1e-05
-0.00449452 0.00106721 1e-05
-0.00430044 0.00106828 1e-05
-0.00411412 0.0010693 1e-05
-0.0039278 0.00107031 1e-05
-0.00374147 0.00107133 1e-05
-0.00355515 0.00107233 1e-05
-0.00336883 0.00107333 1e-05
-0.00318995 0.00107428 1e-05
-0.00301107 0.00107522 1e-05
-0.00283219 0.00107616 1e-05
-0.00265331 0.00107709 1e-05
-0.00247443 0.00107802 1e-05
-0.0023027 0.00107889 1e-05
-0.00213097 0.00107976 1e-05
-0.00195924 0.00108062 1e-05
-0.0017875 0.00108147 1e-05
-0.00161577 0.00108231 1e-05
-0.0014509 0.00108309 1e-05
-0.00128603 0.00108387 1e-05
-0.00112116 0.00108464 1e-05
-0.000956289 0.00108539 1e-05
-0.000791418 0.00108613 1e-05
-0.000633135 0.00108681 1e-05
-0.000474851 0.00108748 1e-05
-0.000316567 0.00108813 1e-05
-0.000158283 0.00108876 1e-05
0 0.00108936 1e-05
0.000105677 0.00108974 1e-05
0.000211355 0.00109011 1e-05
0.000317032 0.00109048 1e-05
0.00042271 0.00109082 1e-05
0.000528387 0.00109116 1e-05
0.000634886 0.00109148 1e-05
0.000741385 0.00109179 1e-05
0.000847885 0.0010921 1e-05
0.000954384 0.00109239 1e-05
0.00106088 0.00109268 1e-05
0.00116821 0.00109295 1e-05
0.00127554 0.00109323 1e-05
0.00138286 0.00109349 1e-05
0.00149019 0.00109375 1e-05
0.00159752 0.00109399 1e-05
0.00170568 0.00109423 1e-05
0.00181384 0.00109446 1e-05
0.001922 0.00109468 1e-05
0.00203016 0.0010949 1e-05
0.00213833 0.00109511 1e-05
0.00224733 0.0010953 1e-05
0.00235633 0.00109549 1e-05
0.00246533 0.00109568 1e-05
0.00257434 0.00109586 1e-05
0.00268334 0.00109604 1e-05
0.00279319 0.00109619 1e-05
0.00290304 0.00109636 1e-05
0.00301289 0.00109652 1e-05
0.00312274 0.00109667 1e-05
0.00323259 0.00109682 1e-05
0.00334329 0.00109695 1e-05
0.003454 0.00109709 1e-05
0.0035647 0.00109722 1e-05
0.0036754 0.00109735 1e-05
0.00378611 0.00109748 1e-05
0.00389767 0.00109759 1e-05
0.00400924 0.00109771 1e-05
0.0041208 0.00109782 1e-05
0.00423237 0.00109793 1e-05
0.00434393 0.00109804 1e-05
0.00445636 0.00109813 1e-05
0.00456879 0.00109823 1e-05
0.00468123 0.00109833 1e-05
0.00479366 0.00109842 1e-05
0.00490609 0.0010985 1e-05
0.0050194 0.00109858 1e-05
0.0051327 0.00109865 1e-05
0.00524601 0.00109873 1e-05
0.00535932 0.0010988 1e-05
0.00547262 0.00109886 1e-05
0.00558681 0.00109892 1e-05
0.005701 0.00109898 1e-05
0.00581518 0.00109903 1e-05
0.00592937 0.00109908 1e-05
0.00604356 0.00109912 1e-05
0.00615863 0.00109916 1e-05
0.00627371 0.0010992 1e-05
0.00638878 0.00109923 1e-05
0.00650386 0.00109926 1e-05
0.00661893 0.00109928 1e-05
0.0067349 0.0010993 1e-05
0.00685087 0.00109931 1e-05
0.00696684 0.00109933 1e-05
0.00708281 0.00109933 1e-05
0.00719878 0.00109933 1e-05
0.0072311 0.00109933 1e-05
0.00726343 0.00109933 1e-05
0.00729575 0.00109933 1e-05
0.00732808 0.00109933 1e-05
0.00736 0.00109933 1e-05
0.00744463 0.00109932 1e-05
0.00752925 0.00109931 1e-05
0.00761388 0.0010993 1e-05
0.00769851 0.00109929 1e-05
0.00778313 0.00109927 1e-05
0.00790091 0.00109924 1e-05
0.00801869 0.00109921 1e-05
0.00813647 0.00109918 1e-05
0.00825425 0.00109914 1e-05
0.00837203 0.00109909 1e-05
0.00849073 0.00109904 1e-05
0.00860942 0.00109898 1e-05
0.00872812 0.00109892 1e-05
0.00884682 0.00109886 1e-05
0.00896551 0.00109879 1e-05
0.00908513 0.00109871 1e-05
0.00920475 0.00109863 1e-05
0.00932437 0.00109854 1e-05
0.00944398 0.00109845 1e-05
0.0095636 0.00109835 1e-05
0.00968415 0.00109824 1e-05
0.0098047 0.00109813 1e-05
0.00992525 0.00109802 1e-05
0.0100458 0.0010979 1e-05
0.0101663 0.00109778 1e-05
0.0102878 0.00109763 1e-05
0.0104093 0.0010975 1e-05
0.0105308 0.00109735 1e-05
0.0106523 0.00109721 1e-05
0.0107738 0.00109705 1e-05
0.0108962 0.00109688 1e-05
0.0110186 0.00109671 1e-05
0.0111411 0.00109654 1e-05
0.0112635 0.00109636 1e-05
0.0113859 0.00109618 1e-05
0.0115093 0.00109597 1e-05
0.0116327 0.00109577 1e-05
0.0117561 0.00109557 1e-05
0.0118795 0.00109536 1e-05
0.0120028 0.00109514 1e-05
0.0121272 0.0010949 1e-05
0.0122515 0.00109467 1e-05
0.0123759 0.00109443 1e-05
0.0125002 0.00109419 1e-05
0.0126245 0.00109394 1e-05
0.0127498 0.00109366 1e-05
0.0128752 0.00109339 1e-05
0.0130005 0.00109312 1e-05
0.0131258 0.00109285 1e-05
0.0132511 0.00109256 1e-05
0.0133774 0.00109225 1e-05
0.0135036 0.00109194 1e-05
0.0136299 0.00109164 1e-05
0.0137562 0.00109132 1e-05
0.0138825 0.001091 1e-05
0.0140098 0.00109065 1e-05
0.014137 0.00109031 1e-05
0.0142643 0.00108996 1e-05
0.0143915 0.00108961 1e-05
0.0145188 0.00108925 1e-05
0.0146471 0.00108886 1e-05
0.0147753 0.00108848 1e-05
0.0149036 0.00108809 1e-05
0.0150318 0.0010877 1e-05
0.0151601 0.0010873 1e-05
0.0152893 0.00108686 1e-05
0.0154186 0.00108644 1e-05
0.0155478 0.00108602 1e-05
0.0156771 0.00108558 1e-05
0.0158063 0.00108514 1e-05
0.0159366 0.00108467 1e-05
0.0160668 0.0010842 1e-05
0.0161971 0.00108373 1e-05
0.0163274 0.00108325 1e-05
0.0164576 0.00108276 1e-05
0.0165889 0.00108225 1e-05
0.0167201 0.00108174 1e-05
0.0168514 0.00108123 1e-05
0.0169827 0.0010807 1e-05
0.0171139 0.00108017 1e-05
0.0172462 0.00107961 1e-05
0.0173785 0.00107906 1e-05
0.0175108 0.00107849 1e-05
0.0176431 0.00107792 1e-05
0.0177754 0.00107734 1e-05
0.0179087 0.00107674 1e-05
0.018042 0.00107614 1e-05
0.0181753 0.00107553 1e-05
0.0183087 0.00107491 1e-05
0.018442 0.00107428 1e-05
0.0185763 0.00107364 1e-05
0.0187107 0.00107299 1e-05
0.018845 0.00107232 1e-05
0.0189794 0.00107166 1e-05
0.0191137 0.00107098 1e-05
0.0192491 0.00107029 1e-05
0.0193845 0.00106959 1e-05
0.0195199 0.00106888 1e-05
0.0196553 0.00106815 1e-05
0.0197907 0.00106743 1e-05
0.0199272 0.00106669 1e-05
0.0200636 0.00106594 1e-05
0.0202001 0.00106518 1e-05
0.0203365 0.0010644 1e-05
0.020473 0.00106363 1e-05
0.0206105 0.00106284 1e-05
0.020748 0.00106204 1e-05
0.0208855 0.00106122 1e-05
0.021023 0.0010604 1e-05
0.0211606 0.00105957 1e-05
0.0212991 0.00105874 1e-05
0.0214377 0.00105789 1e-05
0.0215763 0.00105701 1e-05
0.0217149 0.00105613 1e-05
0.0218535 0.00105525 1e-05
0.0219931 0.00105438 1e-05
0.0221328 0.00105347 1e-05
0.0222724 0.00105255 1e-05
0.0224121 0.00105161 1e-05
0.0225517 0.00105068 1e-05
0.0226925 0.00104976 1e-05
0.0228332 0.0010488 1e-05
0.022974 0.00104782 1e-05
0.0231147 0.00104682 1e-05
0.0232555 0.00104584 1e-05
0.0233973 0.00104487 1e-05
0.0235391 0.00104387 1e-05
0.023681 0.00104283 1e-05
0.0238228 0.00104178 1e-05
0.0239647 0.00104075 1e-05
0.0241076 0.00103973 1e-05
0.0242505 0.00103867 1e-05
0.0243935 0.00103758 1e-05
0.0245364 0.00103648 1e-05
0.0246794 0.0010354 1e-05
0.0248234 0.00103433 1e-05
0.0249675 0.00103322 1e-05
0.0251115 0.00103208 1e-05
0.0252556 0.00103093 1e-05
0.0253996 0.0010298 1e-05
0.0255448 0.00102867 1e-05
0.02569 0.00102752 1e-05
0.0258351 0.00102632 1e-05
0.0259803 0.00102512 1e-05
0.0261255 0.00102393 1e-05
0.0262718 0.00102276 1e-05
0.0264181 0.00102155 1e-05
0.0265644 0.0010203 1e-05
0.0267107 0.00101905 1e-05
0.026857 0.00101781 1e-05
0.0270044 0.00101659 1e-05
0.0271519 0.00101533 1e-05
0.0272993 0.00101403 1e-05
0.0274468 0.00101272 1e-05
0.0275942 0.00101144 1e-05
0.0277428 0.00101016 1e-05
0.0278914 0.00100885 1e-05
0.0280399 0.0010075 1e-05
0.0281885 0.00100614 1e-05
0.0283371 0.0010048 1e-05
0.0284869 0.00100347 1e-05
0.0286366 0.0010021 1e-05
0.0287863 0.0010007 1e-05
0.0289361 0.000999288 1e-05
0.0290858 0.000997897 1e-05
0.0292367 0.000996517 1e-05
0.0293876 0.000995099 1e-05
0.0295385 0.000993644 1e-05
0.0296894 0.000992183 1e-05
0.0298403 0.000990739 1e-05
0.0299924 0.000989306 1e-05
0.0301445 0.000987834 1e-05
0.0302966 0.00098633 1e-05
0.0304486 0.00098482 1e-05
0.0306007 0.000983323 1e-05
0.030754 0.000981835 1e-05
0.0309072 0.000980308 1e-05
0.0310605 0.000978755 1e-05
0.0312138 0.000977194 1e-05
0.031367 0.000975642 1e-05
0.0315215 0.000974098 1e-05
0.0316759 0.000972516 1e-05
0.0318304 0.000970911 1e-05
0.0319848 0.000969299 1e-05
0.0321393 0.000967691 1e-05
0.0322949 0.000966089 1e-05
0.0324506 0.00096445 1e-05
0.0326062 0.000962792 1e-05
0.0327619 0.000961127 1e-05
0.0329175 0.000959461 1e-05
0.0330744 0.0009578 1e-05
0.0332313 0.000956102 1e-05
0.0333881 0.000954389 1e-05
0.033545 0.000952668 1e-05
[...]
POINT_DATA 10809
 FIELD attributes 1
U 3 10809 float
10.0003 	0.0077618 	0 10.0019 	0.0181386 	0 10.0037 	0.0247616 	0 10.0054 	0.0313399 	0 10.0072 	0.0378738 	0 10.0157 	0.052083 	0 10.0156 	0.0373873 	0 10.0203 	0.0359435 	0 10.0249 	0.0345032 	0 10.0295 	0.0330663 	0 10.0406 	0.0447932 	0 10.0402 	0.024883 	0 10.0454 	0.023813 	0 10.0507 	0.0227396 	0 10.056 	0.0216629 	0 10.0659 	0.0345129 	0 10.0664 	0.0204692 	0 10.071 	0.0219121 	0 10.0757 	0.0233616 	0 10.0803 	0.024818 	0 10.0876 	0.0371567 	0 10.0894 	0.0284677 	0 10.0934 	0.0305523 	0 10.0974 	0.032646 	0 10.1014 	0.0347489 	0 10.106 	0.0439357 	0 10.1092 	0.0388643 	0 10.1125 	0.0404822 	0 10.1159 	0.0421062 	0 10.1193 	0.0437361 	0 10.1218 	0.0493141 	0 10.1253 	0.046785 	0 10.1279 	0.047868 	0 10.1305 	0.0489543 	0 10.133 	0.0500438 	0 10.1343 	0.0528345 	0 10.1374 	0.0520195 	0 10.1392 	0.0527191 	0 10.141 	0.0534204 	0 10.1428 	0.0541232 	0 10.1442 	0.0550749 	0 10.1449 	0.0549587 	0 10.1451 	0.0550588 	0 10.1454 	0.0551588 	0 10.1457 	0.0552589 	0 10.146 	0.0553589 	0 10.1469 	0.0556697 	0 10.1478 	0.055981 	0 10.1488 	0.0562926 	0 10.1497 	0.0566046 	0 10.1507 	0.0566422 	0 10.1514 	0.0570305 	0 10.1521 	0.0572213 	0 10.1529 	0.0574123 	0 10.1536 	0.0576036 	0 10.1546 	0.0572799 	0 10.1549 	0.0576803 	0 10.1553 	0.0577063 	0 10.1556 	0.0577323 	0 10.156 	0.0577583 	0 10.1565 	0.0571358 	0 10.1568 	0.0575168 	0 10.1568 	0.0574182 	0 10.1568 	0.0573196 	0 10.1569 	0.0572209 	0 10.1569 	0.0564125 	0 10.1574 	0.0567469 	0 10.1572 	0.0565467 	0 10.1569 	0.0563464 	0 10.1567 	0.0561459 	0 10.1562 	0.0552209 	0 10.1571 	0.0554816 	0 10.1567 	0.0551828 	0 10.1563 	0.0548838 	0 10.1559 	0.0545846 	0 10.1546 	0.0535696 	0 10.1562 	0.0537229 	0 10.1557 	0.0533121 	0 10.1552 	0.0529013 	0 10.1547 	0.0524903 	0 10.1526 	0.0513858 	0 10.155 	0.0513821 	0 10.1544 	0.0508107 	0 10.1539 	0.0502391 	0 10.1533 	0.0496674 	0 10.1503 	0.0484183 	0 10.1536 	0.0481094 	0 10.153 	0.0472026 	0 10.1523 	0.0462956 	0 10.1517 	0.0453884 	0 10.1476 	0.0438255 	0 10.1518 	0.0429708 	0 10.1509 	0.0415142 	0 10.1501 	0.0400574 	0 10.1492 	0.0386002 	0 10.1438 	0.036708 	0 10.1485 	0.0359618 	-2.66803e-21 10.1472 	0.0346502 	-9.02322e-21 10.146 	0.0333384 	-1.53794e-20 10.1448 	0.0320265 	-2.17367e-20 10.1387 	0.0303959 	-2.8722e-20 10.1431 	0.0300628 	-5.2534e-20 10.1417 	0.0291393 	-5.23192e-20 10.1402 	0.0282157 	-5.21e-20 10.1387 	0.0272918 	-5.18764e-20 10.1324 	0.0259272 	-2.62741e-20 10.1367 	0.0258307 	-2.70714e-20 10.1352 	0.0249636 	-3.09172e-20 10.1337 	0.0240963 	-3.47648e-20 10.1322 	0.0232287 	-3.86141e-20 10.1258 	0.0217854 	-4.35187e-20 10.1301 	0.0218785 	-6.49558e-20 10.1286 	0.021036 	-6.47563e-20 10.1271 	0.0201931 	-6.45535e-20 10.1256 	0.0193499 	-6.43474e-20 10.1193 	0.0177768 	-4.65424e-20 10.1233 	0.0181127 	-3.39314e-20 10.1217 	0.017441 	-2.01271e-20 10.1201 	0.0167689 	-6.32344e-21 10.1185 	0.0160966 	7.47972e-21 10.1122 	0.0145621 	2.1452e-20 10.1159 	0.0150661 	1.28216e-20 10.1141 	0.0145735 	7.95869e-21 10.1123 	0.0140807 	3.09599e-21 10.1105 	0.0135876 	-1.76655e-21 10.1042 	0.0121914 	7.8382e-22 10.1075 	0.0127001 	1.36717e-20 10.1055 	0.0123001 	1.46264e-20 10.1036 	0.0119 	1.55784e-20 10.1016 	0.0114997 	1.65277e-20 10.0955 	0.0102652 	2.2802e-21 10.0982 	0.0106608 	3.52343e-20 10.0961 	0.010293 	3.92839e-20 10.0939 	0.00992514 	4.33291e-20 10.0918 	0.00955707 	4.73698e-20 10.0859 	0.00849763 	2.08806e-20 10.0879 	0.00873579 	1.93919e-20 10.0855 	0.0083786 	1.42604e-20 10.0831 	0.00802126 	9.12908e-21 10.0807 	0.00766375 	3.99801e-21 10.0751 	0.0067849 	-2.30822e-21 10.0763 	0.00686266 	5.80574e-21 10.0736 	0.00650709 	1.32124e-20 10.0709 	0.00615137 	2.06194e-20 10.0682 	0.00579551 	2.80267e-20 10.0628 	0.00508284 	3.45442e-20 10.0631 	0.00501588 	2.8179e-20 10.0601 	0.00465638 	2.0943e-20 10.0571 	0.00429676 	1.37072e-20 10.0541 	0.003937 	6.47183e-21 10.049 	0.00336194 	1.21893e-22 10.0482 	0.00317291 	-6.39898e-21 10.0448 	0.00280484 	-1.3809e-20 10.0415 	0.00243664 	-2.12193e-20 10.0381 	0.00206833 	-2.863e-20 10.0335 	0.00159632 	-3.569e-20 10.0313 	0.00130677 	-2.19594e-20 10.0275 	0.000926941 	-7.37751e-21 10.0238 	0.000546996 	7.20434e-21 10.0201 	0.000166938 	2.17862e-20 10.016 	-0.000232674 	3.61041e-20 10.0152 	-0.000322247 	3.78325e-20 10.0141 	-0.000430227 	3.96055e-20 10.0129 	-0.000538216 	4.13786e-20 10.0118 	-0.000646214 	4.31518e-20 10.0106 	-0.000752882 	4.49031e-20 10.0076 	-0.00103705 	4.97021e-20 10.0046 	-0.00132128 	5.45021e-20 10.0015 	-0.00160558 	5.93033e-20 9.99846 	-0.00188995 	6.41056e-20 9.99037 	-0.00233855 	6.64816e-20 9.99053 	-0.00257809 	5.89826e-20 9.98588 	-0.00297923 	5.15029e-20 9.98122 	-0.0033805 	4.40221e-20 9.97655 	-0.00378191 	3.65401e-20 9.95956 	-0.00460493 	3.0456e-20 9.96616 	-0.00461032 	1.42046e-20 9.96103 	-0.0050187 	-3.21384e-21 9.95589 	-0.00542723 	-2.0632e-20 9.95076 	-0.0058359 	-3.80499e-20 9.92578 	-0.00693617 	-5.18362e-20 9.93895 	-0.00670507 	-4.21353e-20 9.93332 	-0.00711952 	-4.12049e-20 9.92769 	-0.00753413 	-4.02696e-20 9.92206 	-0.00794891 	-3.93293e-20 9.88904 	-0.00931686 	-5.15546e-20 9.90874 	-0.00886454 	-4.26722e-20 9.90261 	-0.00928387 	-3.11628e-20 9.89647 	-0.0097034 	-1.96528e-20 9.89033 	-0.0101231 	-8.14193e-21 9.84941 	-0.0117321 	0 9.87542 	-0.0110866 	-4.22951e-21 9.86879 	-0.0115103 	-1.02725e-20 9.86214 	-0.0119341 	-1.63152e-20 9.85549 	-0.0123582 	-2.23574e-20 9.80701 	-0.0141708 	-2.39163e-20 9.83894 	-0.0133706 	-2.60809e-20 9.8318 	-0.0137993 	-2.59427e-20 9.82465 	-0.0142282 	-2.58036e-20 9.81749 	-0.0146573 	-2.56638e-20 9.76199 	-0.0166286 	-2.45555e-20 9.7993 	-0.0157176 	-2.18869e-20 9.79165 	-0.0161517 	-1.56381e-20 9.78401 	-0.0165862 	-9.38886e-21 9.77635 	-0.0170209 	-3.13919e-21 9.71453 	-0.0191 	-2.06945e-21 9.7565 	-0.0181248 	-5.40248e-21 9.74838 	-0.0185654 	-1.64632e-20 9.74024 	-0.0190063 	-2.7523e-20 9.7321 	-0.0194476 	-3.85821e-20 9.66482 	-0.0215814 	-4.33462e-20 9.71067 	-0.0205915 	-9.94686e-21 9.70208 	-0.0210388 	-8.84301e-21 9.69348 	-0.0214864 	-7.73349e-21 9.68487 	-0.0219345 	-6.61828e-21 9.61308 	-0.0240652 	-4.20932e-20 9.66192 	-0.0231106 	-3.77579e-20 9.65288 	-0.0235653 	-2.62492e-20 9.64383 	-0.0240204 	-1.47397e-20 9.63477 	-0.0244759 	-3.22932e-21 9.55953 	-0.0265491 	0 9.61042 	-0.0256772 	0 9.60096 	-0.0261412 	0 9.5915 	-0.0266058 	0 9.58202 	-0.0270708 	0 9.5044 	-0.0290363 	0 9.55642 	-0.0282892 	2.10246e-21 9.54657 	-0.028764 	1.39467e-20 9.53671 	-0.0292392 	2.579e-20 9.52684 	-0.029715 	3.76323e-20 9.44794 	-0.0315234 	4.95019e-20 9.50018 	-0.0309486 	3.95037e-20 9.48997 	-0.0314343 	5.09638e-20 9.47974 	-0.0319205 	6.24208e-20 9.46951 	-0.0324074 	7.38748e-20 9.39035 	-0.0340057 	9.3438e-20 9.44195 	-0.0336469 	7.27396e-20 9.4314 	-0.0341424 	6.00425e-20 9.42084 	-0.0346385 	4.73423e-20 9.40743 	-0.0351706 	3.55467e-20 9.33186 	-0.0364757 	4.35727e-20 9.37752 	-0.0364045 	3.50365e-20 9.37119 	-0.0368645 	1.83372e-20 9.36033 	-0.0373713 	9.27529e-22 9.34185 	-0.0379419 	-1.44798e-20 9.27269 	-0.0389342 	-1.65272e-20 9.31214 	-0.0391451 	3.96621e-20 9.30965 	-0.0396114 	5.02233e-20 9.29851 	-0.040131 	5.13867e-20 9.276 	-0.0406895 	4.00153e-20 9.21304 	-0.0413852 	-1.60064e-20 9.2466 	-0.0418691 	-1.36369e-20 9.2471 	-0.0423876 	-9.06414e-21 9.23572 	-0.042919 	-3.69935e-21 9.21015 	-0.0434131 	0 9.15311 	-0.0438233 	0 9.18117 	-0.0445673 	0 9.18387 	-0.0451815 	0 9.17226 	-0.0457227 	0 9.14454 	-0.0461016 	0 9.09307 	-0.0462403 	0 9.11606 	-0.0472275 	0 9.12025 	-0.0479778 	0 9.10845 	-0.0485271 	0 9.0794 	-0.0487444 	0 9.0331 	-0.0486295 	0 9.05148 	-0.0498396 	0 9.05652 	-0.0507625 	3.36678e-21 9.04456 	-0.0513177 	1.10324e-20 9.01489 	-0.0513325 	2.6275e-20 8.97334 	-0.0509843 	4.66027e-20 8.98757 	-0.0523945 	1.82761e-19 8.99296 	-0.0535205 	2.7221e-19 8.98086 	-0.05408 	2.68893e-19 8.95118 	-0.053858 	1.711e-19 8.91395 	-0.0532995 	3.26524e-20 8.92447 	-0.0548855 	-3.66242e-20 8.92978 	-0.0562394 	-9.21269e-20 8.91757 	-0.0568015 	-1.00959e-19 8.88839 	-0.0563158 	-6.28927e-20 8.85504 	-0.0555714 	-1.32706e-20 8.8623 	-0.057308 	-1.05124e-20 8.8672 	-0.0589076 	-5.94329e-21 8.8549 	-0.0594711 	1.21387e-20 8.82662 	-0.0587028 	2.10179e-20 8.79674 	-0.0577986 	2.89645e-20 8.80115 	-0.0596605 	2.03823e-20 8.8054 	-0.0615175 	1.19067e-20 8.79281 	-0.0620561 	2.41964e-20 8.76596 	-0.0610185 	6.09437e-20 8.73914 	-0.05998 	9.76934e-20 8.74108 	-0.0619417 	1.61658e-19 8.74295 	-0.0639057 	2.25618e-19 8.73064 	-0.0644077 	2.05245e-19 8.70648 	-0.0632623 	1.17972e-19 8.68236 	-0.0621159 	3.06958e-20 8.68219 	-0.0641538 	1.71853e-20 8.68193 	-0.0661941 	3.67921e-21 8.67004 	-0.0666662 	-9.61021e-21 8.64824 	-0.0654373 	-2.44495e-20 8.62648 	-0.0642072 	-3.92907e-20 8.6245 	-0.0662975 	-2.40859e-20 8.62244 	-0.0683902 	-8.87784e-21 8.61103 	-0.0688328 	7.31713e-21 8.59128 	-0.0675455 	1.85586e-20 8.57157 	-0.0662569 	2.98027e-20 8.56806 	-0.0683801 	1.803e-20 8.56446 	-0.0705056 	6.25253e-21 8.55358 	-0.0709194 	4.90211e-21 8.53561 	-0.0695945 	1.59854e-20 8.51769 	-0.0682684 	2.70642e-20 8.51289 	-0.0704036 	6.59371e-20 8.50801 	-0.0725411 	1.04819e-19 8.49768 	-0.0729263 	9.89164e-20 8.48127 	-0.0715851 	4.63353e-20 8.4649 	-0.0702427 	-6.25338e-21 8.45902 	-0.0723736 	-1.19414e-21 8.45306 	-0.0745067 	3.87756e-21 8.44331 	-0.0748654 	-1.2722e-20 8.42825 	-0.0735275 	-3.47512e-20 8.41324 	-0.0721883 	-5.67788e-20 8.40646 	-0.0743101 	-1.80476e-19 8.39961 	-0.0764342 	-3.04177e-19 8.39045 	-0.0767685 	-2.99364e-19 8.37657 	-0.0754416 	-1.69405e-19 8.36274 	-0.0741134 	-3.94432e-20 8.35523 	-0.0762138 	-2.4031e-20 8.34765 	-0.0783162 	-8.61969e-21 8.3391 	-0.0786265 	3.07863e-21 8.32623 	-0.0773234 	2.28579e-20 8.31342 	-0.0760193 	4.2641e-20 8.30532 	-0.0780809 	6.99427e-20 8.29713 	-0.0799867 	9.36988e-20 8.28877 	-0.0802486 	8.05608e-20 8.27723 	-0.0791723 	4.3103e-20 8.2653 	-0.0779117 	2.31622e-21 8.25672 	-0.0799234 	-1.00684e-19 8.24817 	-0.0815577 	-1.81525e-19 8.23996 	-0.0818271 	-1.82512e-19 8.22955 	-0.0810057 	-1.21891e-19 8.21839 	-0.0798053 	-3.98969e-20 8.20941 	-0.0817647 	-2.78577e-20 8.20073 	-0.0831388 	-2.12521e-20 8.19267 	-0.0834186 	-2.47779e-20 8.18314 	-0.0828466 	-3.55895e-20 8.17268 	-0.0817134 	-5.11926e-20 8.16337 	-0.0836187 	-1.29449e-19 8.15472 	-0.0847458 	-1.67641e-19 8.14681 	-0.085038 	-1.62876e-19 8.13799 	-0.0847058 	-1.23061e-19 8.12813 	-0.0836444 	-4.23434e-20 8.11856 	-0.085496 	-3.0534e-20 8.1101 	-0.0863924 	-1.90328e-20 8.10232 	-0.0866987 	-7.72133e-21 8.09404 	-0.0865948 	3.37531e-21 8.08473 	-0.0856079 	1.4012e-20 8.07495 	-0.087408 	2.74895e-21 8.06678 	-0.0880909 	-2.40823e-21 8.05912 	-0.0884131 	-5.5941e-21 8.05126 	-0.0885249 	-4.20081e-21 8.04243 	-0.0876134 	1.94351e-20 8.03248 	-0.0893651 	3.95698e-20 8.0247 	-0.089852 	5.35009e-20 8.01716 	-0.0901919 	6.67068e-20 8.00959 	-0.0905066 	7.91292e-20 8.00121 	-0.0896702 	5.61289e-20 7.99121 	-0.0913269 	7.76178e-20 7.9838 	-0.0916856 	8.01878e-20 7.97638 	-0.0920445 	8.27559e-20 7.96893 	-0.0924037 	8.53222e-20 7.96102 	-0.0917874 	4.58821e-20 7.95134 	-0.093221 	4.55707e-20 7.94403 	-0.0936002 	3.1696e-20 7.93671 	-0.0939798 	1.78226e-20 7.92937 	-0.0943595 	3.95074e-21 7.92182 	-0.0939741 	-7.50426e-21 7.91254 	-0.0952029 	0 7.90533 	-0.0956042 	0 7.8981 	-0.0960056 	0 7.89085 	-0.0964073 	0 7.88356 	-0.0962391 	0 7.87475 	-0.0972804 	2.73192e-21 7.86763 	-0.0977049 	8.46595e-21 7.86048 	-0.0981296 	1.42006e-20 7.85332 	-0.0985545 	1.99358e-20 7.8462 	-0.0985911 	2.16231e-20 7.83791 	-0.0994606 	2.38996e-20 7.83086 	-0.0999094 	2.42576e-20 7.82379 	-0.100359 	2.46169e-20 7.8167 	-0.100808 	2.49775e-20 7.80967 	-0.101038 	2.42008e-20 7.80195 	-0.10175 	1.68219e-20 7.79497 	-0.102224 	5.80447e-21 7.78797 	-0.102699 	-5.21291e-21 7.78094 	-0.103173 	-1.62303e-20 7.77394 	-0.103588 	-2.68854e-20 7.77096 	-0.103853 	-2.48989e-20 7.76821 	-0.104052 	-2.29326e-20 7.76545 	-0.104252 	-2.09664e-20 7.76269 	-0.104451 	-1.90003e-20 7.75997 	-0.104647 	-1.70694e-20 7.7556 	-0.104951 	-1.47787e-20 7.75122 	-0.105254 	-1.249e-20 7.74683 	-0.105558 	-1.02032e-20 7.74243 	-0.105862 	-7.9184e-21 7.73878 	-0.106079 	-1.55609e-21 7.73118 	-0.106689 	-2.8837e-21 7.72399 	-0.107219 	9.17133e-22 7.71679 	-0.10775 	4.71076e-21 7.70955 	-0.108281 	8.49715e-21 7.70428 	-0.108586 	2.45121e-20 7.696 	-0.109351 	1.20795e-20 7.68886 	-0.10991 	-3.24956e-21 7.68168 	-0.110469 	-1.85778e-20 7.67449 	-0.111028 	-3.39052e-20 7.67043 	-0.111229 	-4.68209e-20 7.66149 	-0.112145 	-4.12845e-20 7.65437 	-0.112734 	-4.05723e-20 7.64723 	-0.113323 	-3.98566e-20 7.64005 	-0.113912 	-3.91375e-20 7.63717 	-0.114014 	-4.51905e-20 7.62758 	-0.115079 	-3.28214e-20 7.62048 	-0.115699 	-1.70664e-20 7.61335 	-0.116319 	-1.31054e-21 7.6062 	-0.116939 	1.44462e-20 7.60444 	-0.116948 	2.13422e-20 7.59421 	-0.118157 	5.29086e-20 7.58712 	-0.118809 	5.41356e-20 7.58 	-0.119461 	5.53684e-20 7.57286 	-0.120113 	5.6607e-20 7.5722 	-0.120038 	2.03689e-20 7.5616 	-0.12134 	1.51229e-20 7.55424 	-0.122073 	-3.56395e-21 7.54712 	-0.122759 	-2.33709e-20 7.54117 	-0.123313 	-4.40908e-20 7.54038 	-0.123291 	-6.88007e-20 7.52987 	-0.124609 	-1.63983e-19 7.52179 	-0.125499 	-1.93721e-19 7.51467 	-0.126219 	-1.97523e-19 7.50988 	-0.126679 	-1.63605e-19 7.50894 	-0.126713 	-6.79468e-20 7.4985 	-0.128048 	-4.27814e-20 7.48971 	-0.129091 	-2.47553e-20 7.48257 	-0.129847 	-1.37517e-20 7.47891 	-0.130219 	-1.17551e-20 7.47782 	-0.130309 	-1.63876e-20 7.46744 	-0.131662 	-5.06151e-20 7.45795 	-0.132854 	-7.54041e-20 7.45078 	-0.133647 	-7.6714e-20 7.44822 	-0.133937 	-5.006e-20 7.44697 	-0.134083 	-1.53775e-20 7.43663 	-0.135457 	-1.03178e-20 7.42645 	-0.136796 	-5.25011e-21 7.41924 	-0.137626 	-9.19038e-23 7.41774 	-0.13784 	0 7.41633 	-0.138043 	0 7.40603 	-0.139438 	0 7.39567 	-0.140834 	0 7.38899 	-0.141673 	-3.76257e-21 7.38742 	-0.141933 	-8.2294e-21 7.38585 	-0.142192 	-1.2696e-20 7.37557 	-0.143611 	-4.56335e-20 7.36523 	-0.145031 	-7.85689e-20 7.35896 	-0.145903 	-7.58237e-20 7.35722 	-0.146219 	-3.80044e-20 7.35547 	-0.146534 	-1.83828e-22 7.3452 	-0.147979 	3.72289e-20 7.33488 	-0.149424 	7.46414e-20 7.329 	-0.150332 	7.32371e-20 7.32707 	-0.150703 	3.14993e-20 7.32514 	-0.151075 	-1.02396e-20 7.31487 	-0.152546 	-5.48951e-21 7.30455 	-0.154018 	-7.37453e-22 7.29903 	-0.154962 	-9.68915e-22 7.29692 	-0.155389 	-9.77657e-21 7.29479 	-0.155817 	-1.85834e-20 7.28451 	-0.157316 	-8.88826e-21 7.27462 	-0.15877 	0 7.26944 	-0.159728 	0 7.26671 	-0.16028 	7.27851e-21 7.26438 	-0.160763 	1.5791e-20 7.25408 	-0.162291 	6.38998e-21 7.24536 	-0.16365 	-2.93799e-21 7.24006 	-0.164651 	-1.2106e-20 7.23639 	-0.165378 	-1.61874e-20 7.23385 	-0.165916 	-1.67658e-20 7.22352 	-0.167474 	-8.83223e-20 7.21594 	-0.168742 	-1.18124e-19 7.2105 	-0.169786 	-1.15534e-19 7.2059 	-0.170685 	-9.27956e-20 7.20314 	-0.171278 	-2.74513e-20 7.19277 	-0.172866 	1.09572e-20 7.1863 	-0.174047 	2.34806e-20 7.18071 	-0.175134 	3.00016e-20 7.17519 	-0.176202 	3.56477e-20 7.1722 	-0.17685 	2.11577e-20 7.16209 	-0.178436 	5.4511e-22 7.15638 	-0.179566 	9.35233e-21 7.15063 	-0.180696 	1.81624e-20 7.14484 	-0.181825 	2.69752e-20 7.14097 	-0.182633 	3.59952e-20 7.13201 	-0.184127 	7.7506e-20 7.12613 	-0.1853 	8.34108e-20 7.12021 	-0.186472 	8.93003e-20 7.11426 	-0.187645 	9.51746e-20 7.10941 	-0.188628 	7.02925e-20 7.10156 	-0.190032 	1.02054e-19 7.0955 	-0.191248 	8.94348e-20 7.08941 	-0.192463 	7.67873e-20 7.08327 	-0.193679 	6.41117e-20 7.07744 	-0.194835 	3.79645e-20 7.07405 	-0.195467 	3.31309e-20 7.07122 	-0.19604 	3.047e-20 7.06838 	-0.196613 	2.78124e-20 7.06553 	-0.197186 	2.51581e-20 7.06276 	-0.197741 	2.259e-20 7.05914 	-0.198428 	1.8901e-20 7.0555 	-0.199115 	1.5215e-20 7.05186 	-0.199802 	1.15321e-20 7.0482 	-0.200489 	7.85227e-21 7.04466 	-0.201113 	-7.92388e-24 7.0381 	-0.202475 	5.89782e-21 7.03134 	-0.203772 	1.31896e-20 7.02454 	-0.205069 	2.04779e-20 7.01768 	-0.206366 	2.77627e-20 7.01115 	-0.207484 	3.50553e-20 7.00466 	-0.209005 	3.01629e-20 6.99769 	-0.210343 	2.91448e-20 6.99067 	-0.211681 	2.81196e-20 6.9836 	-0.213018 	2.70873e-20 6.97708 	-0.214062 	3.5788e-20 6.97065 	-0.215742 	5.25591e-20 6.96345 	-0.217119 	5.32797e-20 6.9562 	-0.218496 	5.40075e-20 6.94898 	-0.219836 	5.26503e-20 6.94237 	-0.220844 	3.31085e-20 6.93579 	-0.222592 	2.15372e-20 6.92858 	-0.224097 	2.27026e-20 6.92109 	-0.225513 	2.85215e-20 6.91386 	-0.226773 	3.7738e-20 6.907 	-0.227827 	5.1421e-20 6.90017 	-0.229607 	6.29012e-21 6.89302 	-0.231274 	-2.49087e-20 6.88528 	-0.232729 	-2.96662e-20 6.87803 	-0.233908 	5.13616e-21 6.8709 	-0.235006 	5.17476e-20 6.86382 	-0.236817 	6.16199e-20 6.85667 	-0.238628 	7.14852e-20 6.84881 	-0.240096 	6.38356e-20 6.84144 	-0.241236 	4.18882e-20 6.83402 	-0.242376 	1.99357e-20 6.82668 	-0.244217 	-1.60114e-20 6.81927 	-0.246058 	-5.19627e-20 6.81169 	-0.24757 	-6.1381e-20 6.80404 	-0.248751 	-4.34091e-20 6.79633 	-0.249933 	-2.54341e-20 6.78872 	-0.251802 	-1.47842e-20 6.78103 	-0.253672 	-4.13226e-21 6.77373 	-0.255227 	-3.5168e-21 6.76578 	-0.256448 	-1.33515e-20 6.75778 	-0.257669 	-2.31855e-20 6.74988 	-0.259566 	-1.27558e-20 6.74204 	-0.261392 	-3.19894e-21 6.73461 	-0.262956 	3.17257e-21 6.72663 	-0.264319 	3.6529e-21 6.71833 	-0.265578 	1.03366e-21 6.71013 	-0.267501 	3.14359e-20 6.70222 	-0.269227 	4.66407e-20 6.69448 	-0.270822 	5.17759e-20 6.68654 	-0.272358 	5.16503e-20 6.67792 	-0.273652 	2.9664e-20 6.66942 	-0.2756 	2.83329e-20 6.66142 	-0.277225 	2.63887e-20 6.65337 	-0.278848 	2.44526e-20 6.64525 	-0.280472 	2.25262e-20 6.63652 	-0.281883 	2.26763e-20 6.62793 	-0.283725 	3.77198e-20 6.61961 	-0.285376 	3.64283e-20 6.61123 	-0.287026 	3.51287e-20 6.60278 	-0.288676 	3.3821e-20 6.5941 	-0.290262 	2.75691e-20 6.59035 	-0.291032 	2.8074e-20 6.58668 	-0.291745 	2.84676e-20 6.583 	-0.292458 	2.88626e-20 6.57931 	-0.293171 	2.92589e-20 6.57572 	-0.293862 	2.96445e-20 6.57112 	-0.294829 	3.01039e-20 6.5665 	-0.295796 	3.05655e-20 6.56186 	-0.296763 	3.10293e-20 6.5572 	-0.29773 	3.14953e-20 6.55233 	-0.298616 	2.77315e-20 6.54466 	-0.300404 	2.33493e-20 6.53643 	-0.302103 	1.9707e-20 6.52814 	-0.303801 	1.60595e-20 6.51979 	-0.3055 	1.24066e-20 6.51086 	-0.306976 	1.2766e-20 6.50372 	-0.308941 	1.01669e-20 6.49516 	-0.310659 	9.45861e-21 6.48653 	-0.312378 	8.74671e-21 6.47781 	-0.31408 	7.92211e-21 6.46824 	-0.315452 	4.79482e-21 6.46118 	-0.317509 	6.47326e-21 6.45274 	-0.319328 	6.52344e-21 6.44377 	-0.321064 	6.00957e-21 6.43435 	-0.322638 	4.2434e-21 6.42445 	-0.324031 	1.06572e-21 6.41702 	-0.326099 	2.73057e-21 6.40913 	-0.328096 	3.35094e-21 6.39981 	-0.329848 	2.8735e-22 6.3897 	-0.331291 	0 6.37946 	-0.332702 	0 6.37165 	-0.334778 	0 6.36376 	-0.336853 	0 6.35436 	-0.338598 	0 6.34383 	-0.340025 	0 6.33323 	-0.341452 	0 6.32503 	-0.343533 	0 6.31676 	-0.345613 	0 6.30759 	-0.347389 	-4.86408e-22 6.29669 	-0.348828 	-4.84451e-21 6.28574 	-0.350267 	-9.2004e-21 6.27715 	-0.352351 	-3.83151e-21 6.26826 	-0.35434 	2.47019e-23 6.25874 	-0.356094 	1.10875e-22 6.24828 	-0.357687 	-1.05319e-21 6.23696 	-0.359136 	-3.34268e-21 6.22796 	-0.36122 	1.74625e-20 6.21831 	-0.363052 	2.07348e-20 6.2084 	-0.364808 	1.88002e-20 6.19843 	-0.366564 	1.68526e-20 6.18686 	-0.368045 	2.12531e-21 6.17726 	-0.37004 	-1.00922e-21 6.16703 	-0.371796 	-5.73444e-21 6.15673 	-0.373553 	-1.04626e-20 6.14635 	-0.375308 	-1.51938e-20 6.13543 	-0.37698 	-1.98605e-20 6.13102 	-0.377812 	-2.59188e-20 6.12643 	-0.378572 	-2.46851e-20 6.12183 	-0.379332 	-2.34478e-20 6.11721 	-0.380092 	-2.2207e-20 6.11271 	-0.380829 	-2.09989e-20 6.10682 	-0.38183 	-2.04892e-20 6.10089 	-0.382829 	-1.99775e-20 6.09495 	-0.383829 	-1.94639e-20 6.08898 	-0.384829 	-1.89483e-20 6.08322 	-0.385735 	-2.08742e-20 6.07275 	-0.387596 	-1.91997e-20 6.06207 	-0.389347 	-2.10829e-20 6.05132 	-0.391099 	-2.29572e-20 6.04049 	-0.392849 	-2.48225e-20 6.0302 	-0.394342 	-3.76559e-20 6.01958 	-0.396381 	-8.21748e-20 6.0085 	-0.39813 	-9.45786e-20 5.99733 	-0.399873 	-1.06312e-19 5.98634 	-0.401507 	-9.58028e-20 5.97578 	-0.40293 	-4