/*--------------------------------*- C++ -*----------------------------------*\
| =========                 |                                                 |
| \\      /  F ield         | OpenFOAM: The Open Source CFD Toolbox           |
|  \\    /   O peration     | Version:  4.1                                   |
|   \\  /    A nd           | Web:      www.OpenFOAM.org                      |
|    \\/     M anipulation  |                                                 |
\*---------------------------------------------------------------------------*/
FoamFile
{
    version     2.0;
    format      ascii;
    class       volScalarField;
    location    "7";
    object      p;
}
// * * * * * * * * * * * * * * * * * * * * * * * * * * * * * * * * * * * * * //

dimensions      [0 2 -2 0 0 0 0];

internalField   nonuniform List<scalar> 
1705
(
7.83702e-29
4.07897e-28
7.5696e-28
9.16082e-28
1.07532e-27
1.38841e-27
1.77993e-27
1.94925e-27
2.11834e-27
2.42895e-27
2.8836e-27
3.07139e-27
3.40157e-27
3.92552e-27
4.13772e-27
4.34992e-27
4.70008e-27
5.33475e-27
5.58308e-27
5.97792e-27
6.73525e-27
7.02796e-27
7.32106e-27
7.76138e-27
8.70104e-27
9.0542e-27
9.40706e-27
9.90855e-27
1.109e-26
1.15228e-26
1.21176e-26
1.35776e-26
1.4108e-26
1.46386e-26
1.5327e-26
1.71956e-26
1.7858e-26
1.86828e-26
2.10318e-26
2.18528e-26
2.24271e-26
2.27646e-26
2.33071e-26
2.39485e-26
-8.19218e-27
2.56758e-26
2.54591e-26
2.53348e-26
2.54138e-26
2.5502e-26
2.55991e-26
2.59062e-26
2.63135e-26
-6.99908e-27
2.61783e-26
2.57443e-26
2.54096e-26
2.52888e-26
2.51812e-26
2.50867e-26
2.52048e-26
2.5425e-26
-8.40238e-27
2.38228e-26
2.3224e-26
2.27411e-26
2.24775e-26
2.22338e-26
2.20101e-26
2.19973e-26
2.20957e-26
-1.00814e-26
1.43395e-26
1.37757e-26
1.33331e-26
1.31052e-26
1.29294e-26
1.28034e-26
1.28178e-26
1.29412e-26
-4.02366e-27
-4.6261e-27
-5.05227e-27
-5.3636e-27
-5.73443e-27
-5.9949e-27
-6.38359e-27
-6.64801e-27
-6.82534e-27
-7.09236e-27
-7.2723e-27
-7.37895e-27
-7.52588e-27
-7.60133e-27
-7.72712e-27
-7.81481e-27
-7.83779e-27
-7.90305e-27
-7.90519e-27
-7.93234e-27
-7.96076e-27
-7.92917e-27
-7.91211e-27
-7.91744e-27
-7.86324e-27
-7.86168e-27
-7.80258e-27
-7.75381e-27
-7.74528e-27
-7.67965e-27
-7.67175e-27
-7.60868e-27
-7.56132e-27
-7.55914e-27
-7.50266e-27
-7.4679e-27
-7.47761e-27
-7.43289e-27
-7.45087e-27
-7.41518e-27
-4.58351e-30
-4.77994e-30
-5.20548e-30
-5.89603e-30
-6.90361e-30
-8.28216e-30
-1.00713e-29
-1.22789e-29
-1.48679e-29
-1.77525e-29
-2.08148e-29
-2.39497e-29
-2.71434e-29
-3.05863e-29
-3.48049e-29
-4.07835e-29
-5.00283e-29
-6.45164e-29
-8.64693e-29
-1.17916e-28
-1.6005e-28
-2.12451e-28
-2.72307e-28
-3.33848e-28
-3.88258e-28
-4.24415e-28
-4.30934e-28
-4.00133e-28
-3.34411e-28
-2.54585e-28
-2.07797e-28
-2.70307e-28
-5.38349e-28
-1.10183e-27
-2.00703e-27
-3.22299e-27
-4.59813e-27
-5.94493e-27
-6.94381e-27
-4.57566e-30
-4.77139e-30
-5.19571e-30
-5.88484e-30
-6.89109e-30
-8.26867e-30
-1.00574e-29
-1.22653e-29
-1.48548e-29
-1.77393e-29
-2.07997e-29
-2.39286e-29
-2.71099e-29
-3.05317e-29
-3.47191e-29
-4.06567e-29
-4.98547e-29
-6.42969e-29
-8.62156e-29
-1.17652e-28
-1.59812e-28
-2.12284e-28
-2.72256e-28
-3.33946e-28
-3.88509e-28
-4.24761e-28
-4.31215e-28
-4.00034e-28
-3.33457e-28
-2.52241e-28
-2.03727e-28
-2.64789e-28
-5.32714e-28
-1.09843e-27
-2.00846e-27
-3.23225e-27
-4.6141e-27
-5.96862e-27
-6.96887e-27
-4.56085e-30
-4.75576e-30
-5.17841e-30
-5.86525e-30
-6.8687e-30
-8.24305e-30
-1.00281e-29
-1.22319e-29
-1.48164e-29
-1.76949e-29
-2.0747e-29
-2.38645e-29
-2.70294e-29
-3.04283e-29
-3.45845e-29
-4.04819e-29
-4.96303e-29
-6.40151e-29
-8.58708e-29
-1.17242e-28
-1.59339e-28
-2.11752e-28
-2.71671e-28
-3.33317e-28
-3.87835e-28
-4.24026e-28
-4.3036e-28
-3.98944e-28
-3.31982e-28
-2.50336e-28
-2.0172e-28
-2.63751e-28
-5.34766e-28
-1.10648e-27
-2.02512e-27
-3.25967e-27
-4.64977e-27
-6.01082e-27
-7.01107e-27
-4.53906e-30
-4.73297e-30
-5.15344e-30
-5.83706e-30
-6.83622e-30
-8.2051e-30
-9.98341e-30
-1.2179e-29
-1.47537e-29
-1.76205e-29
-2.06589e-29
-2.37596e-29
-2.6904e-29
-3.0277e-29
-3.44001e-29
-4.02543e-29
-4.93464e-29
-6.36579e-29
-8.54192e-29
-1.16672e-28
-1.58622e-28
-2.10861e-28
-2.70584e-28
-3.32021e-28
-3.86334e-28
-4.22338e-28
-4.28516e-28
-3.96986e-28
-3.30022e-28
-2.48727e-28
-2.01349e-28
-2.66396e-28
-5.43311e-28
-1.12446e-27
-2.05529e-27
-3.30359e-27
-4.70366e-27
-6.07046e-27
-7.06918e-27
-4.51031e-30
-4.70297e-30
-5.1207e-30
-5.80013e-30
-6.79349e-30
-8.15474e-30
-9.92333e-30
-1.21069e-29
-1.46673e-29
-1.75174e-29
-2.05367e-29
-2.36157e-29
-2.67352e-29
-3.00786e-29
-3.41649e-29
-3.99707e-29
-4.89967e-29
-6.32163e-29
-8.48505e-29
-1.15931e-28
-1.57657e-28
-2.09618e-28
-2.69018e-28
-3.30105e-28
-3.84078e-28
-4.19795e-28
-4.25789e-28
-3.94249e-28
-3.27602e-28
-2.47302e-28
-2.02286e-28
-2.72104e-28
-5.57395e-28
-1.1511e-27
-2.09748e-27
-3.36241e-27
-4.77414e-27
-6.14601e-27
-7.14278e-27
-4.47464e-30
-4.66577e-30
-5.08018e-30
-5.75442e-30
-6.74047e-30
-8.09193e-30
-9.84795e-30
-1.20159e-29
-1.45578e-29
-1.73864e-29
-2.03816e-29
-2.3434e-29
-2.65242e-29
-2.98338e-29
-3.38785e-29
-3.96293e-29
-4.85776e-29
-6.2685e-29
-8.41582e-29
-1.15014e-28
-1.56442e-28
-2.08029e-28
-2.66989e-28
-3.27602e-28
-3.81117e-28
-4.16461e-28
-4.22251e-28
-3.90795e-28
-3.24734e-28
-2.45977e-28
-2.04283e-28
-2.80395e-28
-5.76262e-28
-1.18536e-27
-2.15033e-27
-3.43455e-27
-4.85937e-27
-6.23548e-27
-7.22821e-27
-4.43208e-30
-4.6214e-30
-5.03187e-30
-5.69992e-30
-6.67714e-30
-8.01671e-30
-9.75736e-30
-1.19063e-29
-1.44254e-29
-1.7228e-29
-2.01944e-29
-2.32156e-29
-2.62718e-29
-2.95432e-29
-3.35411e-29
-3.9229e-29
-4.80871e-29
-6.2061e-29
-8.33391e-29
-1.1392e-28
-1.54978e-28
-2.06099e-28
-2.64511e-28
-3.24534e-28
-3.77485e-28
-4.12381e-28
-4.17953e-28
-3.86664e-28
-3.21424e-28
-2.44685e-28
-2.07148e-28
-2.90892e-28
-5.99287e-28
-1.22629e-27
-2.21258e-27
-3.51838e-27
-4.95734e-27
-6.33646e-27
-7.32437e-27
-4.38269e-30
-4.56991e-30
-4.97584e-30
-5.63667e-30
-6.60357e-30
-7.92915e-30
-9.65171e-30
-1.17782e-29
-1.42706e-29
-1.70428e-29
-1.99757e-29
-2.29611e-29
-2.59788e-29
-2.92073e-29
-3.31528e-29
-3.87699e-29
-4.75244e-29
-6.13432e-29
-8.23919e-29
-1.12647e-28
-1.53266e-28
-2.03832e-28
-2.61594e-28
-3.2092e-28
-3.73207e-28
-4.07587e-28
-4.1293e-28
-3.81883e-28
-3.17676e-28
-2.43371e-28
-2.10722e-28
-3.0327e-28
-6.25902e-28
-1.27303e-27
-2.28293e-27
-3.61215e-27
-5.06574e-27
-6.44606e-27
-7.42633e-27
-4.32655e-30
-4.51138e-30
-4.91215e-30
-5.56476e-30
-6.51984e-30
-7.82938e-30
-9.53114e-30
-1.16318e-29
-1.40937e-29
-1.68311e-29
-1.9726e-29
-2.2671e-29
-2.56459e-29
-2.88267e-29
-3.27141e-29
-3.8252e-29
-4.68897e-29
-6.05315e-29
-8.13169e-29
-1.11196e-28
-1.51309e-28
-2.01235e-28
-2.58247e-28
-3.16772e-28
-3.68304e-28
-4.02105e-28
-4.07207e-28
-3.76473e-28
-3.13489e-28
-2.41986e-28
-2.14863e-28
-3.17226e-28
-6.55562e-28
-1.32468e-27
-2.36004e-27
-3.71392e-27
-5.18203e-27
-6.56101e-27
-7.53011e-27
-4.26374e-30
-4.44588e-30
-4.84089e-30
-5.48429e-30
-6.42606e-30
-7.71752e-30
-9.39584e-30
-1.14675e-29
-1.38949e-29
-1.65933e-29
-1.94458e-29
-2.2346e-29
-2.52736e-29
-2.84021e-29
-3.22257e-29
-3.7676e-29
-4.61834e-29
-5.96267e-29
-8.01152e-29
-1.0957e-28
-1.4911e-28
-1.98312e-28
-2.54479e-28
-3.12105e-28
-3.62793e-28
-3.95954e-28
-4.00807e-28
-3.70452e-28
-3.08861e-28
-2.40484e-28
-2.19434e-28
-3.32465e-28
-6.87708e-28
-1.3803e-27
-2.44242e-27
-3.82157e-27
-5.30339e-27
-6.6777e-27
-7.63384e-27
-4.19435e-30
-4.37354e-30
-4.76217e-30
-5.39536e-30
-6.32237e-30
-7.59374e-30
-9.246e-30
-1.12854e-29
-1.36746e-29
-1.63299e-29
-1.91356e-29
-2.19866e-29
-2.48625e-29
-2.79341e-29
-3.16883e-29
-3.70428e-29
-4.54066e-29
-5.86299e-29
-7.87885e-29
-1.07771e-28
-1.46673e-28
-1.95071e-28
-2.503e-28
-3.0693e-28
-3.56689e-28
-3.89155e-28
-3.93751e-28
-3.63836e-28
-3.03791e-28
-2.38819e-28
-2.243e-28
-3.48681e-28
-7.21753e-28
-1.43889e-27
-2.52852e-27
-3.93283e-27
-5.42676e-27
-6.79219e-27
-7.7308e-27
-4.11851e-30
-4.29445e-30
-4.67612e-30
-5.29812e-30
-6.20893e-30
-7.45822e-30
-9.08185e-30
-1.10858e-29
-1.34332e-29
-1.60412e-29
-1.87959e-29
-2.15934e-29
-2.44134e-29
-2.74236e-29
-3.11027e-29
-3.63532e-29
-4.45604e-29
-5.75427e-29
-7.7339e-29
-1.05802e-28
-1.44003e-28
-1.91518e-28
-2.45719e-28
-3.01261e-28
-3.50009e-28
-3.81727e-28
-3.86059e-28
-3.56641e-28
-2.98278e-28
-2.36947e-28
-2.29323e-28
-3.6556e-28
-7.57083e-28
-1.49938e-27
-2.61665e-27
-4.04521e-27
-5.54885e-27
-6.90029e-27
-7.81582e-27
-4.03632e-30
-4.20875e-30
-4.58287e-30
-5.19272e-30
-6.08591e-30
-7.31118e-30
-8.90364e-30
-1.0869e-29
-1.31709e-29
-1.57277e-29
-1.84272e-29
-2.1167e-29
-2.39269e-29
-2.68713e-29
-3.04699e-29
-3.56084e-29
-4.36463e-29
-5.63669e-29
-7.57693e-29
-1.03667e-28
-1.41106e-28
-1.87661e-28
-2.40745e-28
-2.9511e-28
-3.42769e-28
-3.73688e-28
-3.77751e-28
-3.48883e-28
-2.92321e-28
-2.34824e-28
-2.34361e-28
-3.82772e-28
-7.93048e-28
-1.56064e-27
-2.70503e-27
-4.15613e-27
-5.66624e-27
-6.99769e-27
-7.88662e-27
-3.94792e-30
-4.11656e-30
-4.48257e-30
-5.07932e-30
-5.9535e-30
-7.15282e-30
-8.71163e-30
-1.06354e-29
-1.28881e-29
-1.53898e-29
-1.80299e-29
-2.0708e-29
-2.34038e-29
-2.62781e-29
-2.97908e-29
-3.48096e-29
-4.26656e-29
-5.51046e-29
-7.4082e-29
-1.0137e-28
-1.37986e-28
-1.83507e-28
-2.35391e-28
-2.88491e-28
-3.34986e-28
-3.6506e-28
-3.68849e-28
-3.40579e-28
-2.85921e-28
-2.32404e-28
-2.39268e-28
-3.99978e-28
-8.2897e-28
-1.62149e-27
-2.7918e-27
-4.26288e-27
-5.77538e-27
-7.07995e-27
-7.93547e-27
-3.85344e-30
-4.01805e-30
-4.37537e-30
-4.9581e-30
-5.8119e-30
-6.98341e-30
-8.50611e-30
-1.03852e-29
-1.25854e-29
-1.5028e-29
-1.76049e-29
-2.02172e-29
-2.28448e-29
-2.56448e-29
-2.90666e-29
-3.39581e-29
-4.16201e-29
-5.37579e-29
-7.22802e-29
-9.89147e-29
-1.3465e-28
-1.79064e-28
-2.29665e-28
-2.81419e-28
-3.2668e-28
-3.55862e-28
-3.59374e-28
-3.31748e-28
-2.79081e-28
-2.29643e-28
-2.43898e-28
-4.16827e-28
-8.64149e-28
-1.6807e-27
-2.87505e-27
-4.3627e-27
-5.87269e-27
-7.14262e-27
-7.96012e-27
-3.75305e-30
-3.91336e-30
-4.26144e-30
-4.82924e-30
-5.66133e-30
-6.80318e-30
-8.28741e-30
-1.01189e-29
-1.22631e-29
-1.4643e-29
-1.71526e-29
-1.96952e-29
-2.22509e-29
-2.49726e-29
-2.82984e-29
-3.30553e-29
-4.05116e-29
-5.23292e-29
-7.03672e-29
-9.63062e-29
-1.31104e-28
-1.74341e-28
-2.23582e-28
-2.73909e-28
-3.17867e-28
-3.46116e-28
-3.49349e-28
-3.2241e-28
-2.71803e-28
-2.265e-28
-2.48103e-28
-4.32965e-28
-8.97869e-28
-1.73704e-27
-2.95283e-27
-4.45281e-27
-5.95457e-27
-7.18131e-27
-7.95322e-27
-3.64689e-30
-3.80267e-30
-4.14097e-30
-4.69295e-30
-5.50202e-30
-6.61243e-30
-8.05584e-30
-9.83692e-30
-1.19218e-29
-1.42352e-29
-1.66737e-29
-1.91429e-29
-2.16229e-29
-2.42623e-29
-2.74874e-29
-3.21027e-29
-3.93418e-29
-5.08209e-29
-6.83464e-29
-9.35492e-29
-1.27355e-28
-1.69348e-28
-2.17152e-28
-2.65976e-28
-3.08567e-28
-3.35846e-28
-3.38799e-28
-3.12584e-28
-2.64092e-28
-2.22932e-28
-2.51735e-28
-4.48033e-28
-9.29409e-28
-1.78922e-27
-3.02321e-27
-4.53047e-27
-6.01752e-27
-7.19179e-27
-7.90981e-27
-3.53513e-30
-3.68613e-30
-4.01413e-30
-4.54944e-30
-5.33422e-30
-6.41143e-30
-7.81175e-30
-9.5396e-30
-1.15619e-29
-1.38052e-29
-1.6169e-29
-1.8561e-29
-2.09618e-29
-2.35152e-29
-2.6635e-29
-3.11018e-29
-3.81128e-29
-4.92357e-29
-6.62213e-29
-9.06485e-29
-1.23409e-28
-1.64095e-28
-2.10388e-28
-2.57638e-28
-2.98801e-28
-3.25074e-28
-3.27749e-28
-3.02293e-28
-2.55954e-28
-2.18903e-28
-2.54652e-28
-4.61679e-28
-9.58047e-28
-1.836e-27
-3.08426e-27
-4.593e-27
-6.0582e-27
-7.17016e-27
-7.82816e-27
-3.41795e-30
-3.56395e-30
-3.88114e-30
-4.39894e-30
-5.1582e-30
-6.20051e-30
-7.55553e-30
-9.22741e-30
-1.11839e-29
-1.33538e-29
-1.56392e-29
-1.79505e-29
-2.02686e-29
-2.27324e-29
-2.57423e-29
-3.00542e-29
-3.68267e-29
-4.75763e-29
-6.39957e-29
-8.76095e-29
-1.19275e-28
-1.5859e-28
-2.03305e-28
-2.48911e-28
-2.88589e-28
-3.13823e-28
-3.16223e-28
-2.9156e-28
-2.47399e-28
-2.14377e-28
-2.56715e-28
-4.73557e-28
-9.83079e-28
-1.87614e-27
-3.13414e-27
-4.63786e-27
-6.07347e-27
-7.11284e-27
-7.70275e-27
-3.29554e-30
-3.43631e-30
-3.7422e-30
-4.24167e-30
-4.97422e-30
-5.97998e-30
-7.28755e-30
-8.90084e-30
-1.07885e-29
-1.28815e-29
-1.50851e-29
-1.73123e-29
-1.95443e-29
-2.1915e-29
-2.4811e-29
-2.89617e-29
-3.54854e-29
-4.58454e-29
-6.16735e-29
-8.44376e-29
-1.1496e-28
-1.52845e-28
-1.95914e-28
-2.39811e-28
-2.77951e-28
-3.02119e-28
-3.04246e-28
-2.80407e-28
-2.38437e-28
-2.09322e-28
-2.57793e-28
-4.83332e-28
-1.00382e-27
-1.90845e-27
-3.17108e-27
-4.66271e-27
-6.0605e-27
-7.01665e-27
-7.53078e-27
-3.16809e-30
-3.3034e-30
-3.59752e-30
-4.07789e-30
-4.78256e-30
-5.75018e-30
-7.00823e-30
-8.56037e-30
-1.03763e-29
-1.23892e-29
-1.45075e-29
-1.66473e-29
-1.879e-29
-2.10644e-29
-2.38423e-29
-2.7826e-29
-3.40914e-29
-4.4046e-29
-5.92587e-29
-8.11382e-29
-1.10471e-28
-1.46869e-28
-1.88231e-28
-2.30357e-28
-2.66909e-28
-2.89983e-28
-2.91846e-28
-2.68859e-28
-2.29079e-28
-2.03714e-28
-2.57765e-28
-4.90692e-28
-1.01962e-27
-1.93181e-27
-3.19344e-27
-4.66542e-27
-6.01678e-27
-6.87889e-27
-7.31217e-27
-3.03579e-30
-3.16545e-30
-3.44734e-30
-3.90785e-30
-4.58353e-30
-5.51147e-30
-6.718e-30
-8.20651e-30
-9.94777e-30
-1.18774e-29
-1.39073e-29
-1.59565e-29
-1.8007e-29
-2.01819e-29
-2.2838e-29
-2.66489e-29
-3.26468e-29
-4.21812e-29
-5.67552e-29
-7.77172e-29
-1.05816e-28
-1.40674e-28
-1.80269e-28
-2.20566e-28
-2.55484e-28
-2.77443e-28
-2.79048e-28
-2.56942e-28
-2.1934e-28
-1.97531e-28
-2.5652e-28
-4.95345e-28
-1.02988e-27
-1.94516e-27
-3.19972e-27
-4.64416e-27
-5.94026e-27
-6.69735e-27
-7.04623e-27
-2.89885e-30
-3.02266e-30
-3.29188e-30
-3.73181e-30
-4.37743e-30
-5.26421e-30
-6.41728e-30
-7.83981e-30
-9.50366e-30
-1.13471e-29
-1.32854e-29
-1.52411e-29
-1.71963e-29
-1.92688e-29
-2.17994e-29
-2.54323e-29
-3.1154e-29
-4.0254e-29
-5.41675e-29
-7.41802e-29
-1.01004e-28
-1.3427e-28
-1.72041e-28
-2.10456e-28
-2.43697e-28
-2.6452e-28
-2.65878e-28
-2.44679e-28
-2.09237e-28
-1.90759e-28
-2.53964e-28
-4.97027e-28
-1.03405e-27
-1.94755e-27
-3.18861e-27
-4.59743e-27
-5.82937e-27
-6.4702e-27
-6.73542e-27
-2.75749e-30
-2.87526e-30
-3.13139e-30
-3.55005e-30
-4.16458e-30
-5.00878e-30
-6.10655e-30
-7.46082e-30
-9.04462e-30
-1.07989e-29
-1.26428e-29
-1.45019e-29
-1.63592e-29
-1.83265e-29
-2.07284e-29
-2.41782e-29
-2.96154e-29
-3.82675e-29
-5.14997e-29
-7.05334e-29
-9.60416e-29
-1.27669e-28
-1.63564e-28
-2.00045e-28
-2.3157e-28
-2.5124e-28
-2.52363e-28
-2.32097e-28
-1.98789e-28
-1.8339e-28
-2.50016e-28
-4.95511e-28
-1.03164e-27
-1.93814e-27
-3.15897e-27
-4.52408e-27
-5.68312e-27
-6.1959e-27
-6.38535e-27
-2.61193e-30
-2.72348e-30
-2.96612e-30
-3.36285e-30
-3.94531e-30
-4.74558e-30
-5.78628e-30
-7.07012e-30
-8.57135e-30
-1.02338e-29
-1.19804e-29
-1.37403e-29
-1.54971e-29
-1.73566e-29
-1.96265e-29
-2.28885e-29
-2.80336e-29
-3.62251e-29
-4.87563e-29
-6.67826e-29
-9.09382e-29
-1.20881e-28
-1.5485e-28
-1.8935e-28
-2.19123e-28
-2.37627e-28
-2.38527e-28
-2.19222e-28
-1.88015e-28
-1.75423e-28
-2.44614e-28
-4.90603e-28
-1.02224e-27
-1.91623e-27
-3.10992e-27
-4.42337e-27
-5.50114e-27
-5.87296e-27
-6.00642e-27
-2.46239e-30
-2.56755e-30
-2.79633e-30
-3.17049e-30
-3.71996e-30
-4.47501e-30
-5.45696e-30
-6.66829e-30
-8.08456e-30
-9.6525e-30
-1.12991e-29
-1.29573e-29
-1.46112e-29
-1.63604e-29
-1.84955e-29
-2.15654e-29
-2.64111e-29
-3.41301e-29
-4.59417e-29
-6.2934e-29
-8.57018e-29
-1.13917e-28
-1.45914e-28
-1.7839e-28
-2.06378e-28
-2.23704e-28
-2.24397e-28
-2.06079e-28
-1.7694e-28
-1.66864e-28
-2.37715e-28
-4.82153e-28
-1.00553e-27
-1.88125e-27
-3.04077e-27
-4.295e-27
-5.28387e-27
-5.49927e-27
-5.64689e-27
-2.30911e-30
-2.40771e-30
-2.62228e-30
-2.97329e-30
-3.48888e-30
-4.19748e-30
-5.11909e-30
-6.25595e-30
-7.585e-30
-9.05599e-30
-1.06002e-29
-1.21542e-29
-1.37029e-29
-1.53397e-29
-1.73372e-29
-2.02109e-29
-2.47504e-29
-3.19857e-29
-4.30604e-29
-5.89937e-29
-8.03407e-29
-1.06789e-28
-1.36771e-28
-1.67182e-28
-1.93356e-28
-2.09494e-28
-2.09996e-28
-1.92693e-28
-1.65586e-28
-1.57729e-28
-2.29296e-28
-4.70058e-28
-9.81259e-28
-1.83279e-27
-2.95111e-27
-4.13909e-27
-5.03266e-27
-5.07007e-27
-4.96397e-27
-2.15232e-30
-2.24422e-30
-2.44424e-30
-2.77154e-30
-3.25243e-30
-3.91343e-30
-4.77319e-30
-5.83374e-30
-7.07341e-30
-8.44514e-30
-9.88449e-30
-1.13321e-29
-1.27735e-29
-1.42958e-29
-1.61533e-29
-1.88273e-29
-2.30543e-29
-2.97955e-29
-4.0117e-29
-5.4968e-29
-7.48633e-29
-9.95081e-29
-1.27434e-28
-1.55742e-28
-1.80076e-28
-1.9502e-28
-1.9535e-28
-1.79091e-28
-1.53982e-28
-1.48039e-28
-2.19356e-28
-4.54259e-28
-9.49295e-28
-1.7706e-27
-2.84075e-27
-3.9562e-27
-4.75011e-27
-4.59134e-27
-3.99846e-27
-1.99226e-30
-2.07732e-30
-2.26248e-30
-2.56556e-30
-3.01096e-30
-3.62329e-30
-4.41979e-30
-5.40229e-30
-6.55058e-30
-7.82087e-30
-9.15322e-30
-1.04923e-29
-1.18246e-29
-1.32306e-29
-1.49459e-29
-1.74166e-29
-2.13254e-29
-2.75629e-29
-3.71161e-29
-5.08631e-29
-6.92781e-29
-9.20846e-29
-1.17918e-28
-1.4409e-28
-1.66559e-28
-1.80303e-28
-1.8048e-28
-1.65297e-28
-1.42154e-28
-1.37824e-28
-2.07917e-28
-4.34751e-28
-9.09589e-28
-1.69461e-27
-2.70977e-27
-3.7473e-27
-4.44001e-27
-4.07656e-27
-2.75275e-27
-1.82919e-30
-1.90728e-30
-2.0773e-30
-2.35567e-30
-2.76486e-30
-3.3275e-30
-4.05944e-30
-4.96226e-30
-6.0173e-30
-7.18414e-30
-8.40745e-30
-9.63618e-30
-1.08576e-29
-1.21455e-29
-1.37167e-29
-1.59811e-29
-1.95665e-29
-2.52914e-29
-3.40624e-29
-4.66853e-29
-6.35935e-29
-8.45299e-29
-1.08237e-28
-1.32241e-28
-1.52824e-28
-1.65366e-28
-1.65411e-28
-1.51335e-28
-1.30132e-28
-1.27122e-28
-1.95021e-28
-4.11576e-28
-8.62201e-28
-1.6049e-27
-2.55847e-27
-3.51366e-27
-4.10709e-27
-3.54868e-27
-1.08546e-27
-1.66335e-30
-1.73436e-30
-1.88896e-30
-2.14219e-30
-2.51451e-30
-3.02654e-30
-3.69268e-30
-4.51433e-30
-5.4744e-30
-6.53593e-30
-7.64834e-30
-8.76494e-30
-9.87393e-30
-1.10424e-29
-1.24677e-29
-1.45231e-29
-1.77804e-29
-2.29845e-29
-3.09606e-29
-4.24408e-29
-5.78179e-29
-7.68551e-29
-9.84052e-29
-1.20212e-28
-1.38891e-28
-1.50229e-28
-1.50163e-28
-1.37229e-28
-1.17947e-28
-1.15979e-28
-1.80734e-28
-3.84834e-28
-8.07292e-28
-1.50174e-27
-2.38741e-27
-3.25683e-27
-3.7565e-27
-3.04745e-27
-7.66756e-29
-1.49501e-30
-1.55882e-30
-1.69778e-30
-1.92545e-30
-2.26029e-30
-2.72085e-30
-3.32007e-30
-4.05918e-30
-4.92269e-30
-5.87721e-30
-6.87704e-30
-7.87997e-30
-8.87518e-30
-9.92296e-30
-1.12008e-29
-1.30449e-29
-1.59698e-29
-2.06459e-29
-2.78154e-29
-3.8136e-29
-5.19596e-29
-6.90709e-29
-8.84352e-29
-1.0802e-28
-1.24777e-28
-1.34911e-28
-1.34758e-28
-1.23003e-28
-1.05629e-28
-1.04444e-28
-1.65145e-28
-3.54671e-28
-7.45129e-28
-1.38557e-27
-2.19733e-27
-2.97846e-27
-3.3925e-27
-2.58962e-27
4.84067e-28
-1.32441e-30
-1.38094e-30
-1.50403e-30
-1.70578e-30
-2.00259e-30
-2.41091e-30
-2.9422e-30
-3.59751e-30
-4.36302e-30
-5.20899e-30
-6.09474e-30
-6.98261e-30
-7.86288e-30
-8.7889e-30
-9.91811e-30
-1.15488e-29
-1.41376e-29
-1.82791e-29
-2.46314e-29
-3.37772e-29
-4.60271e-29
-6.11883e-29
-7.83412e-29
-9.56814e-29
-1.10502e-28
-1.19433e-28
-1.19215e-28
-1.08677e-28
-9.32108e-29
-9.2578e-29
-1.48361e-28
-3.21287e-28
-6.76081e-28
-1.25701e-27
-1.98923e-27
-2.68028e-27
-3.01818e-27
-2.17847e-27
7.57174e-28
-1.15182e-30
-1.20098e-30
-1.30802e-30
-1.48354e-30
-1.74182e-30
-2.0972e-30
-2.55965e-30
-3.13003e-30
-3.79626e-30
-4.53231e-30
-5.30263e-30
-6.07427e-30
-6.8386e-30
-7.64201e-30
-8.6216e-30
-1.00372e-29
-1.22866e-29
-1.58878e-29
-2.14135e-29
-2.93706e-29
-4.00286e-29
-5.3218e-29
-6.81363e-29
-8.32109e-29
-9.60827e-29
-1.03813e-28
-1.03552e-28
-9.42726e-29
-8.07234e-29
-8.04427e-29
-1.30511e-28
-2.84929e-28
-6.00614e-28
-1.11683e-27
-1.76425e-27
-2.36408e-27
-2.63557e-27
-1.81046e-27
8.41062e-28
-9.77511e-31
-1.01923e-30
-1.11006e-30
-1.25905e-30
-1.47837e-30
-1.7802e-30
-2.17299e-30
-2.65746e-30
-3.22326e-30
-3.8482e-30
-4.50193e-30
-5.15632e-30
-5.80393e-30
-6.48409e-30
-7.31331e-30
-8.5125e-30
-1.04198e-29
-1.34756e-29
-1.81664e-29
-2.49227e-29
-3.39724e-29
-4.51705e-29
-5.78338e-29
-7.06246e-29
-8.15365e-29
-8.80684e-29
-8.77887e-29
-7.98102e-29
-6.81987e-29
-6.81065e-29
-1.11741e-28
-2.4589e-28
-5.19289e-28
-9.65964e-28
-1.52377e-27
-2.03165e-27
-2.24586e-27
-1.47886e-27
8.10424e-28
-8.01744e-31
-8.35954e-31
-9.1044e-31
-1.03268e-30
-1.21266e-30
-1.4604e-30
-1.78283e-30
-2.18052e-30
-2.64491e-30
-3.1577e-30
-3.69387e-30
-4.23021e-30
-4.76049e-30
-5.31696e-30
-5.9953e-30
-6.97705e-30
-8.54011e-30
-1.10462e-29
-1.48949e-29
-2.04395e-29
-2.78668e-29
-3.70566e-29
-4.74468e-29
-5.79378e-29
-6.68806e-29
-7.22172e-29
-7.19412e-29
-6.53082e-29
-5.56681e-29
-5.56411e-29
-9.22141e-29
-2.04506e-28
-4.32755e-28
-8.05491e-28
-1.26932e-27
-1.68485e-27
-1.84975e-27
-1.17604e-27
7.14764e-28
-6.24788e-31
-6.51445e-31
-7.09477e-31
-8.04755e-31
-9.4509e-31
-1.13829e-30
-1.38978e-30
-1.69994e-30
-2.06209e-30
-2.46188e-30
-2.8797e-30
-3.29735e-30
-3.70989e-30
-4.14243e-30
-4.66965e-30
-5.43328e-30
-6.65033e-30
-8.60318e-30
-1.16038e-29
-1.59276e-29
-2.17199e-29
-2.88865e-29
-3.69881e-29
-4.51656e-29
-5.21312e-29
-5.62761e-29
-5.60262e-29
-5.07842e-29
-4.31619e-29
-4.31209e-29
-7.21064e-29
-1.61148e-28
-3.4174e-28
-6.36635e-28
-1.00259e-27
-1.32561e-27
-1.44773e-27
-8.94889e-28
5.80389e-28
-4.46914e-31
-4.65979e-31
-5.07477e-31
-5.75644e-31
-6.76079e-31
-8.14381e-31
-9.94419e-31
-1.21647e-30
-1.4757e-30
-1.76181e-30
-2.06067e-30
-2.3592e-30
-2.65378e-30
-2.96236e-30
-3.33845e-30
-3.88362e-30
-4.75343e-30
-6.1503e-30
-8.29773e-30
-1.1393e-29
-1.554e-29
-2.06709e-29
-2.64704e-29
-3.23229e-29
-3.73048e-29
-4.02616e-29
-4.0059e-29
-3.62548e-29
-3.07094e-29
-3.06217e-29
-5.16054e-29
-1.16221e-28
-2.47043e-28
-4.60747e-28
-7.25437e-28
-9.55957e-28
-1.04022e-27
-6.29181e-28
4.26608e-28
-2.68394e-31
-2.79841e-31
-3.04752e-31
-3.45696e-31
-4.06043e-31
-4.89161e-31
-5.97377e-31
-7.30848e-31
-8.86652e-31
-1.05856e-30
-1.23805e-30
-1.4172e-30
-1.5938e-30
-1.7786e-30
-2.00379e-30
-2.3305e-30
-2.85236e-30
-3.6912e-30
-4.98155e-30
-6.84207e-30
-9.33519e-30
-1.242e-29
-1.59065e-29
-1.94243e-29
-2.24173e-29
-2.41897e-29
-2.40545e-29
-2.17352e-29
-1.83384e-29
-1.82199e-29
-3.09076e-29
-7.01578e-29
-1.49524e-28
-2.79291e-28
-4.39865e-28
-5.78033e-28
-6.27728e-28
-3.73782e-28
2.60688e-28
-8.94987e-32
-9.33125e-32
-1.01613e-31
-1.15265e-31
-1.35397e-31
-1.63137e-31
-1.99262e-31
-2.43823e-31
-2.95842e-31
-3.53224e-31
-4.13107e-31
-4.72819e-31
-5.31594e-31
-5.93003e-31
-6.67778e-31
-7.76349e-31
-9.50025e-31
-1.22957e-30
-1.65999e-30
-2.28103e-30
-3.1136e-30
-4.14405e-30
-5.30897e-30
-6.48444e-30
-7.48453e-30
-8.07598e-30
-8.02706e-30
-7.23975e-30
-6.07517e-30
-5.99105e-30
-1.02149e-29
-2.34105e-29
-5.00927e-29
-9.38321e-29
-1.47991e-28
-1.94096e-28
-2.10922e-28
-1.2442e-28
8.76457e-29
-1.14893e-20
-6.03036e-21
-3.78245e-21
-1.41487e-21
-1.68277e-21
-6.20789e-22
-3.19961e-22
-1.69671e-22
-1.05505e-22
-8.50327e-23
-3.28569e-23
-1.66336e-23
-9.37692e-24
-6.19926e-24
-4.20554e-24
-1.52554e-24
-6.74006e-25
-2.89857e-25
-8.96283e-26
3.90904e-26
1.38859e-25
1.75463e-25
1.87763e-25
1.9036e-25
1.88432e-25
)
;

boundaryField
{
    fixedWallsLeftTop
    {
        type            zeroGradient;
    }
    backFaceLeftTop
    {
        type            zeroGradient;
    }
    frontFaceLeftTop
    {
        type            zeroGradient;
    }
    symmetryWallLeftTop
    {
        type            fixedValue;
        value           uniform 0;
    }
    topToBottom
    {
        type            zeroGradient;
    }
    plug
    {
        type            cyclicAMI;
        value           nonuniform List<scalar> 
40
(
7.7762e-26
7.7987e-26
7.83486e-26
7.87763e-26
8.76572e-26
7.99278e-26
7.97833e-26
7.97004e-26
8.03957e-26
8.04545e-26
8.05192e-26
8.0724e-26
8.09955e-26
8.92085e-26
8.09054e-26
8.0616e-26
7.95275e-26
7.94469e-26
7.93752e-26
7.93122e-26
7.93909e-26
7.95377e-26
8.72236e-26
7.84696e-26
7.39705e-26
7.36486e-26
7.34728e-26
7.33104e-26
7.31612e-26
7.31527e-26
7.32183e-26
8.03673e-26
5.58459e-26
5.547e-26
5.5175e-26
5.50231e-26
5.49059e-26
5.48218e-26
5.48315e-26
5.49137e-26
)
;
    }
    fixedWallsChannel
    {
        type            zeroGradient;
    }
    inlet
    {
        type            zeroGradient;
    }
    outlet
    {
        type            cyclicAMI;
        value           nonuniform List<scalar> 5(8.02705e-26 8.19984e-26 8.05368e-26 7.4508e-26 5.51234e-26);
    }
    backFaceInletChannel
    {
        type            zeroGradient;
    }
    frontFaceInletChannel
    {
        type            zeroGradient;
    }
}


// ************************************************************************* //
