/*--------------------------------*- C++ -*----------------------------------*\
| =========                 |                                                 |
| \\      /  F ield         | OpenFOAM: The Open Source CFD Toolbox           |
|  \\    /   O peration     | Version:  4.1                                   |
|   \\  /    A nd           | Web:      www.OpenFOAM.org                      |
|    \\/     M anipulation  |                                                 |
\*---------------------------------------------------------------------------*/
FoamFile
{
    version     2.0;
    format      ascii;
    class       surfaceScalarField;
    location    "7";
    object      phi;
}
// * * * * * * * * * * * * * * * * * * * * * * * * * * * * * * * * * * * * * //

dimensions      [0 3 -1 0 0 0 0];

internalField   nonuniform List<scalar> 
3240
(
-8.52438e-25
-8.6504e-25
1.26059e-26
-8.65034e-25
-8.65034e-25
-8.65044e-25
-8.87925e-25
2.28956e-26
-8.87905e-25
-8.87905e-25
-8.87921e-25
-9.23118e-25
3.52216e-26
-9.23082e-25
-9.23103e-25
-9.88495e-25
6.54265e-26
-9.88442e-25
-9.88442e-25
-9.88469e-25
-1.0751e-24
8.6674e-26
-1.07502e-24
-1.07506e-24
-1.20293e-24
1.27923e-25
-1.20283e-24
-1.20283e-24
-1.20287e-24
-1.3712e-24
1.684e-25
-1.37108e-24
-1.37108e-24
-1.37113e-24
-1.59551e-24
2.24466e-25
-1.59537e-24
-1.59543e-24
-1.90175e-24
3.06419e-25
-1.90157e-24
-1.90157e-24
-1.90164e-24
-2.31185e-24
4.10328e-25
-2.31164e-24
-2.31173e-24
-2.86218e-24
5.50582e-25
-2.86193e-24
-2.86194e-24
-2.69046e-24
-2.51791e-24
-2.34551e-24
-2.10422e-24
-1.49842e-24
-5.13962e-25
-1.27097e-24
-1.0956e-24
-9.21318e-25
-7.8922e-25
-6.57026e-25
-5.26241e-25
-3.94692e-25
-1.97011e-25
2.60614e-25
-4.34987e-25
4.48233e-25
5.81725e-25
6.67896e-25
7.55558e-25
8.43601e-25
9.3114e-25
1.02017e-24
1.17172e-24
1.56877e-24
-4.4651e-25
1.71482e-24
1.70885e-24
1.70276e-24
1.69845e-24
1.69509e-24
1.69182e-24
1.69034e-24
1.74521e-24
2.03833e-24
-4.8002e-25
1.72071e-24
1.3552e-24
9.89794e-25
6.25941e-25
2.6256e-25
-1.01234e-25
-4.65267e-25
-8.07396e-25
-7.15426e-25
-9.28122e-26
-6.20305e-25
-9.48599e-26
-6.20193e-25
-5.36666e-25
-8.34592e-26
-5.36575e-25
-4.57084e-25
-7.94684e-26
-4.03834e-25
-5.3105e-26
-4.03774e-25
-3.49209e-25
-5.45499e-26
-3.15626e-25
-3.34818e-26
-3.15584e-25
-2.79067e-25
-3.64898e-26
-2.79029e-25
-2.40733e-25
-3.82872e-26
-2.16176e-25
-2.44931e-26
-2.16141e-25
-1.89504e-25
-2.66223e-26
-1.89469e-25
-1.63027e-25
-2.64368e-26
-1.43525e-25
-1.94518e-26
-1.43488e-25
-1.24103e-25
-1.93813e-26
-1.08823e-25
-1.52311e-26
-1.0878e-25
-9.34087e-26
-1.53666e-26
-9.33628e-26
-8.01448e-26
-1.32161e-26
-6.77095e-26
-1.23838e-26
-6.76581e-26
-5.59741e-26
-1.16818e-26
-5.59201e-26
-4.66649e-26
-9.25425e-27
-3.64804e-26
-1.01283e-26
-3.64225e-26
-2.75158e-26
-8.90614e-27
-1.82887e-26
-9.16879e-27
-1.82285e-26
-8.81383e-27
-9.41409e-27
-8.75309e-27
-8.75286e-27
8.21635e-30
-8.21635e-30
1.67466e-29
-8.53579e-30
2.59273e-29
-9.18527e-30
3.61149e-29
-1.01892e-29
4.77037e-29
-1.15858e-29
6.11402e-29
-1.34276e-29
7.69395e-29
-1.57842e-29
9.57042e-29
-1.87447e-29
1.18147e-28
-2.24216e-29
1.45119e-28
-2.69558e-29
1.77643e-28
-3.25231e-29
2.1696e-28
-3.93416e-29
2.64581e-28
-4.76807e-29
3.22352e-28
-5.7872e-29
3.92536e-28
-7.03209e-29
4.77903e-28
-8.55191e-29
5.81834e-28
-1.04059e-28
7.08444e-28
-1.26648e-28
8.62702e-28
-1.54128e-28
1.05058e-27
-1.87497e-28
1.2792e-27
-2.27935e-28
1.55703e-27
-2.76849e-28
1.89411e-27
-3.35923e-28
2.30235e-27
-4.07185e-28
2.79592e-27
-4.93071e-28
3.39169e-27
-5.9646e-28
4.10977e-27
-7.20613e-28
4.97373e-27
-8.6887e-28
6.01031e-27
-1.04394e-27
7.24746e-27
-1.24631e-27
8.70932e-27
-1.47111e-27
1.04049e-26
-1.70214e-27
1.23058e-26
-1.90099e-27
1.43052e-26
-1.98929e-27
1.61517e-26
-1.82323e-27
1.73596e-26
-1.17094e-27
1.71462e-26
2.62323e-28
1.45401e-26
2.66271e-27
5.84656e-27
8.20716e-30
-1.64282e-29
1.67282e-29
-1.70638e-29
2.5899e-29
-1.83573e-29
3.60752e-29
-2.03582e-29
4.7651e-29
-2.31437e-29
6.10725e-29
-2.68209e-29
7.68543e-29
-3.15309e-29
9.55983e-29
-3.74543e-29
1.18016e-28
-4.48187e-29
1.44958e-28
-5.39072e-29
1.77447e-28
-6.507e-29
2.1672e-28
-7.8738e-29
2.64287e-28
-9.54401e-29
3.21992e-28
-1.15824e-28
3.92096e-28
-1.40679e-28
4.77366e-28
-1.70969e-28
5.8118e-28
-2.07861e-28
7.07647e-28
-2.52772e-28
8.61734e-28
-3.07411e-28
1.04941e-27
-3.73835e-28
1.27778e-27
-4.54519e-28
1.55533e-27
-5.52426e-28
1.89207e-27
-6.71094e-28
2.2999e-27
-8.14719e-28
2.79297e-27
-9.88214e-28
3.38816e-27
-1.19719e-27
4.10558e-27
-1.44773e-27
4.96885e-27
-1.74583e-27
6.00477e-27
-2.09596e-27
7.24154e-27
-2.49815e-27
8.70375e-27
-2.94209e-27
1.04013e-26
-3.39569e-27
1.23074e-26
-3.78397e-27
1.43178e-26
-3.95321e-27
1.61844e-26
-3.61913e-27
1.7424e-26
-2.31923e-27
1.72492e-26
5.42472e-28
1.46733e-26
5.35269e-27
1.12047e-26
8.18174e-30
-2.46144e-29
1.66765e-29
-2.55653e-29
2.58189e-29
-2.75009e-29
3.59638e-29
-3.04962e-29
4.75039e-29
-3.46671e-29
6.08841e-29
-4.01745e-29
7.66173e-29
-4.72309e-29
9.53037e-29
-5.6108e-29
1.17653e-28
-6.71478e-29
1.44512e-28
-8.07748e-29
1.769e-28
-9.75129e-29
2.16052e-28
-1.18006e-28
2.63472e-28
-1.43041e-28
3.20998e-28
-1.73583e-28
3.90885e-28
-2.10807e-28
4.7589e-28
-2.56146e-28
5.79383e-28
-3.11347e-28
7.05461e-28
-3.7853e-28
8.59077e-28
-4.6027e-28
1.04618e-27
-5.59679e-28
1.27387e-27
-6.80513e-28
1.55058e-27
-8.27275e-28
1.88632e-27
-1.00534e-27
2.29296e-27
-1.22105e-27
2.78461e-27
-1.4818e-27
3.37814e-27
-1.79591e-27
4.09366e-27
-2.17239e-27
4.95484e-27
-2.61994e-27
5.98868e-27
-3.14501e-27
7.22378e-27
-3.74749e-27
8.68561e-27
-4.4122e-27
1.03858e-26
-5.09208e-27
1.23006e-26
-5.67695e-27
1.43312e-26
-5.9398e-27
1.62364e-26
-5.45761e-27
1.75385e-26
-3.53534e-27
1.74416e-26
7.38053e-28
1.49074e-26
7.99415e-27
1.70365e-26
8.14372e-30
-3.27625e-29
1.6599e-29
-3.40272e-29
2.56991e-29
-3.66022e-29
3.5797e-29
-4.05876e-29
4.72836e-29
-4.61377e-29
6.06018e-29
-5.34672e-29
7.62622e-29
-6.28594e-29
9.48621e-29
-7.46765e-29
1.17108e-28
-8.9374e-29
1.43842e-28
-1.07517e-28
1.7608e-28
-1.29803e-28
2.1505e-28
-1.57087e-28
2.6225e-28
-1.90415e-28
3.19509e-28
-2.31066e-28
3.89071e-28
-2.806e-28
4.73682e-28
-3.40923e-28
5.76696e-28
-4.14355e-28
7.02192e-28
-5.03722e-28
8.55101e-28
-6.12458e-28
1.04135e-27
-7.44723e-28
1.268e-27
-9.05542e-28
1.54346e-27
-1.10095e-27
1.87769e-27
-1.33813e-27
2.28253e-27
-1.62558e-27
2.77204e-27
-1.97314e-27
3.36308e-27
-2.3919e-27
4.07576e-27
-2.89378e-27
4.93384e-27
-3.49036e-27
5.96458e-27
-4.19025e-27
7.1972e-27
-4.99367e-27
8.65841e-27
-5.88125e-27
1.03624e-26
-6.79228e-27
1.22901e-26
-7.58358e-27
1.43505e-26
-7.95798e-27
1.63133e-26
-7.35666e-27
1.77094e-26
-4.8497e-27
1.77318e-26
8.08869e-28
1.5269e-26
1.05585e-26
2.34866e-26
8.09315e-30
-4.08599e-29
1.6496e-29
-4.24364e-29
2.55397e-29
-4.5647e-29
3.5575e-29
-5.06166e-29
4.69905e-29
-5.75377e-29
6.02261e-29
-6.66783e-29
7.57895e-29
-7.83919e-29
9.42742e-29
-9.31308e-29
1.16382e-28
-1.11463e-28
1.42951e-28
-1.34093e-28
1.74989e-28
-1.61891e-28
2.13717e-28
-1.95922e-28
2.60624e-28
-2.37489e-28
3.17528e-28
-2.88186e-28
3.86658e-28
-3.49956e-28
4.70745e-28
-4.25172e-28
5.73121e-28
-5.16728e-28
6.97842e-28
-6.28151e-28
8.4981e-28
-7.63729e-28
1.03491e-27
-9.28664e-28
1.26018e-27
-1.12924e-27
1.53397e-27
-1.37301e-27
1.8662e-27
-1.66896e-27
2.26862e-27
-2.02771e-27
2.75529e-27
-2.46156e-27
3.34301e-27
-2.98437e-27
4.05189e-27
-3.61107e-27
4.90584e-27
-4.35619e-27
5.93245e-27
-5.23081e-27
7.16169e-27
-6.23591e-27
8.62197e-27
-7.34892e-27
1.03308e-26
-8.49712e-27
1.22751e-26
-9.50725e-27
1.43745e-26
-1.00163e-26
1.64136e-26
-9.33406e-27
1.79358e-26
-6.29341e-27
1.81218e-26
7.11481e-28
1.57861e-26
1.29909e-26
2.9226e-26
8.03011e-30
-4.88941e-29
1.63676e-29
-5.07801e-29
2.53409e-29
-5.46214e-29
3.52981e-29
-6.05677e-29
4.66248e-29
-6.88493e-29
5.97576e-29
-7.9787e-29
7.52e-29
-9.38041e-29
9.35409e-29
-1.11442e-28
1.15477e-28
-1.3338e-28
1.41839e-28
-1.60463e-28
1.73628e-28
-1.93729e-28
2.12055e-28
-2.34453e-28
2.58596e-28
-2.84195e-28
3.15057e-28
-3.44858e-28
3.8365e-28
-4.18768e-28
4.67082e-28
-5.08764e-28
5.68664e-28
-6.18308e-28
6.92419e-28
-7.51622e-28
8.43213e-28
-9.13844e-28
1.02689e-27
-1.11121e-27
1.25043e-27
-1.35125e-27
1.52213e-27
-1.64301e-27
1.85185e-27
-1.9973e-27
2.25127e-27
-2.42684e-27
2.73438e-27
-2.94637e-27
3.31794e-27
-3.57257e-27
4.02209e-27
-4.32339e-27
4.87086e-27
-5.2165e-27
5.89224e-27
-6.26571e-27
7.11717e-27
-7.47335e-27
8.57605e-27
-8.81472e-27
1.02903e-26
-1.02072e-26
1.22548e-26
-1.1451e-26
1.44018e-26
-1.2123e-26
1.65352e-26
-1.14074e-26
1.8216e-26
-7.89841e-27
1.8613e-26
3.99022e-28
1.64356e-26
1.52607e-26
3.64822e-26
7.9547e-30
-5.68529e-29
1.6214e-29
-5.90455e-29
2.51031e-29
-6.35117e-29
3.49669e-29
-7.04254e-29
4.61873e-29
-8.00548e-29
5.91969e-29
-9.2773e-29
7.44945e-29
-1.09072e-28
9.26634e-29
-1.29582e-28
1.14394e-28
-1.55092e-28
1.40508e-28
-1.86585e-28
1.71999e-28
-2.25268e-28
2.10065e-28
-2.72622e-28
2.56169e-28
-3.30461e-28
3.12101e-28
-4.00997e-28
3.8005e-28
-4.86934e-28
4.62701e-28
-5.91571e-28
5.63332e-28
-7.18937e-28
6.8593e-28
-8.73942e-28
8.35318e-28
-1.06257e-27
1.01729e-27
-1.29207e-27
1.23876e-27
-1.57121e-27
1.50796e-27
-1.91055e-27
1.83466e-27
-2.32266e-27
2.23049e-27
-2.82237e-27
2.70933e-27
-3.42688e-27
3.28791e-27
-4.15568e-27
3.98636e-27
-5.02983e-27
4.82889e-27
-6.07028e-27
5.84394e-27
-7.29388e-27
7.06352e-27
-8.70496e-27
8.52035e-27
-1.0278e-26
1.02406e-26
-1.19228e-26
1.22279e-26
-1.34175e-26
1.44304e-26
-1.42856e-26
1.66756e-26
-1.35937e-26
1.85479e-26
-9.69741e-27
1.92074e-26
-1.7999e-28
1.72844e-26
1.72721e-26
4.21513e-26
7.86703e-30
-6.47239e-29
1.60353e-29
-6.72197e-29
2.48265e-29
-7.23039e-29
3.45817e-29
-8.01747e-29
4.56786e-29
-9.11371e-29
5.8545e-29
-1.05616e-28
7.36741e-29
-1.24172e-28
9.1643e-29
-1.47522e-28
1.13134e-28
-1.76565e-28
1.38961e-28
-2.12419e-28
1.70105e-28
-2.56458e-28
2.07751e-28
-3.1037e-28
2.53348e-28
-3.76216e-28
3.08663e-28
-4.56517e-28
3.75864e-28
-5.54348e-28
4.57606e-28
-6.73467e-28
5.57131e-28
-8.18461e-28
6.78385e-28
-9.94923e-28
8.26138e-28
-1.20966e-27
1.00612e-27
-1.47096e-27
1.22519e-27
-1.7888e-27
1.49148e-27
-2.17521e-27
1.81468e-27
-2.64454e-27
2.20631e-27
-3.21371e-27
2.68018e-27
-3.90239e-27
3.25294e-27
-4.73288e-27
3.94475e-27
-5.72945e-27
4.77995e-27
-6.91647e-27
5.78749e-27
-8.31418e-27
7.0006e-27
-9.92963e-27
8.45456e-27
-1.17378e-26
1.01808e-26
-1.36439e-26
1.21932e-26
-1.54088e-26
1.44581e-26
-1.65108e-26
1.68315e-26
-1.59093e-26
1.89286e-26
-1.17237e-26
1.99055e-26
-1.08053e-27
1.82795e-26
1.89824e-26
4.81029e-26
7.76724e-30
-7.24951e-29
1.58319e-29
-7.52903e-29
2.45117e-29
-8.09847e-29
3.41432e-29
-8.98003e-29
4.50994e-29
-1.02079e-28
5.78027e-29
-1.18296e-28
7.27401e-29
-1.3908e-28
9.04812e-29
-1.65234e-28
1.117e-28
-1.97766e-28
1.37199e-28
-2.37925e-28
1.67948e-28
-2.87254e-28
2.05118e-28
-3.47639e-28
2.50136e-28
-4.21392e-28
3.0475e-28
-5.11332e-28
3.711e-28
-6.20908e-28
4.51806e-28
-7.54326e-28
5.50073e-28
-9.16726e-28
6.69796e-28
-1.11438e-27
8.15686e-28
-1.35491e-27
9.93409e-28
-1.6476e-27
1.20973e-27
-2.00366e-27
1.4727e-27
-2.43657e-27
1.79191e-27
-2.96244e-27
2.17876e-27
-3.60028e-27
2.64696e-27
-4.3722e-27
3.21308e-27
-5.30337e-27
3.89727e-27
-6.4213e-27
4.72404e-27
-7.75396e-27
5.72288e-27
-9.32539e-27
6.92827e-27
-1.11461e-26
8.37831e-27
-1.31932e-26
1.01102e-26
-1.53701e-26
1.21491e-26
-1.74262e-26
1.44822e-26
-1.88043e-26
1.69989e-26
-1.83695e-26
1.93543e-26
-1.40109e-26
2.0708e-26
-2.36232e-27
1.94443e-26
2.03261e-26
5.43783e-26
7.65548e-30
-8.01544e-29
1.56042e-29
-8.32448e-29
2.4159e-29
-8.95406e-29
3.36521e-29
-9.92875e-29
4.44507e-29
-1.12863e-28
5.69713e-29
-1.30794e-28
7.16939e-29
-1.53775e-28
8.91799e-29
-1.82692e-28
1.10093e-28
-2.18662e-28
1.35226e-28
-2.63065e-28
1.65533e-28
-3.17607e-28
2.02167e-28
-3.84373e-28
2.46538e-28
-4.65917e-28
3.00367e-28
-5.6536e-28
3.65763e-28
-6.86511e-28
4.4531e-28
-8.34024e-28
5.42167e-28
-1.01358e-27
6.60174e-28
-1.23212e-27
8.03979e-28
-1.49808e-27
9.79166e-28
-1.82172e-27
1.19241e-27
-2.21547e-27
1.45167e-27
-2.69425e-27
1.7664e-27
-3.27589e-27
2.14788e-27
-3.98149e-27
2.60972e-27
-4.83562e-27
3.16836e-27
-5.8663e-27
3.84396e-27
-7.10439e-27
4.66118e-27
-8.58164e-27
5.65005e-27
-1.03262e-26
6.84639e-27
-1.2353e-26
8.29124e-27
-1.46427e-26
1.0028e-26
-1.71004e-26
1.2094e-26
-1.94703e-26
1.44996e-26
-2.11705e-26
1.71733e-26
-2.09879e-26
1.98203e-26
-1.65924e-26
2.16156e-26
-4.09057e-27
2.08063e-26
2.1211e-26
5.98518e-26
7.53191e-30
-8.76901e-29
1.53523e-29
-9.10708e-29
2.37692e-29
-9.79585e-29
3.3109e-29
-1.08622e-28
4.37335e-29
-1.23474e-28
5.60521e-29
-1.43091e-28
7.05372e-29
-1.68232e-28
8.77412e-29
-1.99869e-28
1.08317e-28
-2.3922e-28
1.33045e-28
-2.878e-28
1.62862e-28
-3.4747e-28
1.98906e-28
-4.20514e-28
2.42561e-28
-5.09725e-28
2.95521e-28
-6.18517e-28
3.59862e-28
-7.51057e-28
4.38128e-28
-9.12438e-28
5.33425e-28
-1.10888e-27
6.49536e-28
-1.34797e-27
7.91033e-28
-1.63895e-27
9.63417e-28
-1.99306e-27
1.17326e-27
-2.4239e-27
1.4284e-27
-2.94783e-27
1.73817e-27
-3.58441e-27
2.11372e-27
-4.35677e-27
2.56849e-27
-5.29194e-27
3.11884e-27
-6.42085e-27
3.78487e-27
-7.77774e-27
4.5914e-27
-9.39833e-27
5.56898e-27
-1.13154e-26
6.7548e-27
-1.35488e-26
8.19293e-27
-1.60849e-26
9.93318e-27
-1.88336e-26
1.2026e-26
-2.15407e-26
1.45069e-26
-2.36122e-26
1.73491e-26
-2.37762e-26
2.03204e-26
-1.95013e-26
2.26276e-26
-6.33612e-27
2.23519e-26
2.1558e-26
6.6991e-26
7.39673e-30
-9.50905e-29
1.50768e-29
-9.87565e-29
2.33426e-29
-1.06225e-28
3.25149e-29
-1.17788e-28
4.29488e-29
-1.33894e-28
5.50465e-29
-1.55166e-28
6.92718e-29
-1.82429e-28
8.61671e-29
-2.16737e-28
1.06374e-28
-2.5941e-28
1.30658e-28
-3.1209e-28
1.5994e-28
-3.76797e-28
1.95337e-28
-4.56006e-28
2.38209e-28
-5.52747e-28
2.90219e-28
-6.7072e-28
3.53407e-28
-8.14446e-28
4.3027e-28
-9.89447e-28
5.23862e-28
-1.20247e-27
6.37896e-28
-1.46174e-27
7.76868e-28
-1.77731e-27
9.46183e-28
-2.16135e-27
1.1523e-27
-2.62864e-27
1.40294e-27
-3.19694e-27
1.70728e-27
-3.88751e-27
2.07631e-27
-4.72554e-27
2.52333e-27
-5.74049e-27
3.06456e-27
-6.96619e-27
3.72004e-27
-8.44036e-27
4.51471e-27
-1.02029e-26
5.47964e-27
-1.22914e-26
6.65335e-27
-1.47319e-26
8.08299e-27
-1.75178e-26
9.8249e-27
-2.05678e-26
1.19431e-26
-2.3636e-26
1.45004e-26
-2.61304e-26
1.75201e-26
-2.67436e-26
2.0847e-26
-2.27691e-26
2.37434e-26
-9.17661e-27
2.41692e-26
2.11992e-26
7.17862e-26
7.25015e-30
-1.02344e-28
1.47781e-29
-1.0629e-28
2.28801e-29
-1.14328e-28
3.18707e-29
-1.26773e-28
4.20979e-29
-1.44107e-28
5.39559e-29
-1.67003e-28
6.78995e-29
-1.96346e-28
8.44601e-29
-2.33271e-28
1.04267e-28
-2.792e-28
1.2807e-28
-3.359e-28
1.56772e-28
-4.05544e-28
1.91468e-28
-4.90796e-28
2.3349e-28
-5.94918e-28
2.8447e-28
-7.21891e-28
3.46407e-28
-8.76581e-28
4.21749e-28
-1.06493e-27
5.13491e-28
-1.29421e-27
6.25274e-28
-1.57328e-27
7.61507e-28
-1.91294e-27
9.27491e-28
-2.32633e-27
1.12957e-27
-2.82936e-27
1.37532e-27
-3.44119e-27
1.67376e-27
-4.18475e-27
2.03571e-27
-5.08725e-27
2.4743e-27
-6.18058e-27
3.0056e-27
-7.50149e-27
3.64954e-27
-9.09125e-27
4.43117e-27
-1.0994e-26
5.38203e-27
-1.32529e-26
6.54191e-27
-1.59005e-26
7.96099e-27
-1.89395e-26
9.70217e-27
-2.23004e-26
1.18434e-26
-2.57539e-26
1.44758e-26
-2.87242e-26
1.76791e-26
-2.98963e-26
2.13907e-26
-2.64253e-26
2.49584e-26
-1.26946e-26
2.61926e-26
2.00278e-26
7.85152e-26
7.0924e-30
-1.0944e-28
1.44565e-29
-1.13659e-28
2.23823e-29
-1.22255e-28
3.11773e-29
-1.35563e-28
4.11821e-29
-1.54098e-28
5.27822e-29
-1.78581e-28
6.64225e-29
-2.0996e-28
8.26229e-29
-2.49445e-28
1.01999e-28
-2.9856e-28
1.25284e-28
-3.59192e-28
1.53362e-28
-4.33665e-28
1.87303e-28
-5.2483e-28
2.28411e-28
-6.36171e-28
2.78283e-28
-7.71949e-28
3.38873e-28
-9.37365e-28
4.12578e-28
-1.13878e-27
5.02328e-28
-1.38396e-27
6.11687e-28
-1.68239e-27
7.44971e-28
-2.04563e-27
9.0737e-28
-2.48774e-27
1.1051e-27
-3.02575e-27
1.34557e-27
-3.6802e-27
1.63766e-27
-4.47566e-27
1.99198e-27
-5.44133e-27
2.42147e-27
-6.61153e-27
2.942e-27
-8.02594e-27
3.57343e-27
-9.72942e-27
4.34082e-27
-1.17706e-26
5.27612e-27
-1.41983e-26
6.42035e-27
-1.70529e-26
7.82655e-27
-2.03476e-26
9.56404e-27
-2.40287e-26
1.17246e-26
-2.78906e-26
1.4429e-26
-3.13904e-26
1.7818e-26
-3.32366e-26
2.194e-26
-3.04957e-26
2.62673e-26
-1.69789e-26
2.85319e-26
1.78222e-26
8.05856e-26
6.92371e-30
-1.16368e-28
1.41127e-29
-1.20853e-28
2.185e-29
-1.29993e-28
3.04359e-29
-1.44143e-28
4.02028e-29
-1.63852e-28
5.15271e-29
-1.89885e-28
6.4843e-29
-2.23249e-28
8.06583e-29
-2.65235e-28
9.95734e-29
-3.17459e-28
1.22305e-28
-3.8193e-28
1.49715e-28
-4.61118e-28
1.82849e-28
-5.58054e-28
2.2298e-28
-6.76444e-28
2.71666e-28
-8.20817e-28
3.30816e-28
-9.96706e-28
4.02771e-28
-1.21087e-27
4.90391e-28
-1.47158e-27
5.97158e-28
-1.78891e-27
7.27286e-28
-2.17518e-27
8.8585e-28
-2.64534e-27
1.07892e-27
-3.21753e-27
1.31376e-27
-3.91361e-27
1.59903e-27
-4.75979e-27
1.94517e-27
-5.78724e-27
2.36489e-27
-7.03267e-27
2.87387e-27
-8.53871e-27
3.49178e-27
-1.03539e-26
4.24371e-27
-1.25314e-26
5.16194e-27
-1.51262e-26
6.28857e-27
-1.8187e-26
7.67931e-27
-2.17394e-26
9.40956e-27
-2.5749e-26
1.15846e-26
-3.00414e-26
1.43551e-26
-3.41233e-26
1.79276e-26
-3.67627e-26
2.24807e-26
-3.50012e-26
2.76593e-26
-2.21215e-26
3.10423e-26
1.44952e-26
8.49575e-26
6.74434e-30
-1.23115e-28
1.37471e-29
-1.27861e-28
2.1284e-29
-1.37531e-28
2.96475e-29
-1.52501e-28
3.91614e-29
-1.73353e-28
5.01925e-29
-2.00896e-28
6.31636e-29
-2.36195e-28
7.85694e-29
-2.80616e-28
9.69946e-29
-3.35869e-28
1.19137e-28
-4.04079e-28
1.45838e-28
-4.8786e-28
1.78113e-28
-5.90419e-28
2.17205e-28
-7.15675e-28
2.6463e-28
-8.68421e-28
3.22249e-28
-1.05451e-27
3.92343e-28
-1.2811e-27
4.77697e-28
-1.55693e-27
5.81707e-28
-1.89269e-27
7.0848e-28
-2.30139e-27
8.62962e-28
-2.79888e-27
1.05108e-27
-3.40438e-27
1.27991e-27
-4.14105e-27
1.55793e-27
-5.0367e-27
1.89536e-27
-6.12444e-27
2.30465e-27
-7.44336e-27
2.80126e-27
-9.039e-27
3.40468e-27
-1.09636e-26
4.13992e-27
-1.32751e-26
5.0395e-27
-1.60349e-26
6.14647e-27
-1.93008e-26
7.51893e-27
-2.31122e-26
9.23787e-27
-2.74572e-26
1.14213e-26
-3.22003e-26
1.42496e-26
-3.69146e-26
1.79981e-26
-4.04671e-26
2.29959e-26
-3.99558e-26
2.9124e-26
-2.82208e-26
3.38607e-26
9.81224e-27
9.42523e-26
6.55458e-30
-1.29673e-28
1.33603e-29
-1.34672e-28
2.06852e-29
-1.44856e-28
2.88134e-29
-1.60624e-28
3.80597e-29
-1.82587e-28
4.87805e-29
-2.11597e-28
6.13868e-29
-2.48777e-28
7.63592e-29
-2.95564e-28
9.42662e-29
-3.53761e-28
1.15786e-28
-4.25605e-28
1.41735e-28
-5.1385e-28
1.73103e-28
-6.21873e-28
2.11095e-28
-7.53803e-28
2.57187e-28
-9.14687e-28
3.13186e-28
-1.11069e-27
3.81309e-28
-1.34936e-27
4.64267e-28
-1.63989e-27
5.65359e-28
-1.99355e-27
6.8858e-28
-2.42406e-27
8.38742e-28
-2.94813e-27
1.02161e-27
-3.58601e-27
1.24408e-27
-4.36217e-27
1.51442e-27
-5.30596e-27
1.8426e-27
-6.45241e-27
2.24082e-27
-7.84293e-27
2.72428e-27
-9.52601e-27
3.31222e-27
-1.15576e-26
4.02953e-27
-1.40005e-26
4.90887e-27
-1.69228e-26
5.99402e-27
-2.03921e-26
7.34513e-27
-2.44629e-26
9.04815e-27
-2.91489e-26
1.12327e-26
-3.43601e-26
1.41075e-26
-3.9753e-26
1.80186e-26
-4.43368e-26
2.34654e-26
-4.53638e-26
3.06453e-26
-3.53795e-26
3.72379e-26
3.27241e-27
9.31142e-26
6.35471e-30
-1.36031e-28
1.2953e-29
-1.41275e-28
2.00545e-29
-1.51959e-28
2.79349e-29
-1.68499e-28
3.68993e-29
-1.91539e-28
4.72933e-29
-2.21971e-28
5.95153e-29
-2.60975e-28
7.40313e-29
-3.10056e-28
9.13924e-29
-3.71108e-28
1.12256e-28
-4.46475e-28
1.37414e-28
-5.39048e-28
1.67826e-28
-6.52369e-28
2.0466e-28
-7.90769e-28
2.49346e-28
-9.59543e-28
3.03639e-28
-1.16516e-27
3.69688e-28
-1.41553e-27
4.50121e-28
-1.72032e-27
5.48138e-28
-2.09135e-27
6.67617e-28
-2.54301e-27
8.13227e-28
-3.09285e-27
9.90565e-28
-3.76216e-27
1.20633e-27
-4.57663e-27
1.46856e-27
-5.56715e-27
1.78698e-27
-6.77062e-27
2.1735e-27
-8.23076e-27
2.64301e-27
-9.99896e-27
3.2145e-27
-1.21348e-26
3.91263e-27
-1.47063e-26
4.7701e-27
-1.77883e-26
5.83118e-27
-2.14586e-26
7.15769e-27
-2.57883e-26
8.8397e-27
-3.08189e-26
1.1017e-26
-3.65124e-26
1.39241e-26
-4.26248e-26
1.79776e-26
-4.83515e-26
2.38648e-26
-5.12169e-26
3.21915e-26
-4.36923e-26
4.08313e-26
-5.31416e-27
9.73365e-26
6.14504e-30
-1.42179e-28
1.25256e-29
-1.4766e-28
1.93929e-29
-1.58827e-28
2.70133e-29
-1.76115e-28
3.5682e-29
-2.00196e-28
4.57332e-29
-2.32004e-28
5.7552e-29
-2.7277e-28
7.15892e-29
-3.2407e-28
8.83777e-29
-3.87882e-28
1.08553e-28
-4.66657e-28
1.32882e-28
-5.63415e-28
1.6229e-28
-6.81859e-28
1.97909e-28
-8.26516e-28
2.41122e-28
-1.00292e-27
2.93624e-28
-1.21783e-27
3.57496e-28
-1.47953e-27
4.3528e-28
-1.79811e-27
5.30072e-28
-2.18592e-27
6.45623e-28
-2.65804e-27
7.86454e-28
-3.23282e-27
9.57986e-28
-3.93253e-27
1.16671e-27
-4.78409e-27
1.42042e-27
-5.81987e-27
1.72857e-27
-7.07857e-27
2.10277e-27
-8.60622e-27
2.55758e-27
-1.04571e-26
3.11164e-27
-1.26945e-26
3.78935e-27
-1.53913e-26
4.62328e-27
-1.86297e-26
5.658e-27
-2.24982e-26
6.95646e-27
-2.70849e-26
8.61196e-27
-3.24619e-26
1.07725e-26
-3.86478e-26
1.36951e-26
-4.5513e-26
1.7863e-26
-5.24837e-26
2.41659e-26
-5.74903e-26
3.37267e-26
-5.32467e-26
4.4937e-26
-1.64686e-26
1.08639e-25
5.9259e-30
-1.48108e-28
1.20789e-29
-1.53817e-28
1.87013e-29
-1.6545e-28
2.60501e-29
-1.83459e-28
3.44097e-29
-2.08544e-28
4.41025e-29
-2.41678e-28
5.55e-29
-2.84145e-28
6.90368e-29
-3.37585e-28
8.52266e-29
-4.04058e-28
1.04683e-28
-4.86119e-28
1.28144e-28
-5.86914e-28
1.56504e-28
-7.10298e-28
1.90853e-28
-8.60989e-28
2.32525e-28
-1.04475e-27
2.83157e-28
-1.26863e-27
3.44753e-28
-1.54125e-27
4.19767e-28
-1.87312e-27
5.11187e-28
-2.27713e-27
6.22632e-28
-2.76899e-27
7.58466e-28
-3.36783e-27
9.23923e-28
-4.09688e-27
1.12528e-27
-4.98423e-27
1.37007e-27
-6.0637e-27
1.66747e-27
-7.37578e-27
2.02874e-27
-8.96871e-27
2.46808e-27
-1.08996e-26
3.00377e-27
-1.32354e-26
3.65982e-27
-1.60543e-26
4.46854e-27
-1.94454e-26
5.47453e-27
-2.35083e-26
6.74138e-27
-2.83493e-26
8.36452e-27
-3.40719e-26
1.04979e-26
-4.0756e-26
1.34163e-26
-4.83982e-26
1.76628e-26
-5.66977e-26
2.43357e-26
-6.41384e-26
3.51979e-26
-6.41098e-26
4.99405e-26
-3.11504e-26
1.03858e-25
5.69763e-30
-1.53809e-28
1.16137e-29
-1.59738e-28
1.7981e-29
-1.71817e-28
2.50467e-29
-1.9052e-28
3.30843e-29
-2.1657e-28
4.24038e-29
-2.5098e-28
5.33624e-29
-2.95082e-28
6.63778e-29
-3.50579e-28
8.19442e-29
-4.19612e-28
1.00651e-28
-5.04832e-28
1.23208e-28
-6.09507e-28
1.50476e-28
-7.37642e-28
1.83502e-28
-8.94135e-28
2.2357e-28
-1.08497e-27
2.72252e-28
-1.31747e-27
3.31478e-28
-1.60059e-27
4.03607e-28
-1.94525e-27
4.91512e-28
-2.36484e-27
5.98678e-28
-2.87568e-27
7.29304e-28
-3.49766e-27
8.88429e-28
-4.25493e-27
1.0821e-27
-5.17673e-27
1.31759e-27
-6.29827e-27
1.60375e-27
-7.66177e-27
1.9515e-27
-9.31764e-27
2.37465e-27
-1.13257e-26
2.89101e-27
-1.37568e-26
3.52417e-27
-1.66939e-26
4.30603e-27
-2.02337e-26
5.28089e-27
-2.44868e-26
6.51248e-27
-2.95778e-26
8.09716e-27
-3.56431e-26
1.01922e-26
-4.28259e-26
1.30843e-26
-5.12583e-26
1.73652e-26
-6.09493e-26
2.4337e-26
-7.10898e-26
3.65165e-26
-7.62974e-26
5.53405e-26
-4.99057e-26
1.05879e-25
5.46056e-30
-1.59272e-28
1.11305e-29
-1.65412e-28
1.72329e-29
-1.7792e-28
2.40046e-29
-1.97287e-28
3.1708e-29
-2.24263e-28
4.06398e-29
-2.59895e-28
5.11425e-29
-3.05563e-28
6.36165e-29
-3.63033e-28
7.85353e-29
-4.34518e-28
9.64641e-29
-5.22767e-28
1.18083e-28
-6.31161e-28
1.44216e-28
-7.63849e-28
1.75868e-28
-9.25902e-28
2.1427e-28
-1.12352e-27
2.60927e-28
-1.36429e-27
3.17691e-28
-1.65746e-27
3.86823e-28
-2.01438e-27
4.71079e-28
-2.4489e-27
5.73799e-28
-2.97794e-27
6.99013e-28
-3.6221e-27
8.51557e-28
-4.40645e-27
1.03724e-27
-5.36129e-27
1.26305e-27
-6.5232e-27
1.53751e-27
-7.93607e-27
1.87118e-27
-9.65242e-27
2.2774e-27
-1.17348e-26
2.77353e-27
-1.42577e-26
3.38258e-27
-1.73091e-26
4.1359e-27
-2.09929e-26
5.07725e-27
-2.54311e-26
6.26987e-27
-3.07667e-26
7.80985e-27
-3.71692e-26
9.85494e-27
-4.48461e-26
1.26967e-26
-5.40695e-26
1.69596e-26
-6.51864e-26
2.41288e-26
-7.82431e-26
3.75725e-26
-8.97559e-26
6.15708e-26
-7.38237e-26
8.77408e-26
5.21508e-30
-1.6449e-28
1.06301e-29
-1.7083e-28
1.64582e-29
-1.83749e-28
2.29256e-29
-2.0375e-28
3.02827e-29
-2.3161e-28
3.8813e-29
-2.68409e-28
4.88437e-29
-3.15574e-28
6.07571e-29
-3.74926e-28
7.50054e-29
-4.48754e-28
9.21283e-29
-5.39895e-28
1.12775e-28
-6.51842e-28
1.37734e-28
-7.88878e-28
1.67964e-28
-9.56243e-28
2.04639e-28
-1.16034e-27
2.492e-28
-1.409e-27
3.03414e-28
-1.71178e-27
3.69442e-28
-2.08041e-27
4.49917e-28
-2.52919e-27
5.48032e-28
-3.07561e-27
6.67639e-28
-3.74098e-27
8.13363e-28
-4.55119e-27
9.90761e-28
-5.53762e-27
1.20654e-27
-6.73813e-27
1.46886e-27
-8.19824e-27
1.78788e-27
-9.97251e-27
2.17649e-27
-1.21262e-26
2.65147e-27
-1.47372e-26
3.23523e-27
-1.78985e-26
3.95838e-27
-2.17214e-26
4.86382e-27
-2.63389e-26
6.01377e-27
-3.19125e-26
7.50277e-27
-3.8644e-26
9.486e-27
-4.68046e-26
1.2252e-26
-5.68065e-26
1.64373e-26
-6.93495e-26
2.36684e-26
-8.54624e-26
3.82103e-26
-1.04319e-25
6.80326e-26
-1.0355e-25
7.20178e-26
4.96156e-30
-1.69454e-28
1.01134e-29
-1.75986e-28
1.56582e-29
-1.89294e-28
2.18112e-29
-2.09899e-28
2.88107e-29
-2.38599e-28
3.69264e-29
-2.7651e-28
4.64696e-29
-3.25098e-28
5.7804e-29
-3.86242e-28
7.13597e-29
-4.62299e-28
8.76504e-29
-5.56191e-28
1.07294e-28
-6.71518e-28
1.31039e-28
-8.12691e-28
1.598e-28
-9.85109e-28
1.94693e-28
-1.19537e-27
2.37089e-28
-1.45153e-27
2.88669e-28
-1.76347e-27
3.51491e-28
-2.14323e-27
4.2806e-28
-2.60559e-27
5.21418e-28
-3.16855e-27
6.3523e-28
-3.85409e-27
7.73905e-28
-4.68893e-27
9.42741e-28
-5.70544e-27
1.14813e-27
-6.94273e-27
1.39789e-27
-8.44786e-27
1.70173e-27
-1.02774e-26
2.07205e-27
-1.24991e-26
2.52502e-27
-1.51944e-26
3.08232e-27
-1.84611e-26
3.77367e-27
-2.24176e-26
4.64088e-27
-2.7208e-26
5.74451e-27
-3.30116e-26
7.17634e-27
-4.00615e-26
9.08593e-27
-4.86898e-26
1.17503e-26
-5.94434e-26
1.57928e-26
-7.33733e-26
2.29142e-26
-9.25761e-26
3.82418e-26
-1.19673e-25
7.5054e-26
-1.40244e-25
5.18521e-26
4.70039e-30
-1.74157e-28
9.58102e-30
-1.8087e-28
1.4834e-29
-1.94548e-28
2.06632e-29
-2.15724e-28
2.72943e-29
-2.45221e-28
3.49829e-29
-2.84184e-28
4.40238e-29
-3.34121e-28
5.47617e-29
-3.96962e-28
6.7604e-29
-4.75131e-28
8.30373e-29
-5.7163e-28
1.01647e-28
-6.90159e-28
1.24143e-28
-8.35252e-28
1.51389e-28
-1.01246e-27
1.84446e-28
-1.22855e-27
2.24611e-28
-1.49183e-27
2.73478e-28
-1.81243e-27
3.32997e-28
-2.20275e-27
4.05542e-28
-2.67797e-27
4.93996e-28
-3.25661e-27
6.01836e-28
-3.96127e-27
7.33245e-28
-4.81945e-27
8.93249e-28
-5.86448e-27
1.08792e-27
-7.13665e-27
1.32471e-27
-8.68452e-27
1.61286e-27
-1.05665e-26
1.96424e-27
-1.28529e-26
2.39435e-27
-1.56285e-26
2.92406e-27
-1.89957e-26
3.58206e-27
-2.308e-26
4.40873e-27
-2.8036e-26
5.46251e-27
-3.40604e-26
6.83121e-27
-4.14159e-26
8.65578e-27
-5.04906e-26
1.11931e-26
-6.19548e-26
1.50247e-26
-7.71898e-26
2.18304e-26
-9.93779e-26
3.742e-26
-1.35295e-25
8.27585e-26
-1.85438e-25
4.14031e-26
4.43198e-30
-1.78591e-28
9.03391e-30
-1.85475e-28
1.39869e-29
-1.99501e-28
1.94833e-29
-2.21216e-28
2.57357e-29
-2.51465e-28
3.29854e-29
-2.91419e-28
4.15101e-29
-3.42628e-28
5.16349e-29
-4.0707e-28
6.3744e-29
-4.8723e-28
7.82961e-29
-5.86187e-28
9.58433e-29
-7.07735e-28
1.17054e-28
-8.56524e-28
1.42745e-28
-1.03824e-27
1.73915e-28
-1.25984e-27
2.11787e-28
-1.52983e-27
2.57865e-28
-1.8586e-27
3.13988e-28
-2.25888e-27
3.82396e-28
-2.74622e-27
4.65809e-28
-3.33964e-27
5.67509e-28
-4.06234e-27
6.91443e-28
-4.94255e-27
8.42362e-28
-6.0145e-27
1.02601e-27
-7.3196e-27
1.24943e-27
-8.90782e-27
1.52141e-27
-1.08394e-26
1.85321e-27
-1.3187e-26
2.25965e-27
-1.60386e-26
2.76069e-27
-1.95013e-26
3.38382e-27
-2.37071e-26
4.16776e-27
-2.88209e-26
5.16829e-27
-3.50557e-26
6.46822e-27
-4.27015e-26
8.19721e-27
-5.21964e-26
1.05837e-26
-6.43171e-26
1.41372e-26
-8.07316e-26
2.03938e-26
-1.05634e-25
3.54158e-26
-1.50355e-25
9.1828e-26
-2.41669e-25
-3.47804e-25
4.15673e-30
-1.8275e-28
8.47287e-30
-1.89794e-28
1.31183e-29
-2.04147e-28
1.82733e-29
-2.26368e-28
2.41376e-29
-2.5732e-28
3.0937e-29
-2.98206e-28
3.89324e-29
-3.50607e-28
4.84285e-29
-4.16551e-28
5.97857e-29
-4.98577e-28
7.34342e-29
-5.9984e-28
8.98917e-29
-7.2422e-28
1.09786e-28
-8.76476e-28
1.33881e-28
-1.06243e-27
1.63115e-28
-1.28919e-27
1.98637e-28
-1.56547e-27
2.41854e-28
-1.9019e-27
2.94494e-28
-2.31152e-27
3.58659e-28
-2.81023e-27
4.36901e-28
-3.41753e-27
5.32301e-28
-4.15716e-27
6.48565e-28
-5.05803e-27
7.90158e-28
-6.15524e-27
9.62481e-28
-7.49126e-27
1.17216e-27
-9.1174e-27
1.4275e-27
-1.10956e-26
1.73915e-27
-1.35008e-26
2.12115e-27
-1.6424e-26
2.59246e-27
-1.99768e-26
3.17926e-27
-2.42973e-26
3.91837e-27
-2.95606e-26
4.86245e-27
-3.59943e-26
6.08842e-27
-4.39133e-26
7.71237e-27
-5.37979e-26
9.92706e-27
-6.65093e-26
1.3141e-26
-8.39372e-26
1.86049e-26
-1.111e-25
3.17636e-26
-1.63556e-25
8.76045e-26
-2.97284e-25
-7.07789e-25
3.87507e-30
-1.86627e-28
7.89877e-30
-1.93821e-28
1.22295e-29
-2.08478e-28
1.70352e-29
-2.3117e-28
2.25021e-29
-2.62779e-28
2.8841e-29
-3.04532e-28
3.62947e-29
-3.58046e-28
4.51474e-29
-4.25389e-28
5.57352e-29
-5.09156e-28
6.8459e-29
-6.12569e-28
8.38014e-29
-7.39589e-28
1.02348e-28
-8.95076e-28
1.24811e-28
-1.08498e-27
1.52064e-28
-1.31655e-27
1.85179e-28
-1.5987e-27
2.2547e-28
-1.94228e-27
2.74545e-28
-2.36059e-27
3.34367e-28
-2.86992e-27
4.07316e-28
-3.49014e-27
4.96265e-28
-4.24556e-27
6.04677e-28
-5.16571e-27
7.36716e-28
-6.28649e-27
8.97435e-28
-7.65137e-27
1.09304e-27
-9.31291e-27
1.3313e-27
-1.13347e-26
1.62222e-27
-1.37937e-26
1.97903e-27
-1.6784e-26
2.41963e-27
-2.04211e-26
2.96873e-27
-2.48495e-26
3.66101e-27
-3.02531e-26
4.54569e-27
-3.68735e-26
5.69303e-27
-4.50468e-26
7.20391e-27
-5.52872e-26
9.22993e-27
-6.85146e-26
1.20545e-26
-8.67566e-26
1.65064e-26
-1.15557e-25
2.64137e-26
-1.73512e-25
7.11903e-26
-3.41811e-25
-1.07266e-24
3.58744e-30
-1.90217e-28
7.3125e-30
-1.97549e-28
1.13218e-29
-2.12487e-28
1.57708e-29
-2.35616e-28
2.0832e-29
-2.67833e-28
2.67004e-29
-3.10389e-28
3.3601e-29
-3.64932e-28
4.17967e-29
-4.33571e-28
5.15987e-29
-5.1895e-28
6.33782e-29
-6.24353e-28
7.75819e-29
-7.53817e-28
9.47516e-29
-9.12296e-28
1.15548e-28
-1.10585e-27
1.40778e-28
-1.34188e-27
1.71436e-28
-1.62946e-27
2.08737e-28
-1.97965e-27
2.54172e-28
-2.40603e-27
3.09558e-28
-2.92517e-27
3.77099e-28