/*--------------------------------*- C++ -*----------------------------------*\
| =========                 |                                                 |
| \\      /  F ield         | OpenFOAM: The Open Source CFD Toolbox           |
|  \\    /   O peration     | Version:  4.1                                   |
|   \\  /    A nd           | Web:      www.OpenFOAM.org                      |
|    \\/     M anipulation  |                                                 |
\*---------------------------------------------------------------------------*/
FoamFile
{
    version     2.0;
    format      ascii;
    class       volVectorField;
    location    "7";
    object      U;
}
// * * * * * * * * * * * * * * * * * * * * * * * * * * * * * * * * * * * * * //

dimensions      [0 1 -1 0 0 0 0];

internalField   nonuniform List<vector> 
1705
(
(-6.76876e-61 -5.0617e-28 -6.99057e-30)
(-6.57136e-60 -2.14743e-28 1.64362e-29)
(2.01482e-60 -5.16526e-28 2.45545e-29)
(1.8018e-57 -7.65396e-28 4.86186e-30)
(6.48549e-55 -4.92822e-28 -1.59551e-29)
(1.52183e-52 -2.2922e-28 5.48451e-29)
(7.25229e-51 -5.6561e-28 1.64366e-29)
(1.97989e-48 -7.85478e-28 -1.17025e-29)
(3.19715e-46 -4.87118e-28 -2.51978e-29)
(1.02127e-43 -2.57626e-28 9.65264e-29)
(3.17469e-46 -6.2866e-28 6.87736e-30)
(1.55994e-48 -5.20826e-28 -9.94144e-30)
(3.23605e-50 -3.01862e-28 1.43099e-28)
(4.72018e-52 -6.93641e-28 3.1714e-29)
(1.08625e-49 -8.74632e-28 -1.92364e-30)
(2.35634e-47 -5.53542e-28 -2.18238e-29)
(1.4879e-46 -3.69945e-28 2.01933e-28)
(1.63819e-43 -8.08728e-28 2.20863e-29)
(1.35465e-45 -6.30121e-28 -4.66588e-30)
(2.27151e-47 -4.57336e-28 2.79851e-28)
(5.34513e-48 -9.32792e-28 5.79347e-29)
(1.49673e-45 -1.0643e-27 1.11537e-29)
(2.3461e-43 -7.14577e-28 -2.0572e-29)
(1.56369e-46 -5.76772e-28 3.76829e-28)
(9.96297e-48 -1.12337e-27 4.78922e-29)
(-3.91635e-45 -1.21334e-27 -1.31074e-29)
(-4.54178e-43 -8.28422e-28 -4.1858e-29)
(2.25196e-44 -7.2885e-28 5.00585e-28)
(-2.46001e-43 -1.36363e-27 3.12728e-29)
(-2.11374e-45 -1.00872e-27 -1.83565e-29)
(-3.77414e-46 -9.16433e-28 6.82455e-28)
(-4.49122e-43 -1.64585e-27 9.41472e-29)
(-6.69398e-45 -1.68312e-27 3.0952e-30)
(-4.76248e-43 -1.21701e-27 -4.83443e-29)
(5.3482e-45 -1.16937e-27 9.03701e-28)
(2.94858e-43 -2.0562e-27 7.59267e-29)
(2.43349e-40 -1.52135e-27 -1.01088e-29)
(1.15382e-37 -1.48447e-27 1.23594e-27)
(6.04313e-36 -2.55245e-27 1.81579e-28)
(3.82158e-33 -2.56695e-27 1.02789e-28)
(3.70145e-32 -2.78911e-27 8.03239e-27)
(3.39732e-32 -3.56135e-27 8.08358e-27)
(-6.02793e-33 -2.9253e-27 8.08017e-27)
(-3.64935e-30 2.90029e-26 1.11315e-26)
(7.12151e-31 -8.87115e-28 5.9308e-27)
(-3.63994e-30 -3.18111e-26 1.06037e-26)
(-1.05766e-32 -5.44409e-28 8.20259e-27)
(1.76729e-32 9.18467e-29 8.15554e-27)
(-1.71328e-31 -6.61704e-28 8.52599e-27)
(-1.64608e-31 -9.46241e-28 8.53058e-27)
(-1.68062e-31 -1.73447e-27 8.46779e-27)
(-2.82025e-31 -1.13671e-27 8.50633e-27)
(-1.02232e-29 3.07002e-26 1.14287e-26)
(1.91631e-30 4.2972e-28 6.18337e-27)
(-1.01807e-29 -3.03816e-26 1.10744e-26)
(-2.08375e-32 1.01789e-27 8.57909e-27)
(3.6121e-31 1.59139e-27 8.66307e-27)
(1.2245e-31 7.76733e-28 8.7347e-27)
(1.1979e-31 4.55415e-28 8.75246e-27)
(1.23891e-31 -3.66404e-28 8.73155e-27)
(5.23583e-31 1.94446e-28 8.80368e-27)
(3.58642e-29 3.16655e-26 1.15595e-26)
(-6.8729e-30 1.31794e-27 6.15899e-27)
(3.54395e-29 -2.91065e-26 1.14157e-26)
(1.06957e-31 2.10793e-27 8.36801e-27)
(1.14101e-31 2.58227e-27 8.36676e-27)
(1.17453e-31 1.7019e-27 8.45135e-27)
(1.20321e-31 1.31744e-27 8.49564e-27)
(1.2195e-31 4.42329e-28 8.50191e-27)
(7.23552e-33 9.12224e-28 8.58772e-27)
(-1.00955e-29 3.09503e-26 1.10643e-26)
(2.066e-30 5.74768e-27 5.43212e-27)
(-1.11873e-29 -2.34409e-26 9.16492e-27)
(-2.27123e-31 1.8922e-27 6.97116e-27)
(-1.05634e-31 2.03156e-27 6.97982e-27)
(-1.05685e-31 9.50826e-28 7.05492e-27)
(-1.06987e-31 3.1772e-28 7.07769e-27)
(-1.08995e-31 -5.46046e-28 7.06054e-27)
(-1.80089e-31 -7.91856e-28 7.05198e-27)
(-6.46877e-30 1.28619e-26 7.99844e-27)
(4.15112e-31 1.10097e-26 6.71993e-28)
(2.70347e-35 -3.66404e-28 -1.82467e-28)
(1.45031e-36 -3.8019e-28 1.18852e-30)
(3.07745e-40 -2.66121e-28 -1.60497e-28)
(6.03695e-42 -2.95906e-28 -1.23067e-29)
(2.24576e-45 -2.82276e-28 -1.44422e-28)
(1.43715e-47 -2.1161e-28 -1.07672e-28)
(3.17149e-46 -1.99304e-28 -3.70523e-30)
(3.88501e-43 -2.1468e-28 -9.91301e-29)
(-3.64839e-43 -1.52879e-28 -7.57456e-29)
(-3.45803e-46 -1.56836e-28 1.79578e-31)
(-7.4208e-48 -1.14572e-28 -7.23849e-29)
(1.31766e-46 -1.38576e-28 -6.46321e-30)
(2.18554e-43 -1.59277e-28 -6.92428e-29)
(-3.45013e-43 -9.43899e-29 -5.39679e-29)
(-3.37337e-46 -1.13076e-28 -3.44812e-30)
(-5.44593e-47 -8.53856e-29 -5.225e-29)
(-1.69918e-43 -1.06078e-28 -8.172e-30)
(3.21803e-43 -1.23626e-28 -5.12356e-29)
(-3.2991e-43 -5.64788e-29 -4.04068e-29)
(-3.17281e-46 -8.79447e-29 -5.21216e-30)
(-1.23591e-47 -1.08096e-28 -3.9129e-29)
(-1.18118e-47 -4.41753e-29 -3.19763e-29)
(-3.03796e-46 -7.32025e-29 -2.24114e-30)
(-3.02285e-43 -5.80096e-29 -3.09807e-29)
(-3.04042e-46 -7.17151e-29 -5.16964e-30)
(-1.18802e-47 -7.91034e-29 -2.98595e-29)
(-1.19794e-47 -2.68142e-29 -2.4439e-29)
(-3.09334e-46 -4.94673e-29 -2.42054e-30)
(-3.09378e-43 -4.04585e-29 -2.40055e-29)
(-6.04003e-46 -4.76288e-29 -4.105e-30)
(-2.90529e-43 -4.92488e-29 -2.33577e-29)
(-1.04417e-46 -1.50777e-29 -1.96063e-29)
(-3.12565e-46 -2.87835e-29 -1.81211e-30)
(-3.0137e-43 -3.18882e-29 -1.92767e-29)
(-9.6994e-47 -1.08345e-29 -1.7279e-29)
(-5.49454e-48 -6.0276e-30 -6.4005e-32)
(-1.11568e-47 -7.85878e-30 -1.76533e-29)
(-2.82718e-46 -2.55573e-30 4.48475e-31)
(-2.79253e-43 2.24896e-30 -1.77366e-29)
(-2.51467e-279 2.73878e-33 -1.36939e-32)
(-6.28246e-273 2.84528e-33 -4.16048e-32)
(-1.53824e-266 3.0618e-33 -7.1123e-32)
(-3.68872e-260 3.39646e-33 -1.03404e-31)
(-8.65739e-254 3.86198e-33 -1.39697e-31)
(-1.98718e-247 4.47592e-33 -1.81406e-31)
(-4.45745e-241 5.26144e-33 -2.30132e-31)
(-9.76289e-235 6.24824e-33 -2.87739e-31)
(-2.08607e-228 7.47386e-33 -3.56418e-31)
(-4.34444e-222 8.98529e-33 -4.38775e-31)
(-8.80961e-216 1.08411e-32 -5.37935e-31)
(-1.73754e-209 1.31139e-32 -6.57671e-31)
(-3.32942e-203 1.58936e-32 -8.02567e-31)
(-6.19049e-197 1.92907e-32 -9.7822e-31)
(-1.11539e-190 2.34403e-32 -1.19148e-30)
(-1.94472e-184 2.85064e-32 -1.45073e-30)
(-3.27594e-178 3.46863e-32 -1.76622e-30)
(-5.32273e-172 4.22161e-32 -2.15046e-30)
(-8.32639e-166 5.13762e-32 -2.61857e-30)
(-1.2515e-159 6.24989e-32 -3.18879e-30)
(-1.80342e-153 7.59782e-32 -3.88295e-30)
(-2.48541e-147 9.22832e-32 -4.72704e-30)
(-3.26713e-141 1.11975e-31 -5.7519e-30)
(-4.08407e-135 1.35728e-31 -6.9941e-30)
(-4.83857e-129 1.64357e-31 -8.4971e-30)
(-5.41234e-123 1.9882e-31 -1.03127e-29)
(-5.69143e-117 2.40204e-31 -1.25024e-29)
(-5.5985e-111 2.89623e-31 -1.51391e-29)
(-5.12203e-105 3.47979e-31 -1.83067e-29)
(-4.32927e-99 4.15436e-31 -2.20963e-29)
(-3.35372e-93 4.90371e-31 -2.65946e-29)
(-2.35834e-87 5.67378e-31 -3.1857e-29)
(-1.48777e-81 6.33664e-31 -3.78511e-29)
(-8.29647e-76 6.63095e-31 -4.43516e-29)
(-4.01245e-70 6.07743e-31 -5.07615e-29)
(-1.6408e-64 3.9031e-31 -5.58523e-29)
(-5.47598e-59 -8.74454e-32 -5.75101e-29)
(-1.41558e-53 -8.8758e-31 -5.28111e-29)
(-2.60729e-48 -1.94879e-30 -3.99535e-29)
(-9.13036e-283 8.21487e-33 -1.36785e-32)
(-2.26809e-276 8.53322e-33 -4.15587e-32)
(-5.5214e-270 9.18084e-33 -7.1045e-32)
(-1.31633e-263 1.01825e-32 -1.0329e-31)
(-3.0712e-257 1.15765e-32 -1.39543e-31)
(-7.00736e-251 1.34162e-32 -1.81205e-31)
(-1.56231e-244 1.57717e-32 -2.29877e-31)
(-3.40082e-238 1.8733e-32 -2.8742e-31)
(-7.22139e-232 2.24135e-32 -3.56023e-31)
(-1.49441e-225 2.69544e-32 -4.38289e-31)
(-3.01088e-219 3.2531e-32 -5.3734e-31)
(-5.89963e-213 3.93598e-32 -6.56942e-31)
(-1.12296e-206 4.77069e-32 -8.01675e-31)
(-2.07381e-200 5.78986e-32 -9.77128e-31)
(-3.71075e-194 7.03334e-32 -1.19014e-30)
(-6.42416e-188 8.54959e-32 -1.4491e-30)
(-1.07437e-181 1.03973e-31 -1.76423e-30)
(-1.73273e-175 1.26473e-31 -2.14804e-30)
(-2.68998e-169 1.53846e-31 -2.61562e-30)
(-4.01163e-163 1.87111e-31 -3.18522e-30)
(-5.73426e-157 2.27485e-31 -3.87864e-30)
(-7.83697e-151 2.76425e-31 -4.72184e-30)
(-1.02127e-144 3.35673e-31 -5.74564e-30)
(-1.26512e-138 4.07301e-31 -6.98658e-30)
(-1.48465e-132 4.93762e-31 -8.48807e-30)
(-1.64411e-126 5.97883e-31 -1.03018e-29)
(-1.71051e-120 7.22783e-31 -1.24895e-29)
(-1.66339e-114 8.71568e-31 -1.5124e-29)
(-1.50297e-108 1.04663e-30 -1.82893e-29)
(-1.25303e-102 1.24815e-30 -2.20771e-29)
(-9.55846e-97 1.47107e-30 -2.65754e-29)
(-6.60399e-91 1.69928e-30 -3.18417e-29)
(-4.08044e-85 1.89499e-30 -3.78478e-29)
(-2.21836e-79 1.98083e-30 -4.43753e-29)
(-1.03847e-73 1.81412e-30 -5.08372e-29)
(-4.06121e-68 1.16339e-30 -5.60145e-29)
(-1.26739e-62 -2.68268e-31 -5.77894e-29)
(-2.91632e-57 -2.67181e-30 -5.32051e-29)
(-4.14246e-52 -5.68376e-30 -4.00227e-29)
(1.40013e-280 1.36809e-32 -1.36361e-32)
(3.47439e-274 1.42097e-32 -4.14301e-32)
(8.44857e-268 1.52861e-32 -7.08253e-32)
(2.01186e-261 1.69515e-32 -1.02971e-31)
(4.68833e-255 1.92703e-32 -1.39112e-31)
(1.06838e-248 2.23318e-32 -1.80646e-31)
(2.37895e-242 2.62539e-32 -2.29168e-31)
(5.1717e-236 3.11875e-32 -2.86534e-31)
(1.0967e-229 3.73222e-32 -3.54926e-31)
(2.26645e-223 4.4894e-32 -4.36939e-31)
(4.56006e-217 5.41943e-32 -5.35684e-31)
(8.92271e-211 6.55813e-32 -6.54917e-31)
(1.69601e-204 7.94939e-32 -7.99203e-31)
(3.12775e-198 9.64689e-32 -9.74112e-31)
(5.58896e-192 1.17162e-31 -1.18647e-30)
(9.66284e-186 1.42372e-31 -1.44462e-30)
(1.61392e-179 1.73069e-31 -1.75878e-30)
(2.59974e-173 2.10434e-31 -2.1414e-30)
(4.03141e-167 2.55894e-31 -2.60755e-30)
(6.00608e-161 3.11172e-31 -3.17541e-30)
(8.57783e-155 3.78344e-31 -3.86673e-30)
(1.17156e-148 4.59901e-31 -4.7074e-30)
(1.52609e-142 5.58811e-31 -5.72815e-30)
(1.8903e-136 6.78591e-31 -6.96544e-30)
(2.219e-130 8.23337e-31 -8.46258e-30)
(2.45932e-124 9.977e-31 -1.02712e-29)
(2.56236e-118 1.20671e-30 -1.2453e-29)
(2.49741e-112 1.45526e-30 -1.50808e-29)
(2.26407e-106 1.74699e-30 -1.82391e-29)
(1.89645e-100 2.08188e-30 -2.20207e-29)
(1.45616e-94 2.45143e-30 -2.65156e-29)
(1.01522e-88 2.82926e-30 -3.17856e-29)
(6.3522e-83 3.15364e-30 -3.78106e-29)
(3.51522e-77 3.29767e-30 -4.43863e-29)
(1.68838e-71 3.02558e-30 -5.09461e-29)
(6.86416e-66 1.95152e-30 -5.62919e-29)
(2.28096e-60 -4.26849e-31 -5.83008e-29)
(5.88177e-55 -4.44896e-30 -5.39159e-29)
(1.08154e-49 -9.41368e-30 -4.02145e-29)
(-2.45031e-279 1.91256e-32 -1.35728e-32)
(-6.12377e-273 1.98642e-32 -4.12377e-32)
(-1.49991e-266 2.13677e-32 -7.04966e-32)
(-3.59811e-260 2.36946e-32 -1.02493e-31)
(-8.44783e-254 2.69349e-32 -1.38467e-31)
(-1.93981e-247 3.12139e-32 -1.79808e-31)
(-4.35288e-241 3.66968e-32 -2.28106e-31)
(-9.53765e-235 4.35949e-32 -2.85206e-31)
(-2.03878e-228 5.21739e-32 -3.53282e-31)
(-4.24775e-222 6.2764e-32 -4.34915e-31)
(-8.61734e-216 7.5772e-32 -5.33202e-31)
(-1.70039e-209 9.16975e-32 -6.51882e-31)
(-3.25979e-203 1.11152e-31 -7.95497e-31)
(-6.06405e-197 1.34883e-31 -9.69595e-31)
(-1.09318e-190 1.63802e-31 -1.18096e-30)
(-1.90704e-184 1.99023e-31 -1.43792e-30)
(-3.21435e-178 2.41901e-31 -1.75062e-30)
(-5.22593e-172 2.94084e-31 -2.13147e-30)
(-8.18041e-166 3.57576e-31 -2.59548e-30)
(-1.23044e-159 4.34801e-31 -3.16073e-30)
(-1.77445e-153 5.28685e-31 -3.84889e-30)
(-2.44755e-147 6.42741e-31 -4.68574e-30)
(-3.22034e-141 7.81158e-31 -5.7019e-30)
(-4.02969e-135 9.4888e-31 -6.93367e-30)
(-4.77954e-129 1.15165e-30 -8.42425e-30)
(-5.35306e-123 1.39594e-30 -1.02252e-29)
(-5.63708e-117 1.68872e-30 -1.2398e-29)
(-5.55393e-111 2.03677e-30 -1.50159e-29)
(-5.09054e-105 2.44509e-30 -1.8164e-29)
(-4.31167e-99 2.91372e-30 -2.19362e-29)
(-3.34817e-93 3.43115e-30 -2.64259e-29)
(-2.36108e-87 3.96145e-30 -3.17013e-29)
(-1.49445e-81 4.42017e-30 -3.77541e-29)
(-8.36667e-76 4.63259e-30 -4.44009e-29)
(-4.06568e-70 4.27142e-30 -5.11064e-29)
(-1.67222e-64 2.79501e-30 -5.67049e-29)
(-5.62059e-59 -5.1565e-31 -5.90695e-29)
(-1.4652e-53 -6.18421e-30 -5.50024e-29)
(-2.72008e-48 -1.35078e-29 -4.12972e-29)
(5.68888e-281 2.45408e-32 -1.34885e-32)
(1.41095e-274 2.54879e-32 -4.09818e-32)
(3.42913e-268 2.74164e-32 -7.00593e-32)
(8.1613e-262 3.04014e-32 -1.01857e-31)
(1.9008e-255 3.45585e-32 -1.37608e-31)
(4.32905e-249 4.00485e-32 -1.78694e-31)
(9.63369e-243 4.70838e-32 -2.26692e-31)
(2.09302e-236 5.59358e-32 -2.83438e-31)
(4.43564e-230 6.69457e-32 -3.51092e-31)
(9.16075e-224 8.05369e-32 -4.3222e-31)
(1.84189e-217 9.72314e-32 -5.29898e-31)
(3.60156e-211 1.1767e-31 -6.47841e-31)
(6.84091e-205 1.42635e-31 -7.90565e-31)
(1.26066e-198 1.73084e-31 -9.63582e-31)
(2.25095e-192 2.10185e-31 -1.17364e-30)
(3.88863e-186 2.55365e-31 -1.429e-30)
(6.48961e-180 3.10361e-31 -1.73977e-30)
(1.04448e-173 3.77291e-31 -2.11826e-30)
(1.61825e-167 4.58729e-31 -2.57941e-30)
(2.40869e-161 5.57796e-31 -3.14119e-30)
(3.4368e-155 6.78261e-31 -3.82514e-30)
(4.68932e-149 8.24651e-31 -4.6569e-30)
(6.10208e-143 1.00236e-30 -5.66692e-30)
(7.5502e-137 1.21777e-30 -6.89134e-30)
(8.85307e-131 1.47823e-30 -8.37316e-30)
(9.8003e-125 1.79209e-30 -1.01638e-29)
(1.01983e-118 2.16828e-30 -1.23248e-29)
(9.927e-113 2.61552e-30 -1.49295e-29)
(8.98743e-107 3.14036e-30 -1.80638e-29)
(7.51771e-101 3.74319e-30 -2.18235e-29)
(5.7642e-95 4.41006e-30 -2.6306e-29)
(4.01303e-89 5.09647e-30 -3.15878e-29)
(2.50748e-83 5.69694e-30 -3.76764e-29)
(1.38583e-77 5.99143e-30 -4.44161e-29)
(6.64895e-72 5.56357e-30 -5.13136e-29)
(2.70102e-66 3.71436e-30 -5.72493e-29)
(8.97254e-61 -5.06796e-31 -6.00967e-29)
(2.31506e-55 -7.84978e-30 -5.65143e-29)
(4.2755e-50 -1.75707e-29 -4.3303e-29)
(-1.62462e-279 2.9918e-32 -1.33834e-32)
(-4.11106e-273 3.10722e-32 -4.06627e-32)
(-1.01937e-266 3.34228e-32 -6.95139e-32)
(-2.47514e-260 3.70614e-32 -1.01065e-31)
(-5.88109e-254 4.2129e-32 -1.36538e-31)
(-1.36643e-247 4.88218e-32 -1.77303e-31)
(-3.10209e-241 5.73987e-32 -2.24928e-31)
(-6.87537e-235 6.81909e-32 -2.81234e-31)
(-1.48639e-228 8.16144e-32 -3.48361e-31)
(-3.13155e-222 9.81855e-32 -4.28858e-31)
(-6.42307e-216 1.1854e-31 -5.25776e-31)
(-1.2812e-209 1.43458e-31 -6.42801e-31)
(-2.48251e-203 1.73895e-31 -7.84415e-31)
(-4.66687e-197 2.11015e-31 -9.56085e-31)
(-8.50059e-191 2.56241e-31 -1.16451e-30)
(-1.4981e-184 3.11312e-31 -1.41788e-30)
(-2.55052e-178 3.78345e-31 -1.72624e-30)
(-4.18779e-172 4.59924e-31 -2.1018e-30)
(-6.6193e-166 5.59191e-31 -2.55938e-30)
(-1.00518e-159 6.79957e-31 -3.11682e-30)
(-1.46325e-153 8.26829e-31 -3.79552e-30)
(-2.037e-147 1.00534e-30 -4.62092e-30)
(-2.70452e-141 1.22209e-30 -5.62328e-30)
(-3.4144e-135 1.48485e-30 -6.8385e-30)
(-4.08515e-129 1.80264e-30 -8.30939e-30)
(-4.61453e-123 2.18565e-30 -1.00872e-29)
(-4.90007e-117 2.64482e-30 -1.22333e-29)
(-4.86736e-111 3.1909e-30 -1.48215e-29)
(-4.49699e-105 3.83218e-30 -1.79384e-29)
(-3.83874e-99 4.56975e-30 -2.16823e-29)
(-3.00371e-93 5.38788e-30 -2.61553e-29)
(-2.13401e-87 6.23477e-30 -3.14439e-29)
(-1.3606e-81 6.98609e-30 -3.75751e-29)
(-7.67204e-76 7.37977e-30 -4.44276e-29)
(-3.75443e-70 6.91381e-30 -5.15618e-29)
(-1.55487e-64 4.73059e-30 -5.7919e-29)
(-5.26098e-59 -3.70184e-31 -6.13823e-29)
(-1.38024e-53 -9.4172e-30 -5.84152e-29)
(-2.58268e-48 -2.19029e-29 -4.48866e-29)
(-1.73417e-279 3.5249e-32 -1.32577e-32)
(-4.38648e-273 3.66085e-32 -4.02809e-32)
(-1.08723e-266 3.93777e-32 -6.88614e-32)
(-2.63893e-260 4.36644e-32 -1.00116e-31)
(-6.26804e-254 4.96347e-32 -1.35256e-31)
(-1.45584e-247 5.752e-32 -1.7564e-31)
(-3.30398e-241 6.76254e-32 -2.22818e-31)
(-7.32054e-235 8.03412e-32 -2.78595e-31)
(-1.58216e-228 9.61575e-32 -3.45093e-31)
(-3.33237e-222 1.15683e-31 -4.24835e-31)
(-6.8331e-216 1.39666e-31 -5.20843e-31)
(-1.36264e-209 1.69025e-31 -6.3677e-31)
(-2.63964e-203 2.04885e-31 -7.77054e-31)
(-4.96109e-197 2.48618e-31 -9.47113e-31)
(-9.03445e-191 3.01901e-31 -1.15358e-30)
(-1.59184e-184 3.66778e-31 -1.40458e-30)
(-2.70954e-178 4.45748e-31 -1.71005e-30)
(-4.44799e-172 5.41855e-31 -2.08209e-30)
(-7.02921e-166 6.58804e-31 -2.5354e-30)
(-1.06722e-159 8.01091e-31 -3.08766e-30)
(-1.55328e-153 9.74153e-31 -3.76007e-30)
(-2.16193e-147 1.18452e-30 -4.57785e-30)
(-2.86986e-141 1.43999e-30 -5.57102e-30)
(-3.62247e-135 1.74974e-30 -6.77523e-30)
(-4.33329e-129 2.12442e-30 -8.233e-30)
(-4.89389e-123 2.57608e-30 -9.99536e-30)
(-5.19571e-117 3.11774e-30 -1.21237e-29)
(-5.15997e-111 3.76226e-30 -1.4692e-29)
(-4.76633e-105 4.51987e-30 -1.7788e-29)
(-4.06777e-99 5.39277e-30 -2.15123e-29)
(-3.18224e-93 6.36423e-30 -2.5973e-29)
(-2.2604e-87 7.37666e-30 -3.12681e-29)
(-1.44098e-81 8.28952e-30 -3.74474e-29)
(-8.12525e-76 8.80286e-30 -4.44305e-29)
(-3.97739e-70 8.33368e-30 -5.18435e-29)
(-1.64873e-64 5.86526e-30 -5.87061e-29)
(-5.59074e-59 -7.30301e-32 -6.29262e-29)
(-1.47341e-53 -1.08443e-29 -6.08208e-29)
(-2.7772e-48 -2.62112e-29 -4.83584e-29)
(-6.60585e-283 4.05256e-32 -1.31116e-32)
(-1.66113e-276 4.20884e-32 -3.98371e-32)
(-4.09291e-270 4.52719e-32 -6.81027e-32)
(-9.87477e-264 5.02e-32 -9.90132e-32)
(-2.33124e-257 5.7064e-32 -1.33767e-31)
(-5.38138e-251 6.61297e-32 -1.73705e-31)
(-1.21369e-244 7.7748e-32 -2.20364e-31)
(-2.67217e-238 9.23677e-32 -2.75527e-31)
(-5.73835e-232 1.10552e-31 -3.41293e-31)
(-1.20078e-225 1.33001e-31 -4.20156e-31)
(-2.44603e-219 1.60575e-31 -5.15107e-31)
(-4.8452e-213 1.94331e-31 -6.29757e-31)
(-9.32215e-207 2.35559e-31 -7.68496e-31)
(-1.73995e-200 2.85838e-31 -9.36682e-31)
(-3.14627e-194 3.47094e-31 -1.14087e-30)
(-5.50388e-188 4.21679e-31 -1.38911e-30)
(-9.29987e-182 5.12466e-31 -1.69122e-30)
(-1.51525e-175 6.22955e-31 -2.05919e-30)
(-2.37623e-169 7.5741e-31 -2.50753e-30)
(-3.57941e-163 9.21007e-31 -3.05375e-30)
(-5.16755e-157 1.12e-30 -3.71883e-30)
(-7.13251e-151 1.36192e-30 -4.52776e-30)
(-9.38644e-145 1.65573e-30 -5.51023e-30)
(-1.17419e-138 2.01203e-30 -6.70161e-30)
(-1.39146e-132 2.44309e-30 -8.14412e-30)
(-1.55604e-126 2.96285e-30 -9.8885e-30)
(-1.63484e-120 3.58643e-30 -1.19961e-29)
(-1.6056e-114 4.32892e-30 -1.45411e-29)
(-1.46538e-108 5.20269e-30 -1.76123e-29)
(-1.23426e-102 6.21153e-30 -2.13134e-29)
(-9.51523e-97 7.3386e-30 -2.57585e-29)
(-6.64707e-91 8.52223e-30 -3.10588e-29)
(-4.15557e-85 9.60877e-30 -3.72899e-29)
(-2.28835e-79 1.02655e-29 -4.44188e-29)
(-1.08689e-73 9.83433e-30 -5.21493e-29)
(-4.32463e-68 7.14036e-30 -5.96004e-29)
(-1.37989e-62 4.2015e-31 -6.47242e-29)
(-3.27957e-57 -1.20849e-29 -6.36429e-29)
(-4.95534e-52 -3.00846e-29 -5.18607e-29)
(-5.87311e-284 4.57397e-32 -1.29453e-32)
(-2.0588e-277 4.75034e-32 -3.93318e-32)
(-6.47148e-271 5.10962e-32 -6.72391e-32)
(-1.8906e-264 5.66583e-32 -9.77577e-32)
(-5.22183e-258 6.44053e-32 -1.3207e-31)
(-1.37626e-251 7.46375e-32 -1.71503e-31)
(-3.48002e-245 8.77508e-32 -2.1757e-31)
(-8.47023e-239 1.04252e-31 -2.72034e-31)
(-1.98837e-232 1.24777e-31 -3.36967e-31)
(-4.50694e-226 1.50115e-31 -4.1483e-31)
(-9.86929e-220 1.81237e-31 -5.08577e-31)
(-2.08814e-213 2.19337e-31 -6.21773e-31)
(-4.26784e-207 2.65869e-31 -7.58753e-31)
(-8.42208e-201 3.22616e-31 -9.24806e-31)
(-1.60353e-194 3.91752e-31 -1.12641e-30)
(-2.94288e-188 4.75931e-31 -1.3715e-30)
(-5.20005e-182 5.78396e-31 -1.66979e-30)
(-8.83486e-176 7.031e-31 -2.03311e-30)
(-1.44103e-169 8.54858e-31 -2.47579e-30)
(-2.25249e-163 1.03952e-30 -3.01515e-30)
(-3.36741e-157 1.26415e-30 -3.67188e-30)
(-4.80387e-151 1.53726e-30 -4.47071e-30)
(-6.52282e-145 1.86899e-30 -5.441e-30)
(-8.40572e-139 2.27133e-30 -6.61776e-30)
(-1.02467e-132 2.7582e-30 -8.04284e-30)
(-1.17716e-126 3.34542e-30 -9.7667e-30)
(-1.26901e-120 4.05025e-30 -1.18505e-29)
(-1.27738e-114 4.89014e-30 -1.43688e-29)
(-1.19366e-108 5.87986e-30 -1.74115e-29)
(-1.02843e-102 7.02524e-30 -2.10852e-29)
(-8.10318e-97 8.31034e-30 -2.55109e-29)
(-5.78078e-91 9.67132e-30 -3.08141e-29)
(-3.68795e-85 1.0945e-29 -3.70988e-29)
(-2.07092e-79 1.17717e-29 -4.43854e-29)
(-1.00231e-73 1.14263e-29 -5.24685e-29)
(-4.06067e-68 8.57818e-30 -6.05889e-29)
(-1.31799e-62 1.14759e-30 -6.67713e-29)
(-3.18262e-57 -1.31029e-29 -6.69218e-29)
(-4.88116e-52 -3.41606e-29 -5.50291e-29)
(-2.06292e-280 5.08832e-32 -1.2759e-32)
(-6.7189e-274 5.2845e-32 -3.87659e-32)
(-2.02842e-267 5.68418e-32 -6.62717e-32)
(-5.78353e-261 6.30293e-32 -9.63514e-32)
(-1.57315e-254 7.16474e-32 -1.30171e-31)
(-4.10605e-248 8.30302e-32 -1.69036e-31)
(-1.03204e-241 9.76184e-32 -2.14441e-31)
(-2.50343e-235 1.15975e-31 -2.68122e-31)
(-5.868e-229 1.38809e-31 -3.32121e-31)
(-1.33001e-222 1.66997e-31 -4.08864e-31)
(-2.91565e-216 2.0162e-31 -5.01263e-31)
(-6.18132e-210 2.44004e-31 -6.12831e-31)
(-1.26687e-203 2.9577e-31 -7.4784e-31)
(-2.50855e-197 3.58898e-31 -9.11505e-31)
(-4.79513e-191 4.35806e-31 -1.11021e-30)
(-8.83953e-185 5.2945e-31 -1.35178e-30)
(-1.56962e-178 6.43436e-31 -1.64579e-30)
(-2.68099e-172 7.82165e-31 -2.00389e-30)
(-4.39795e-166 9.50996e-31 -2.44024e-30)
(-6.91652e-160 1.15644e-30 -2.9719e-30)
(-1.04073e-153 1.40638e-30 -3.61928e-30)
(-1.49493e-147 1.71027e-30 -4.40679e-30)
(-2.04473e-141 2.07945e-30 -5.36342e-30)
(-2.65546e-135 2.52726e-30 -6.52377e-30)
(-3.26384e-129 3.06927e-30 -7.9293e-30)
(-3.78273e-123 3.72322e-30 -9.63009e-30)
(-4.11664e-117 4.50856e-30 -1.16872e-29)
(-4.18639e-111 5.4452e-30 -1.41752e-29)
(-3.95597e-105 6.55054e-30 -1.71853e-29)
(-3.45078e-99 7.83302e-30 -2.08273e-29)
(-2.75693e-93 9.27864e-30 -2.52293e-29)
(-1.99834e-87 1.08235e-29 -3.05319e-29)
(-1.29899e-81 1.22988e-29 -3.68698e-29)
(-7.46274e-76 1.33249e-29 -4.43225e-29)
(-3.71858e-70 1.31191e-29 -5.2788e-29)
(-1.56722e-64 1.02011e-29 -6.16561e-29)
(-5.39389e-59 2.15093e-30 -6.90604e-29)
(-1.43893e-53 -1.38458e-29 -7.07044e-29)
(-2.73307e-48 -3.80767e-29 -6.04349e-29)
(-5.75605e-284 5.59482e-32 -1.25531e-32)
(-2.03029e-277 5.81052e-32 -3.81402e-32)
(-6.404e-271 6.24997e-32 -6.52022e-32)
(-1.87509e-264 6.9303e-32 -9.47966e-32)
(-5.1872e-258 7.8779e-32 -1.2807e-31)
(-1.36877e-251 9.12949e-32 -1.66309e-31)
(-3.46437e-245 1.07335e-31 -2.10981e-31)
(-8.43866e-239 1.2752e-31 -2.63796e-31)
(-1.98225e-232 1.52627e-31 -3.26762e-31)
(-4.49557e-226 1.83622e-31 -4.02268e-31)
(-9.84919e-220 2.21692e-31 -4.93176e-31)
(-2.08479e-213 2.68296e-31 -6.02944e-31)
(-4.26266e-207 3.25214e-31 -7.35774e-31)
(-8.41486e-201 3.94626e-31 -8.96799e-31)
(-1.60268e-194 4.7919e-31 -1.0923e-30)
(-2.94223e-188 5.82154e-31 -1.32998e-30)
(-5.20042e-182 7.07487e-31 -1.61925e-30)
(-8.83795e-176 8.60028e-31 -1.97159e-30)
(-1.44193e-169 1.04568e-30 -2.40094e-30)
(-2.25449e-163 1.2716e-30 -2.92407e-30)
(-3.37129e-157 1.54646e-30 -3.56112e-30)
(-4.81068e-151 1.88069e-30 -4.33609e-30)
(-6.53386e-145 2.28677e-30 -5.2776e-30)
(-8.42234e-139 2.77942e-30 -6.41979e-30)
(-1.027e-132 3.37585e-30 -7.80365e-30)
(-1.18023e-126 4.09572e-30 -9.47884e-30)
(-1.27277e-120 4.96071e-30 -1.15061e-29)
(-1.28167e-114 5.99332e-30 -1.39604e-29)
(-1.19821e-108 7.21387e-30 -1.69339e-29)
(-1.0329e-102 8.63391e-30 -2.05395e-29)
(-8.14339e-97 1.02425e-29 -2.49128e-29)
(-5.81385e-91 1.1978e-29 -3.02101e-29)
(-3.71254e-85 1.36703e-29 -3.65985e-29)
(-2.0873e-79 1.49275e-29 -4.42213e-29)
(-1.01192e-73 1.49213e-29 -5.30932e-29)
(-4.10948e-68 1.20312e-29 -6.27826e-29)
(-1.33892e-62 3.47553e-30 -7.15806e-29)
(-3.2558e-57 -1.42564e-29 -7.49673e-29)
(-5.07905e-52 -4.22807e-29 -6.59145e-29)
(-1.24312e-282 6.09269e-32 -1.23278e-32)
(-3.0667e-276 6.32758e-32 -3.74558e-32)
(-7.41366e-270 6.80612e-32 -6.40322e-32)
(-1.75514e-263 7.54699e-32 -9.30956e-32)
(-4.06635e-257 8.57891e-32 -1.25772e-31)
(-9.21286e-251 9.94189e-32 -1.63325e-31)
(-2.03958e-244 1.16887e-31 -2.07196e-31)
(-4.40844e-238 1.38868e-31 -2.59064e-31)
(-9.29486e-232 1.6621e-31 -3.209e-31)
(-1.90989e-225 1.99963e-31 -3.95051e-31)
(-3.82072e-219 2.41422e-31 -4.84328e-31)
(-7.43341e-213 2.92173e-31 -5.92127e-31)
(-1.40488e-206 3.54158e-31 -7.22574e-31)
(-2.57608e-200 4.29746e-31 -8.8071e-31)
(-4.57691e-194 5.21835e-31 -1.07271e-30)
(-7.86782e-188 6.33962e-31 -1.30612e-30)
(-1.30656e-181 7.70449e-31 -1.59021e-30)
(-2.09247e-175 9.3657e-31 -1.93626e-30)
(-3.22586e-169 1.13875e-30 -2.35793e-30)
(-4.7776e-163 1.3848e-30 -2.87174e-30)
(-6.78246e-157 1.68418e-30 -3.49746e-30)
(-9.20689e-151 2.04826e-30 -4.25872e-30)
(-1.1918e-144 2.49064e-30 -5.18367e-30)
(-1.4667e-138 3.02744e-30 -6.30595e-30)
(-1.71019e-132 3.67748e-30 -7.66604e-30)
(-1.88209e-126 4.46235e-30 -9.31312e-30)
(-1.94634e-120 5.40603e-30 -1.13076e-29)
(-1.88185e-114 6.53373e-30 -1.37245e-29)
(-1.69119e-108 7.86892e-30 -1.66572e-29)
(-1.40295e-102 9.42688e-30 -2.02216e-29)
(-1.0655e-96 1.12009e-29 -2.45605e-29)
(-7.33477e-91 1.31338e-29 -2.98464e-29)
(-4.52009e-85 1.50589e-29 -3.62799e-29)
(-2.45445e-79 1.65809e-29 -4.40723e-29)
(-1.15e-73 1.68399e-29 -5.33673e-29)
(-4.51522e-68 1.40901e-29 -6.39453e-29)
(-1.42158e-62 5.17087e-30 -7.43179e-29)
(-3.3288e-57 -1.42524e-29 -7.98558e-29)
(-4.91342e-52 -4.62595e-29 -7.1561e-29)
(-3.20612e-279 6.58116e-32 -1.20835e-32)
(-7.95842e-273 6.83488e-32 -3.67135e-32)
(-1.936e-266 7.35178e-32 -6.27634e-32)
(-4.6124e-260 8.15204e-32 -9.1251e-32)
(-1.07546e-253 9.26669e-32 -1.2328e-31)
(-2.45238e-247 1.0739e-31 -1.60089e-31)
(-5.46475e-241 1.26258e-31 -2.03091e-31)
(-1.18901e-234 1.50002e-31 -2.53932e-31)
(-2.52377e-228 1.79537e-31 -3.14543e-31)
(-5.22109e-222 2.15997e-31 -3.87225e-31)
(-1.05168e-215 2.6078e-31 -4.74734e-31)
(-2.06043e-209 3.15601e-31 -5.80396e-31)
(-3.92181e-203 3.82555e-31 -7.0826e-31)
(-7.24329e-197 4.64204e-31 -8.63263e-31)
(-1.29639e-190 5.63676e-31 -1.05146e-30)
(-2.24524e-184 6.84794e-31 -1.28026e-30)
(-3.75706e-178 8.32226e-31 -1.55873e-30)
(-6.06409e-172 1.01167e-30 -1.89793e-30)
(-9.42369e-166 1.23008e-30 -2.31129e-30)
(-1.40717e-159 1.49589e-30 -2.81498e-30)
(-2.0146e-153 1.81933e-30 -3.42843e-30)
(-2.75867e-147 2.21271e-30 -4.1748e-30)
(-3.6034e-141 2.69076e-30 -5.08177e-30)
(-4.47644e-135 3.27093e-30 -6.18242e-30)
(-5.27118e-129 3.97369e-30 -7.51666e-30)
(-5.86139e-123 4.82256e-30 -9.13313e-30)
(-6.12846e-117 5.84387e-30 -1.10919e-29)
(-5.99558e-111 7.06564e-30 -1.34678e-29)
(-5.45731e-105 8.51477e-30 -1.63553e-29)
(-4.59111e-99 1.02108e-29 -1.98731e-29)
(-3.54199e-93 1.21525e-29 -2.41714e-29)
(-2.48247e-87 1.42894e-29 -2.94385e-29)
(-1.56256e-81 1.64633e-29 -3.59091e-29)
(-8.70705e-76 1.82849e-29 -4.38651e-29)
(-4.2169e-70 1.88799e-29 -5.35914e-29)
(-1.73213e-64 1.63981e-29 -6.51164e-29)
(-5.83294e-59 7.29037e-30 -7.72492e-29)
(-1.53214e-53 -1.37424e-29 -8.52533e-29)
(-2.90324e-48 -5.01002e-29 -7.84255e-29)
(-2.70779e-279 7.05949e-32 -1.18206e-32)
(-6.40581e-273 7.33164e-32 -3.59147e-32)
(-1.48053e-266 7.8861e-32 -6.13979e-32)
(-3.33965e-260 8.74452e-32 -8.92657e-32)
(-7.34398e-254 9.94019e-32 -1.20599e-31)
(-1.5724e-247 1.15195e-31 -1.56606e-31)
(-3.2732e-241 1.35435e-31 -1.98674e-31)
(-6.61393e-235 1.60905e-31 -2.48408e-31)
(-1.2948e-228 1.92587e-31 -3.07701e-31)
(-2.45042e-222 2.31697e-31 -3.78803e-31)
(-4.47095e-216 2.79736e-31 -4.64407e-31)
(-7.83841e-210 3.38542e-31 -5.67772e-31)
(-1.31476e-203 4.10363e-31 -6.92853e-31)
(-2.09752e-197 4.97946e-31 -8.44486e-31)
(-3.15601e-191 6.04649e-31 -1.02859e-30)
(-4.41974e-185 7.34571e-31 -1.25241e-30)
(-5.628e-179 8.92723e-31 -1.52484e-30)
(-6.20371e-173 1.08522e-30 -1.85668e-30)
(-5.12409e-167 1.31952e-30 -2.26109e-30)
(-8.48178e-162 1.60469e-30 -2.75389e-30)
(8.60721e-155 1.9517e-30 -3.3541e-30)
(2.53423e-148 2.3738e-30 -4.08444e-30)
(5.09429e-142 2.8868e-30 -4.97203e-30)
(8.56052e-136 3.50953e-30 -6.04937e-30)
(1.27258e-129 4.26404e-30 -7.35571e-30)
(1.71101e-123 5.17581e-30 -8.93908e-30)
(2.10007e-117 6.27356e-30 -1.0859e-29)
(2.36031e-111 7.58822e-30 -1.31904e-29)
(2.4278e-105 9.15041e-30 -1.60282e-29)
(2.27818e-99 1.09845e-29 -1.9494e-29)
(1.93973e-93 1.30957e-29 -2.37447e-29)
(1.48713e-87 1.5443e-29 -2.89842e-29)
(1.01618e-81 1.78815e-29 -3.54808e-29)
(6.10634e-76 2.00382e-29 -4.3589e-29)
(3.17002e-70 2.10443e-29 -5.37447e-29)
(1.38801e-64 1.89736e-29 -6.62632e-29)
(4.95686e-59 9.89113e-30 -8.0346e-29)
(1.37441e-53 -1.26167e-29 -9.13339e-29)
(2.73682e-48 -5.30338e-29 -8.59689e-29)
(-1.52898e-282 7.52693e-32 -1.15394e-32)
(-3.60156e-276 7.81709e-32 -3.50605e-32)
(-8.28616e-270 8.40827e-32 -5.99376e-32)
(-1.85999e-263 9.32352e-32 -8.71428e-32)
(-4.06841e-257 1.05984e-31 -1.17731e-31)
(-8.65927e-251 1.22822e-31 -1.52882e-31)
(-1.7905e-244 1.44403e-31 -1.93949e-31)
(-3.58985e-238 1.7156e-31 -2.42501e-31)
(-6.96292e-232 2.0534e-31 -3.00385e-31)
(-1.30286e-225 2.47041e-31 -3.69796e-31)
(-2.34332e-219 2.98261e-31 -4.53365e-31)
(-4.03208e-213 3.60961e-31 -5.54271e-31)
(-6.59302e-207 4.37539e-31 -6.76379e-31)
(-1.01423e-200 5.30922e-31 -8.24406e-31)
(-1.44364e-194 6.44691e-31 -1.00413e-30)
(-1.84199e-188 7.83217e-31 -1.22264e-30)
(-1.95265e-182 9.51846e-31 -1.4886e-30)
(-1.27619e-176 1.1571e-30 -1.81257e-30)
(1.02511e-170 1.40694e-30 -2.2074e-30)
(6.18583e-164 1.71103e-30 -2.68855e-30)
(1.5794e-157 2.08109e-30 -3.2746e-30)
(3.15694e-151 2.53127e-30 -3.98778e-30)
(5.49083e-145 3.07848e-30 -4.85462e-30)
(8.62165e-139 3.74286e-30 -5.90698e-30)
(1.24176e-132 4.54807e-30 -7.18341e-30)
(1.65238e-126 5.52155e-30 -8.73122e-30)
(2.03695e-120 6.69442e-30 -1.06094e-29)
(2.32621e-114 8.10067e-30 -1.28924e-29)
(2.4562e-108 9.77485e-30 -1.5676e-29)
(2.38931e-102 1.17466e-29 -1.90841e-29)
(2.13031e-96 1.4029e-29 -2.32797e-29)
(1.72904e-90 1.65926e-29 -2.84813e-29)
(1.26625e-84 1.93107e-29 -3.499e-29)
(8.27254e-79 2.18379e-29 -4.32326e-29)
(4.75072e-73 2.33331e-29 -5.38043e-29)
(2.35232e-67 2.18323e-29 -6.7347e-29)
(9.78838e-62 1.30334e-29 -8.35672e-29)
(3.30616e-56 -1.07725e-29 -9.78382e-29)
(8.62617e-51 -5.51811e-29 -9.4781e-29)
(-3.13817e-279 7.98276e-32 -1.12405e-32)
(-7.79009e-273 8.29049e-32 -3.41523e-32)
(-1.89514e-266 8.91746e-32 -5.8385e-32)
(-4.51534e-260 9.88813e-32 -8.48856e-32)
(-1.0529e-253 1.12402e-31 -1.14681e-31)
(-2.40114e-247 1.3026e-31 -1.48923e-31)
(-5.3511e-241 1.53148e-31 -1.88926e-31)
(-1.16441e-234 1.8195e-31 -2.36221e-31)
(-2.47188e-228 2.17776e-31 -2.92605e-31)
(-5.11448e-222 2.62003e-31 -3.60218e-31)
(-1.03038e-215 3.16326e-31 -4.41623e-31)
(-2.01909e-209 3.82824e-31 -5.39916e-31)
(-3.84396e-203 4.6404e-31 -6.58861e-31)
(-7.10128e-197 5.63079e-31 -8.03055e-31)
(-1.27133e-190 6.83739e-31 -9.78129e-31)
(-2.20256e-184 8.30658e-31 -1.19098e-30)
(-3.68703e-178 1.0095e-30 -1.45006e-30)
(-5.95361e-172 1.2272e-30 -1.76567e-30)
(-9.25653e-166 1.49219e-30 -2.1503e-30)
(-1.38299e-159 1.81474e-30 -2.61906e-30)
(-1.98127e-153 2.2073e-30 -3.19005e-30)