/*--------------------------------*- C++ -*----------------------------------*\
| =========                 |                                                 |
| \\      /  F ield         | OpenFOAM: The Open Source CFD Toolbox           |
|  \\    /   O peration     | Version:  4.1                                   |
|   \\  /    A nd           | Web:      www.OpenFOAM.org                      |
|    \\/     M anipulation  |                                                 |
\*---------------------------------------------------------------------------*/
FoamFile
{
    version     2.0;
    format      ascii;
    class       volVectorField;
    location    "1";
    object      U;
}
// * * * * * * * * * * * * * * * * * * * * * * * * * * * * * * * * * * * * * //

dimensions      [0 1 -1 0 0 0 0];

internalField   nonuniform List<vector> 
26785
(
(-5.4715e-16 -0.0136008 -0.78999)
(-4.24841e-16 -0.00710183 -0.440286)
(-9.68331e-16 -0.00894452 -0.150329)
(7.60506e-18 -0.00725942 0.0674117)
(-1.14919e-15 -0.00930185 0.240962)
(3.06522e-16 -0.00702168 0.389733)
(1.13882e-16 -0.00712239 0.545696)
(-2.92042e-16 -0.00595127 0.686853)
(-5.60696e-16 -0.00566878 0.811845)
(2.90502e-16 -0.00453171 0.913527)
(-8.2687e-17 -0.00383168 0.994397)
(-1.15323e-16 -0.00282446 1.05178)
(-1.16546e-16 -0.00199554 1.08929)
(-1.39601e-16 -0.000944562 1.11272)
(-1.04988e-16 -0.000232015 1.12754)
(-4.23221e-17 0.000443427 1.13328)
(-4.57068e-17 0.000876657 1.13144)
(-6.61908e-17 0.00129934 1.12323)
(-1.11401e-16 0.00154431 1.11024)
(3.51949e-16 0.00177029 1.09337)
(1.23303e-16 0.00187971 1.07382)
(-1.7128e-17 0.00199281 1.05242)
(2.31323e-16 0.00200957 1.03013)
(8.65739e-17 0.00203234 1.0075)
(3.39101e-16 0.00197824 0.985335)
(4.93958e-17 0.00194517 0.964001)
(-3.5465e-17 0.001844 0.943985)
(-8.99088e-17 0.00176919 0.925441)
(1.03456e-16 0.00164441 0.90869)
(7.93105e-17 0.00155973 0.893746)
(-1.34597e-17 0.00143457 0.880742)
(-4.51104e-16 0.00135 0.86949)
(-3.03338e-16 0.00122901 0.85987)
(-4.16456e-16 0.00113794 0.851345)
(-2.12617e-16 0.00103762 0.843817)
(-2.59619e-16 0.000983261 0.837281)
(-3.97902e-16 0.000910699 0.831734)
(-4.2339e-16 0.000861627 0.826823)
(-4.04336e-16 0.000803816 0.822505)
(-4.40883e-16 0.000773976 0.818771)
(-6.07528e-16 0.000728877 0.815618)
(-2.14973e-16 0.000698774 0.812807)
(-6.62249e-17 0.000661415 0.810269)
(4.16825e-17 0.000639355 0.807902)
(-3.83542e-16 0.000603798 0.805625)
(-4.42118e-16 0.000606476 0.803684)
(-3.88163e-16 0.000689255 0.803355)
(-3.89407e-16 0.000545261 0.802235)
(-3.66683e-16 0.000646137 0.800206)
(-4.44775e-16 0.000541668 0.798127)
(-2.32245e-16 0.000640524 0.795615)
(-9.04142e-17 0.000555224 0.793068)
(-7.4274e-17 0.000652112 0.790145)
(-9.45474e-17 0.000582538 0.787207)
(-1.28731e-16 0.000659288 0.783809)
(-6.86998e-17 0.000601565 0.780285)
(-1.95286e-16 0.000675821 0.776472)
(-2.84902e-16 0.000632215 0.772648)
(-4.23645e-16 0.00069217 0.768514)
(-4.00044e-16 0.000658948 0.764291)
(-2.68778e-16 0.000715875 0.759839)
(-2.88211e-16 0.000693471 0.755332)
(-2.45825e-16 0.000741872 0.750583)
(-5.90559e-16 0.000727942 0.745741)
(-6.5857e-16 0.000773869 0.740716)
(-5.49077e-16 0.000767567 0.735618)
(-5.41755e-16 0.000807582 0.730341)
(-5.15491e-16 0.000806818 0.724986)
(-5.13938e-16 0.000843824 0.719495)
(-3.86551e-16 0.000847008 0.713941)
(-6.99326e-16 0.000878191 0.708265)
(-7.68321e-16 0.000882727 0.702536)
(-6.54329e-16 0.000909512 0.696723)
(-6.41509e-16 0.000915523 0.690868)
(-6.68567e-16 0.000937845 0.684939)
(7.06658e-17 0.000944289 0.678978)
(-3.34644e-16 0.000962731 0.672967)
(-4.42192e-16 0.00096852 0.666935)
(-4.00411e-16 0.000982333 0.660872)
(-4.03329e-16 0.000986577 0.654807)
(-3.32914e-16 0.000995978 0.648735)
(-3.85223e-16 0.00099793 0.642678)
(-4.4692e-16 0.00100262 0.636637)
(-4.92355e-16 0.00100174 0.630634)
(-8.17422e-16 0.00100179 0.624671)
(-3.16693e-16 0.000997527 0.618767)
(-3.81243e-16 0.000992777 0.612927)
(-3.37721e-16 0.000984764 0.60717)
(-2.30516e-16 0.000975244 0.601502)
(-4.63738e-16 0.000963163 0.595939)
(-3.78425e-16 0.000948885 0.590487)
(-3.59909e-16 0.000932626 0.585163)
(-3.34239e-16 0.00091371 0.579973)
(-3.20771e-16 0.000893273 0.57493)
(-3.14756e-16 0.000869707 0.570045)
(-3.6383e-16 0.000845669 0.565313)
(-2.29088e-16 0.00081701 0.56081)
(-2.58159e-16 0.000793379 0.556266)
(-2.47335e-16 0.00074542 0.552782)
(-2.31832e-16 0.000790763 0.546692)
(-1.18567e-15 -0.036222 -1.53495)
(-1.23564e-15 -0.0230472 -1.16185)
(-1.82767e-15 -0.0232406 -0.824758)
(-1.97828e-15 -0.0210819 -0.609786)
(-5.90219e-15 -0.0336273 -0.278584)
(4.39408e-16 -0.0251307 -0.0437862)
(-6.34082e-16 -0.0276899 0.253998)
(-1.86615e-15 -0.0225697 0.471155)
(-1.87023e-16 -0.021792 0.658539)
(1.53274e-16 -0.017187 0.796824)
(-2.3754e-16 -0.0149508 0.907828)
(-2.95716e-16 -0.0115531 0.983628)
(-2.52537e-16 -0.00891254 1.03598)
(-4.64148e-16 -0.00548946 1.07371)
(6.33713e-17 -0.00322311 1.10455)
(4.75499e-16 -0.000964167 1.1237)
(-9.91829e-16 0.000670014 1.13345)
(-3.71484e-16 0.00229499 1.13477)
(-1.04934e-18 0.0034202 1.13029)
(4.03841e-16 0.0044146 1.12034)
(-6.78154e-16 0.00508003 1.10688)
(-1.3946e-15 0.0056463 1.09096)
(5.69133e-16 0.00588877 1.07395)
(-4.81248e-17 0.0060441 1.05625)
(-1.75072e-16 0.00595512 1.03896)
(-9.51493e-17 0.00585706 1.02246)
(3.79694e-17 0.00553902 1.0075)
(1.14361e-17 0.0052545 0.99399)
(-1.4271e-16 0.00483459 0.982548)
(3.92836e-16 0.00451792 0.972951)
(-2.10481e-16 0.00409463 0.965609)
(2.42124e-17 0.0037828 0.959973)
(-1.93595e-16 0.00338437 0.956045)
(-9.34797e-17 0.00308637 0.952858)
(2.02821e-16 0.00278695 0.950534)
(-3.1016e-16 0.00261165 0.949096)
(-3.00212e-16 0.00239225 0.948668)
(-2.5783e-16 0.00224239 0.948579)
(-2.56126e-16 0.00208087 0.948878)
(-2.49084e-16 0.00199135 0.94955)
(-2.80731e-16 0.00186274 0.950651)
(-8.21632e-16 0.00177753 0.951765)
(-6.69575e-17 0.00168459 0.952863)
(-6.54164e-16 0.00163756 0.953789)
(1.4325e-17 0.00156682 0.954495)
(6.2428e-17 0.00159543 0.955373)
(-4.73213e-17 0.00178271 0.958552)
(-2.5301e-17 0.00142661 0.960173)
(-2.17213e-16 0.00169795 0.960046)
(-1.7524e-16 0.00144705 0.959914)
(1.06309e-15 0.00169852 0.959064)
(-2.42123e-16 0.00148516 0.958313)
(-1.58408e-16 0.00172236 0.956999)
(-3.57581e-16 0.00154444 0.95577)
(-2.99905e-16 0.00173337 0.953799)
(-7.27058e-17 0.0015969 0.951654)
(-8.44914e-17 0.00179063 0.949018)
(-4.22313e-16 0.0016996 0.946352)
(-4.20741e-16 0.00186872 0.943128)
(-1.77388e-16 0.00181554 0.939694)
(4.35828e-17 0.00198712 0.935828)
(-1.09556e-16 0.00196791 0.931806)
(-4.54138e-16 0.00212413 0.927334)
(-1.0558e-16 0.00213102 0.922636)
(6.16228e-17 0.00228557 0.917589)
(-1.2913e-16 0.00231293 0.912362)
(-1.71602e-16 0.00245359 0.906804)
(-8.16476e-17 0.00249441 0.901057)
(-2.30114e-16 0.00262783 0.895053)
(-4.31796e-16 0.00267694 0.888898)
(-3.23047e-16 0.00279502 0.882509)
(-1.01209e-15 0.00284653 0.875969)
(-4.99436e-16 0.00295364 0.869238)
(-5.85385e-16 0.00300775 0.86238)
(-1.07604e-15 0.00310293 0.855353)
(-9.70465e-16 0.00315576 0.848218)
(-4.00548e-16 0.00323884 0.840957)
(-4.06989e-16 0.00328676 0.833616)
(-3.93709e-16 0.00335513 0.826184)
(-5.08027e-16 0.00339537 0.818702)
(-6.11621e-16 0.00344923 0.811168)
(-8.80763e-16 0.00347979 0.803612)
(-6.8826e-17 0.00351797 0.796039)
(1.52356e-16 0.00353716 0.788476)
(-6.4213e-16 0.00355963 0.78093)
(-9.81114e-16 0.00356603 0.773425)
(-8.98106e-16 0.0035721 0.76597)
(-3.84693e-16 0.00356462 0.758587)
(-2.67987e-18 0.00355428 0.751286)
(-2.90002e-16 0.00353217 0.744084)
(-2.68431e-16 0.00350541 0.736995)
(-2.71087e-16 0.00346854 0.730033)
(-2.1655e-16 0.0034259 0.72321)
(-3.22102e-16 0.00337475 0.716539)
(-3.55029e-16 0.00331686 0.710038)
(-2.94364e-16 0.00325515 0.703686)
(-4.27826e-16 0.00317774 0.697608)
(-2.4224e-16 0.00313418 0.691385)
(-2.6258e-16 0.00294114 0.686632)
(-2.43792e-16 0.00321394 0.678192)
(-3.01172e-15 -0.0381716 -1.32128)
(-4.33959e-15 -0.0416006 -0.980709)
(6.57497e-16 -0.0427588 -0.557698)
(-5.32886e-15 -0.0495499 -0.181882)
(-2.58929e-15 -0.057872 0.118896)
(-9.50199e-16 -0.0515091 0.32151)
(-2.64681e-15 -0.0491339 0.558116)
(-1.17417e-15 -0.0418544 0.743313)
(-9.6375e-16 -0.037096 0.903844)
(-7.69036e-16 -0.0301597 1.02363)
(-6.78046e-16 -0.0250038 1.11867)
(-5.83486e-16 -0.0195347 1.1825)
(-4.6661e-16 -0.0147838 1.22499)
(-4.29013e-16 -0.00971066 1.25414)
(-5.50445e-16 -0.00573226 1.27735)
(5.58493e-16 -0.00208965 1.29083)
(-1.09187e-15 0.000785048 1.29689)
(5.45147e-16 0.00334447 1.29645)
(-9.62738e-16 0.00526965 1.29189)
(9.80467e-16 0.00685156 1.28353)
(-7.68597e-17 0.00796315 1.27305)
(-1.75808e-15 0.00879812 1.2612)
(-6.26782e-16 0.00922879 1.24915)
(2.04132e-16 0.00943905 1.2371)
(-1.97945e-16 0.00936227 1.22588)
(-1.61485e-16 0.00916064 1.21567)
(3.88532e-16 0.00875088 1.20697)
(9.58524e-18 0.00829123 1.19959)
(-6.5077e-17 0.00773991 1.19385)
(-7.35802e-17 0.00723166 1.18955)
(1.46384e-16 0.00668412 1.18686)
(-8.08879e-17 0.00620145 1.18537)
(1.30552e-16 0.00570413 1.18497)
(4.1657e-16 0.00528104 1.1849)
(-1.42465e-16 0.00491204 1.18517)
(-1.08478e-16 0.00464428 1.18583)
(-8.01732e-17 0.00439843 1.1869)
(-5.72333e-17 0.00420691 1.18791)
(-4.77727e-17 0.00404192 1.18885)
(-5.14093e-17 0.00392658 1.18976)
(-5.44727e-17 0.00381258 1.19064)
(-3.77602e-17 0.0037285 1.1912)
(-1.48321e-17 0.00366551 1.1914)
(1.76896e-19 0.00364035 1.19113)
(3.68283e-18 0.00362699 1.19036)
(9.15151e-18 0.00368078 1.1894)
(1.38565e-17 0.00380223 1.19003)
(2.38597e-17 0.00368408 1.18905)
(3.63088e-17 0.00384235 1.18648)
(4.35708e-17 0.00376812 1.18356)
(5.47171e-17 0.00390509 1.17991)
(5.58135e-17 0.00384469 1.17606)
(4.3879e-17 0.00398255 1.17161)
(8.63298e-18 0.00394639 1.16701)
(1.117e-16 0.00407471 1.16167)
(7.56428e-17 0.00407364 1.156)
(-1.88753e-16 0.0042247 1.14983)
(-1.8418e-16 0.00426392 1.14349)
(-1.82137e-16 0.00442447 1.1366)
(4.61411e-16 0.00449916 1.12943)
(5.21832e-16 0.00467836 1.12183)
(1.6132e-16 0.00478202 1.11402)
(1.82808e-16 0.00496477 1.10577)
(1.78159e-17 0.00508751 1.09728)
(-8.6748e-16 0.0052752 1.08847)
(5.59851e-16 0.00540872 1.07947)
(9.91977e-16 0.005589 1.07019)
(-2.58931e-16 0.00572541 1.06073)
(1.19856e-16 0.00589801 1.05106)
(4.89331e-17 0.00603269 1.04128)
(5.97214e-17 0.00619324 1.03131)
(2.03628e-17 0.00632347 1.02124)
(4.71861e-16 0.00647255 1.01101)
(8.09334e-16 0.00659515 1.0007)
(3.46492e-16 0.00672826 0.99029)
(1.21824e-16 0.00683759 0.979829)
(9.83058e-17 0.00695135 0.969308)
(7.2107e-17 0.00704334 0.958774)
(4.15219e-17 0.00713483 0.948218)
(1.37937e-17 0.00720688 0.937682)
(-1.46499e-17 0.00727509 0.927163)
(1.03502e-16 0.00732531 0.916696)
(-1.10445e-16 0.00736882 0.90628)
(-2.75876e-16 0.00739566 0.895947)
(-1.79995e-16 0.0074137 0.885699)
(-1.53837e-16 0.00741585 0.875562)
(-1.6085e-16 0.00740757 0.86554)
(-1.67233e-16 0.00738416 0.855659)
(-1.11092e-16 0.00734923 0.845921)
(-2.70213e-16 0.00729976 0.836349)
(-3.07335e-16 0.00723822 0.826947)
(-2.20635e-16 0.00716293 0.817735)
(-4.76963e-16 0.00707547 0.808717)
(-1.59089e-16 0.00697553 0.799908)
(-2.0175e-16 0.00686361 0.791321)
(-1.97367e-16 0.00674538 0.782936)
(-3.63529e-16 0.00660315 0.774886)
(-1.75017e-16 0.00651066 0.766684)
(-1.7317e-16 0.0062048 0.760259)
(-1.77466e-16 0.00653042 0.749094)
(-2.25596e-15 -0.0569353 -1.02115)
(-3.86218e-15 -0.0640202 -0.658549)
(-5.0917e-15 -0.0698224 -0.155695)
(-4.72585e-15 -0.0745982 0.210692)
(-2.36096e-15 -0.077532 0.473747)
(-1.81901e-15 -0.0700043 0.670205)
(-1.75514e-15 -0.0649204 0.879316)
(4.45714e-16 -0.0557541 1.04735)
(-8.1987e-16 -0.0482542 1.1908)
(-9.7596e-16 -0.0391178 1.29832)
(-8.62319e-16 -0.0315885 1.38216)
(-7.52775e-16 -0.0242337 1.43766)
(-5.09606e-16 -0.0176417 1.47322)
(-7.30894e-16 -0.0110329 1.49624)
(-8.72619e-16 -0.00561949 1.51341)
(-6.72716e-16 -0.000855856 1.52198)
(-3.76534e-16 0.002961 1.52417)
(-1.26013e-15 0.0061972 1.52107)
(1.43167e-16 0.0086615 1.51486)
(-2.37187e-16 0.0105867 1.50597)
(-1.02785e-16 0.0119342 1.49586)
(-5.53983e-16 0.0128571 1.48524)
(-3.99226e-16 0.0133146 1.47499)
(-2.89107e-16 0.013448 1.46529)
(-2.21998e-16 0.0132695 1.4567)
(-2.03525e-16 0.012897 1.44934)
(-1.56735e-16 0.0123303 1.44347)
(-1.0127e-16 0.0116812 1.43886)
(-1.00123e-16 0.0109808 1.43563)
(-8.63967e-17 0.0103131 1.43356)
(-2.05796e-16 0.00965591 1.43269)
(-3.66206e-16 0.00905869 1.43265)
(5.17715e-17 0.00849701 1.43326)
(-7.34007e-17 0.00801301 1.43389)
(1.01867e-16 0.00762808 1.43449)
(-4.7448e-16 0.00735437 1.43509)
(3.15178e-16 0.00714495 1.43567)
(4.29099e-16 0.00699012 1.43587)
(1.767e-16 0.00688597 1.43566)
(-3.72054e-17 0.00683029 1.43507)
(5.96102e-17 0.00679652 1.43411)
(1.85913e-16 0.00678803 1.43256)
(2.29065e-16 0.00681582 1.43037)
(1.38598e-16 0.00688251 1.42749)
(1.27808e-16 0.00697701 1.42385)
(8.56876e-17 0.0071195 1.41978)
(1.25265e-16 0.00731416 1.41679)
(1.91377e-16 0.00736446 1.41212)
(2.86898e-16 0.00755104 1.40591)
(2.50211e-16 0.0076074 1.39912)
(3.22594e-16 0.00775992 1.39155)
(1.66394e-16 0.00780624 1.38358)
(5.50089e-19 0.00795305 1.37498)
(1.3486e-16 0.00800981 1.36607)
(3.46072e-16 0.0081571 1.35643)
(5.1582e-16 0.00824328 1.34637)
(-1.50247e-16 0.00841956 1.33579)
(-1.8799e-16 0.00854483 1.32495)
(7.68914e-17 0.00874368 1.31357)
(-3.91114e-16 0.00890181 1.30186)
(7.73766e-16 0.00912307 1.28975)
(1.23652e-15 0.00930523 1.27741)
(1.31786e-16 0.00953254 1.26468)
(2.94497e-16 0.00972527 1.25174)
(1.31034e-16 0.00995343 1.23853)
(4.98018e-16 0.0101493 1.22518)
(5.57035e-16 0.0103696 1.2116)
(-1.75124e-17 0.0105618 1.19789)
(-1.56024e-16 0.0107707 1.18401)
(-1.25384e-16 0.0109536 1.17005)
(2.68173e-16 0.0111457 1.15596)
(1.00504e-16 0.0113144 1.14182)
(2.72927e-16 0.0114868 1.12764)
(1.20128e-16 0.0116359 1.11346)
(-4.38006e-16 0.0117824 1.09928)
(5.07375e-16 0.0119061 1.08515)
(2.89165e-16 0.012023 1.07107)
(5.65086e-16 0.0121178 1.05708)
(-7.20293e-17 0.0122025 1.04317)
(9.51881e-17 0.0122662 1.02939)
(7.36606e-17 0.0123178 1.01573)
(5.90443e-17 0.0123488 1.00223)
(1.15904e-16 0.012366 0.988876)
(4.96602e-16 0.0123632 0.975712)
(-1.4561e-16 0.0123452 0.962733)
(-7.02027e-18 0.0123077 0.949962)
(4.20333e-16 0.012254 0.937403)
(-2.20312e-16 0.012181 0.925076)
(-1.21759e-16 0.0120914 0.912984)
(-4.50515e-16 0.0119828 0.901143)
(-6.54665e-17 0.0118575 0.889558)
(-6.2606e-17 0.011714 0.878243)
(-1.86663e-16 0.011554 0.867202)
(-1.89869e-16 0.0113776 0.856445)
(-1.32687e-16 0.0111857 0.845984)
(-5.31191e-17 0.0109834 0.835792)
(-2.4564e-16 0.0107566 0.826013)
(-1.39544e-16 0.010573 0.816101)
(-1.08368e-16 0.010211 0.808245)
(-1.32827e-16 0.0104232 0.79488)
(-1.80904e-15 -0.085526 -0.678586)
(-3.14256e-15 -0.091362 -0.292368)
(-2.4124e-15 -0.0971458 0.189776)
(-4.16261e-15 -0.0976143 0.524026)
(-2.58134e-15 -0.0959708 0.771145)
(-5.62709e-16 -0.0869955 0.9639)
(-1.29188e-15 -0.0792039 1.15783)
(-1.94266e-15 -0.0680445 1.31502)
(-1.47424e-15 -0.0578949 1.44736)
(-1.1705e-15 -0.0465456 1.54668)
(-6.43981e-16 -0.0367181 1.62315)
(-6.0247e-16 -0.0274895 1.67345)
(-7.11944e-16 -0.0191184 1.705)
(-1.57353e-15 -0.0110323 1.72476)
(-4.39174e-16 -0.00427983 1.73877)
(1.56762e-16 0.00151687 1.74494)
(-2.126e-16 0.00617492 1.74532)
(-2.18992e-16 0.00999943 1.74107)
(-2.07509e-16 0.0129036 1.73415)
(-1.86589e-16 0.0150834 1.72508)
(-7.71689e-17 0.0165757 1.71511)
(-4.80743e-16 0.0175115 1.70496)
(-3.25411e-16 0.017923 1.69533)
(-2.49891e-16 0.0179266 1.6864)
(-2.10119e-16 0.0175984 1.67858)
(-2.693e-16 0.0170298 1.67199)
(2.65207e-16 0.0162854 1.66673)
(-2.72653e-16 0.0154472 1.66262)
(-6.56566e-17 0.0146 1.65966)
(-9.47263e-17 0.0137924 1.65766)
(-1.67908e-17 0.0130433 1.65658)
(5.33324e-18 0.0123642 1.6561)
(8.80281e-17 0.0117673 1.656)
(3.08144e-16 0.0112637 1.65575)
(1.77554e-16 0.0109014 1.65524)
(5.35652e-17 0.0106678 1.65452)
(1.07829e-16 0.0105351 1.65356)
(9.84609e-17 0.0104652 1.65201)
(1.2258e-16 0.0104668 1.64986)
(1.27462e-16 0.0105189 1.64715)
(1.30049e-16 0.0106085 1.64389)
(2.71844e-16 0.0107244 1.63987)
(6.01985e-16 0.0108901 1.63507)
(-3.13406e-17 0.011098 1.62941)
(2.33868e-17 0.0113443 1.62286)
(9.21058e-17 0.011628 1.61572)
(8.85378e-17 0.0119428 1.60936)
(7.36397e-17 0.0121791 1.6013)
(1.08226e-16 0.0124592 1.59172)
(7.40028e-17 0.012665 1.58144)
(7.04882e-17 0.0128893 1.57034)
(-5.62249e-17 0.0130601 1.55875)
(-5.303e-17 0.0132686 1.54647)
(-1.39108e-17 0.0134358 1.53376)
(-3.7508e-17 0.013647 1.52029)
(1.9395e-17 0.0138354 1.50632)
(7.00836e-17 0.0140742 1.4918)
(2.78581e-16 0.0142952 1.47696)
(-2.34277e-16 0.0145576 1.46159)
(-1.84422e-16 0.0148018 1.44587)
(1.82494e-16 0.0150792 1.42976)
(7.18242e-16 0.0153369 1.41344)
(-2.85279e-16 0.0156175 1.39675)
(-3.79519e-17 0.0158774 1.37982)
(-1.65353e-17 0.0161524 1.36263)
(-1.00597e-16 0.0164053 1.34527)
(-1.67985e-16 0.0166644 1.32769)
(-9.30334e-16 0.0168999 1.31001)
(2.28495e-16 0.0171354 1.29222)
(7.46904e-16 0.0173462 1.27442)
(-3.05106e-16 0.0175506 1.25658)
(-2.07882e-16 0.0177301 1.23878)
(4.77198e-16 0.0178996 1.22102)
(-1.56074e-16 0.0180435 1.20336)
(-1.03462e-15 0.0181734 1.18579)
(7.74716e-17 0.0182775 1.16837)
(-3.77596e-16 0.0183651 1.1511)
(-4.13168e-16 0.0184272 1.13401)
(-3.55534e-16 0.0184711 1.11711)
(-2.75206e-16 0.0184903 1.10044)
(-4.88233e-17 0.0184904 1.08399)
(-3.12043e-16 0.0184661 1.06779)
(-3.85228e-16 0.018422 1.05185)
(7.78477e-17 0.018354 1.03619)
(-3.47832e-16 0.0182657 1.02081)
(-1.80381e-16 0.018154 1.00573)
(-2.83253e-16 0.0180214 0.990955)
(-2.76096e-16 0.0178659 0.976499)
(-2.37645e-16 0.0176895 0.962362)
(3.29051e-16 0.0174905 0.948561)
(-2.6136e-16 0.0172709 0.935096)
(-1.74217e-16 0.0170297 0.921979)
(-2.37168e-16 0.0167686 0.909211)
(-3.05144e-16 0.0164879 0.896799)
(-2.43155e-16 0.0161892 0.884753)
(-6.07081e-17 0.015877 0.873043)
(-9.34562e-17 0.0155418 0.861818)
(-2.22616e-16 0.0152395 0.850487)
(-1.91594e-16 0.0148192 0.84145)
(-1.65896e-16 0.0148089 0.826324)
(-1.85604e-15 -0.11943 -0.379139)
(-2.31805e-15 -0.120005 0.058271)
(-2.54673e-15 -0.121714 0.482484)
(-3.83235e-15 -0.118735 0.798121)
(-2.34839e-15 -0.113203 1.03455)
(-1.24555e-15 -0.102553 1.22198)
(-1.04105e-15 -0.0921008 1.40403)
(-1.68173e-15 -0.078911 1.5517)
(-1.30101e-15 -0.0662548 1.6745)
(5.84249e-16 -0.0527725 1.76626)
(-1.9996e-17 -0.0407909 1.83595)
(-1.3431e-15 -0.0297843 1.8812)
(-4.53475e-16 -0.0197615 1.9088)
(-3.16932e-16 -0.0103027 1.92534)
(-3.02859e-16 -0.00233104 1.93638)
(-2.20464e-16 0.00440874 1.94027)
(-2.52166e-16 0.00982129 1.93887)
(4.22974e-16 0.0141725 1.93334)
(1.11573e-16 0.0174558 1.92543)
(-6.15444e-16 0.0198485 1.91566)
(-1.00287e-16 0.0214462 1.90514)
(-2.4136e-16 0.022372 1.89453)
(-9.58479e-16 0.0227149 1.88443)
(-9.02608e-16 0.022581 1.87503)
(7.26422e-17 0.0220946 1.86666)
(-1.48227e-16 0.0213351 1.85941)
(-9.85962e-17 0.0204151 1.85336)
(-6.47893e-17 0.0194009 1.84834)
(-9.75289e-17 0.0184143 1.84432)
(-3.85537e-17 0.0174835 1.84114)
(3.36447e-17 0.016654 1.83874)
(4.61887e-16 0.0159141 1.83683)
(2.60201e-18 0.0152984 1.83518)
(4.17066e-17 0.0147985 1.83331)
(-5.61964e-17 0.0144781 1.83112)
(-1.80083e-16 0.0143098 1.82864)
(8.95817e-17 0.0142762 1.82581)
(9.26784e-17 0.0143179 1.82235)
(1.54765e-16 0.0144473 1.81823)
(1.67165e-16 0.0146334 1.81351)
(5.36917e-16 0.0148737 1.80814)
(8.39911e-17 0.0151479 1.80196)
(7.15012e-17 0.0154839 1.79491)
(-5.3307e-17 0.0158666 1.78695)
(-2.90673e-17 0.0162949 1.77806)
(-3.0142e-18 0.0167507 1.76848)
(-6.73229e-18 0.0172242 1.75954)
(1.17097e-18 0.0176551 1.74891)
(1.59998e-17 0.0180729 1.7368)
(3.98925e-17 0.0184451 1.72392)
(6.70978e-17 0.0187914 1.71016)
(9.98171e-17 0.0191097 1.69581)
(1.22673e-16 0.0194277 1.68071)
(1.45237e-16 0.0197273 1.66511)
(1.59375e-16 0.0200425 1.64872)
(1.71601e-16 0.0203513 1.63179)
(1.58378e-16 0.0206847 1.61427)
(2.4263e-16 0.0210129 1.59641)
(1.53776e-16 0.0213641 1.57801)
(5.40364e-17 0.0217083 1.55923)
(-4.1707e-17 0.0220696 1.53999)
(2.41166e-16 0.02242 1.52044)
(2.69424e-16 0.0227772 1.50046)
(2.52026e-16 0.0231157 1.48022)
(1.43735e-16 0.0234516 1.45971)
(-8.59901e-16 0.0237632 1.43907)
(-5.37308e-16 0.0240633 1.41826)
(7.97815e-17 0.0243348 1.39738)
(-2.61408e-16 0.0245903 1.37645)
(-8.5677e-16 0.0248152 1.35556)
(6.13318e-16 0.0250197 1.33469)
(-5.39059e-17 0.0251928 1.31393)
(-3.10935e-17 0.0253434 1.29327)
(-8.31621e-17 0.0254622 1.27279)
(8.89083e-16 0.0255562 1.25247)
(-2.79812e-17 0.0256184 1.23238)
(-8.71566e-17 0.025655 1.21251)
(1.61461e-16 0.0256605 1.19291)
(1.75819e-16 0.02564 1.17357)
(-1.43565e-17 0.0255895 1.15454)
(-7.75817e-17 0.0255133 1.13582)
(1.1128e-16 0.0254081 1.11743)
(9.48954e-17 0.0252772 1.09937)
(2.55874e-16 0.0251184 1.08167)
(-1.16395e-17 0.0249342 1.06433)
(-2.20091e-16 0.0247226 1.04737)
(1.66775e-16 0.0244861 1.03079)
(1.13014e-16 0.024223 1.0146)
(7.92738e-17 0.0239353 0.998797)
(3.84495e-17 0.0236217 0.983402)
(2.42879e-17 0.0232842 0.96841)
(1.06868e-16 0.0229221 0.953832)
(1.89259e-17 0.0225374 0.939666)
(-7.03815e-17 0.0221303 0.925918)
(1.00494e-16 0.0217031 0.912597)
(-2.05078e-17 0.02126 0.899667)
(8.88656e-18 0.0207963 0.887286)
(5.89065e-18 0.020354 0.874825)
(-3.83417e-19 0.0198553 0.864854)
(2.91169e-17 0.0195607 0.848356)
(-2.35451e-15 -0.156659 -0.0566351)
(-1.77739e-15 -0.146191 0.35555)
(-2.82487e-15 -0.144413 0.748817)
(-1.60674e-15 -0.138338 1.04933)
(-2.02137e-15 -0.12927 1.27572)
(-9.31716e-16 -0.116754 1.45651)
(-5.43568e-16 -0.103715 1.62801)
(-7.69931e-16 -0.0884509 1.76678)
(-2.11996e-16 -0.0733723 1.88075)
(1.18612e-15 -0.0577971 1.96508)
(-2.05321e-16 -0.0437586 2.02795)
(-3.57622e-16 -0.0310463 2.06767)
(-3.31048e-16 -0.0194792 2.09064)
(-3.0808e-16 -0.00874923 2.10313)
(-4.40829e-16 0.000325816 2.11039)
(8.57601e-16 0.00791089 2.11108)
(7.54036e-17 0.0139835 2.1069)
(-8.17505e-16 0.018786 2.09899)
(-3.13739e-16 0.0223796 2.08895)
(-9.49477e-16 0.0249329 2.07727)
(1.24114e-16 0.0265895 2.06494)
(-3.19311e-17 0.0274719 2.05258)
(-4.50019e-16 0.0277151 2.04072)
(-3.33522e-16 0.0274233 2.02955)
(-2.42328e-16 0.0267583 2.01935)
(-2.52533e-16 0.0257961 2.01023)
(1.70572e-16 0.0246855 2.00225)
(1.01369e-16 0.0234861 1.99525)
(-3.23395e-16 0.0223458 1.98922)
(8.70254e-17 0.0212829 1.98401)
(-5.38304e-17 0.0203603 1.97956)
(-8.62253e-17 0.0195528 1.9756)
(-6.66414e-17 0.0189087 1.97192)
(-4.28215e-17 0.018408 1.96806)
(2.01756e-17 0.0181233 1.96394)
(-1.36484e-16 0.0180207 1.95954)
(3.11276e-18 0.0180839 1.95482)
(4.11009e-17 0.0182365 1.94953)
(8.44029e-17 0.0184945 1.94363)
(2.07527e-16 0.0188251 1.93713)
(1.02728e-16 0.0192284 1.92999)
(-3.2933e-17 0.0196765 1.92205)
(-5.08191e-17 0.0201979 1.91326)
(1.40278e-17 0.0207726 1.90358)
(2.32991e-19 0.0213989 1.89295)
(2.30199e-17 0.0220432 1.88165)
(3.06865e-17 0.0226971 1.87092)
(7.61662e-17 0.0233318 1.85854)
(9.13318e-17 0.023926 1.84467)
(-5.39285e-16 0.0244921 1.82996)
(4.13844e-16 0.0250058 1.81433)
(9.29203e-16 0.0255 1.79807)
(9.31606e-16 0.0259675 1.78103)
(7.49084e-16 0.0264241 1.76346)
(7.97647e-16 0.0268771 1.74507)
(7.91409e-16 0.0273283 1.72611)
(7.23318e-16 0.027791 1.70655)
(8.85352e-16 0.0282582 1.68656)
(5.31191e-16 0.0287417 1.6659)
(4.72685e-16 0.0292239 1.64474)
(6.77677e-16 0.0297087 1.62306)
(6.16879e-16 0.0301789 1.60104)
(4.82109e-16 0.0306378 1.5786)
(7.70555e-16 0.0310698 1.5559)
(7.23727e-16 0.0314812 1.53293)
(5.08996e-16 0.0318588 1.50984)
(9.40113e-16 0.0322081 1.48659)
(5.63856e-16 0.0325186 1.46331)
(5.0923e-16 0.032797 1.44001)
(6.93238e-16 0.0330346 1.41677)
(5.69086e-16 0.0332375 1.3936)
(5.02606e-16 0.033399 1.37057)
(-4.64043e-17 0.0335251 1.3477)
(1.97387e-16 0.0336101 1.32504)
(1.1428e-15 0.0336591 1.30261)
(5.9631e-16 0.033668 1.28045)
(1.03768e-15 0.0336416 1.25857)
(8.56762e-16 0.0335767 1.23702)
(9.24208e-16 0.0334776 1.21579)
(5.78868e-16 0.0333421 1.19492)
(7.73969e-16 0.0331737 1.17443)
(6.75639e-16 0.0329707 1.15432)
(5.01745e-16 0.0327361 1.13461)
(8.85029e-16 0.0324686 1.11532)
(8.6903e-16 0.0321708 1.09645)
(6.74312e-16 0.0318414 1.07801)
(6.45119e-16 0.0314827 1.06001)
(5.60176e-16 0.0310939 1.04246)
(7.91069e-16 0.0306768 1.02535)
(4.87477e-16 0.0302307 1.0087)
(4.63958e-16 0.0297574 0.992516)
(4.26812e-16 0.0292568 0.976793)
(1.93176e-16 0.0287307 0.961533)
(4.49005e-16 0.02818 0.946739)
(3.18682e-16 0.0276071 0.932421)
(3.63657e-16 0.0270161 0.91854)
(4.66305e-16 0.0264067 0.90526)
(3.14881e-16 0.0258066 0.891926)
(3.19266e-16 0.0252064 0.881235)
(2.56635e-16 0.0245899 0.863692)
(-6.4493e-16 -0.189135 0.230577)
(-1.99477e-15 -0.171183 0.625547)
(-2.31829e-15 -0.165443 0.994709)
(-3.32953e-15 -0.156379 1.28109)
(-1.47959e-15 -0.144088 1.49819)
(-9.94849e-16 -0.129609 1.67253)
(-9.13803e-16 -0.11408 1.83519)
(1.91053e-16 -0.0967174 1.96612)
(-5.04421e-16 -0.0792998 2.07219)
(-4.59613e-16 -0.0616716 2.1495)
(-4.46202e-16 -0.045667 2.20567)
(-4.33759e-16 -0.0313179 2.23964)
(-4.3554e-16 -0.0183031 2.25752)
(-4.33291e-16 -0.00639148 2.26532)
(-2.74269e-16 0.00368513 2.26807)
(-5.90667e-16 0.0120317 2.26467)
(-7.20948e-16 0.0186857 2.25674)
(-5.38726e-16 0.0238792 2.24538)
(-4.20845e-16 0.0277269 2.23206)
(-3.42899e-16 0.0304001 2.21728)
(-3.20694e-16 0.03208 2.20193)
(-2.6633e-16 0.0328942 2.18659)
(-6.81908e-16 0.0330127 2.17177)
(-6.42892e-16 0.0325449 2.15764)
(-2.78197e-16 0.031681 2.1445)
(-2.67328e-16 0.0305004 2.13243)
(6.42308e-17 0.0291787 2.12153)
(-3.61198e-16 0.0277759 2.11165)
(-1.4638e-16 0.0264584 2.10279)
(-1.92119e-16 0.0252415 2.09483)
(-1.31413e-16 0.0242002 2.08772)
(-1.06547e-16 0.0233032 2.08121)
(-1.05189e-16 0.0226063 2.07509)
(-1.02086e-16 0.0220837 2.06893)
(-4.48483e-17 0.0218137 2.06262)
(-2.14901e-16 0.0217585 2.05617)
(-9.45839e-17 0.0218978 2.04952)
(-3.61177e-17 0.0221448 2.04242)
(2.03741e-17 0.02252 2.03482)
(3.20237e-17 0.0229892 2.0267)
(-1.54068e-17 0.0235502 2.01803)
(-5.4563e-17 0.0241701 2.00863)
(-1.34716e-16 0.0248761 1.99846)
(-1.42585e-16 0.025645 1.98745)
(-1.20386e-16 0.0264686 1.97556)
(-1.06875e-16 0.0273041 1.96305)
(-9.51437e-17 0.0281504 1.9511)
(-6.7807e-17 0.029002 1.93751)
(-5.47085e-17 0.0298018 1.92242)
(4.36876e-17 0.0305787 1.90649)
(1.12846e-16 0.0312855 1.88965)
(1.95172e-16 0.0319729 1.87214)
(2.69428e-16 0.0326166 1.85386)
(3.33381e-16 0.0332462 1.83501)
(3.13718e-16 0.0338627 1.81534)
(4.3083e-16 0.0344837 1.79504)
(3.32488e-16 0.0351188 1.77401)
(2.79876e-16 0.035768 1.75241)
(2.50369e-16 0.0364224 1.73008)
(-5.26754e-17 0.0370691 1.70723)
(7.65166e-16 0.037702 1.68383)
(5.1186e-16 0.0383103 1.66007)
(5.48339e-16 0.0388902 1.63586)
(5.54455e-16 0.0394307 1.61139)
(5.39246e-16 0.0399328 1.58664)
(5.87156e-16 0.0403874 1.56177)
(4.3629e-16 0.0407968 1.53675)
(3.13598e-16 0.0411536 1.51171)
(3.11912e-16 0.041462 1.48665)
(1.56981e-16 0.0417161 1.46168)
(-4.15674e-16 0.0419205 1.43679)
(5.09869e-16 0.042071 1.41208)
(3.97043e-16 0.0421725 1.38755)
(3.91318e-16 0.0422214 1.36326)
(-3.5629e-17 0.0422225 1.33924)
(3.88486e-16 0.0421734 1.31552)
(5.88602e-16 0.0420786 1.29213)
(6.45048e-16 0.0419366 1.2691)
(5.48876e-16 0.0417514 1.24644)
(6.35326e-16 0.0415223 1.22419)
(6.66832e-16 0.0412528 1.20234)
(2.25954e-16 0.0409423 1.18094)
(3.24127e-16 0.0405938 1.15997)
(5.05541e-16 0.0402071 1.13946)
(5.44617e-16 0.0397847 1.11942)
(5.86463e-16 0.0393263 1.09986)
(5.18129e-16 0.0388341 1.08078)
(5.21458e-16 0.0383079 1.06219)
(4.64455e-16 0.0377497 1.04409)
(6.99908e-16 0.0371593 1.0265)
(5.02426e-16 0.0365385 1.0094)
(4.63586e-16 0.0358877 0.992804)
(5.28794e-16 0.0352087 0.976713)
(3.59931e-16 0.0345027 0.961127)
(4.94073e-16 0.0337725 0.946055)
(3.77738e-16 0.0330218 0.931456)
(3.7213e-16 0.0322542 0.9175)
(3.88435e-16 0.0314834 0.903514)
(3.54405e-16 0.0307615 0.892285)
(3.0847e-16 0.0298025 0.873975)
(-5.82276e-15 -0.218178 0.494569)
(-1.69607e-15 -0.194712 0.874983)
(-1.72562e-15 -0.18496 1.22237)
(-2.58604e-15 -0.173027 1.49614)
(-1.75797e-15 -0.157835 1.70583)
(-7.3588e-16 -0.141326 1.8749)
(-1.40583e-15 -0.123362 2.03021)
(-5.95782e-16 -0.103834 2.15414)
(-4.43858e-16 -0.0840903 2.25294)
(-5.57968e-16 -0.0643952 2.32349)
(-6.17994e-16 -0.0464588 2.37309)
(-6.22482e-16 -0.0304972 2.40119)
(-5.9125e-16 -0.0160887 2.4137)
(-6.01161e-16 -0.00305044 2.41643)
(-5.95904e-16 0.00795751 2.4142)
(-5.34574e-16 0.0170037 2.40613)
(-5.99094e-16 0.0241763 2.39378)
(-6.51403e-17 0.0297094 2.37821)
(3.32069e-16 0.0337624 2.36082)
(-6.07089e-16 0.0365152 2.34208)
(-3.43501e-16 0.0381814 2.32283)
(-1.53707e-16 0.0388972 2.30364)
(-5.98338e-16 0.0388601 2.28497)
(3.6113e-16 0.0381879 2.26703)
(-4.07408e-16 0.0370941 2.25011)
(-6.10266e-16 0.0356651 2.23432)
(-5.43201e-16 0.0340974 2.21976)
(-1.02628e-16 0.032456 2.20633)
(-1.31586e-16 0.0309211 2.19403)
(-2.34773e-16 0.0295101 2.18278)
(2.62319e-16 0.0283064 2.17252)
(-4.88769e-17 0.0272777 2.16304)
(1.92546e-16 0.0264848 2.15413)
(-4.39312e-17 0.0258999 2.14537)
(-1.81714e-16 0.0256043 2.13667)
(-4.9241e-16 0.0255586 2.12799)
(-1.79199e-16 0.0257358 2.11929)
(-1.6154e-16 0.0260447 2.11031)
(-1.38469e-16 0.0265086 2.101)
(-1.35931e-16 0.027092 2.09131)
(-1.3187e-16 0.0277889 2.08119)
(-1.26597e-16 0.028563 2.07047)
(1.69705e-16 0.0294385 2.05908)
(-1.79405e-16 0.0303874 2.04696)
(-1.87816e-16 0.0313929 2.03408)
(-2.07049e-16 0.0324147 2.02065)
(-2.06928e-16 0.0334579 2.00777)
(-1.95636e-16 0.0345279 1.99328)
(-1.92621e-16 0.0355448 1.97735)
(-1.86321e-16 0.0365398 1.96059)
(-1.70724e-16 0.0374562 1.94293)
(-1.55734e-16 0.0383487 1.92462)
(-1.41101e-16 0.0391849 1.90554)
(-1.15325e-16 0.0400037 1.88589)
(-1.20596e-16 0.0408167 1.86537)
(-2.24194e-17 0.0416508 1.84408)
(-6.18798e-17 0.0424982 1.82198)
(-5.06459e-17 0.0433563 1.79928)
(5.02196e-17 0.0442086 1.77581)
(-2.68482e-16 0.0450426 1.75179)
(-7.18812e-16 0.0458479 1.72719)
(-4.45779e-16 0.0466144 1.70221)
(-1.80539e-16 0.0473359 1.67676)
(-2.54067e-16 0.0480021 1.65103)
(-8.24848e-16 0.048612 1.62502)
(5.02119e-17 0.0491578 1.59887)
(-5.74876e-16 0.0496407 1.57257)
(8.14045e-16 0.0500545 1.54625)
(-2.02809e-16 0.0504029 1.51992)
(-1.80357e-16 0.0506812 1.49368)
(-7.53044e-16 0.0508939 1.46754)
(1.91015e-16 0.051038 1.44159)
(6.31287e-17 0.0511186 1.41584)
(-2.93878e-16 0.0511335 1.39036)
(7.7029e-17 0.0510877 1.36515)
(-6.16996e-16 0.0509802 1.34029)
(8.26702e-17 0.0508158 1.31577)