/*--------------------------------*- C++ -*----------------------------------*\
| =========                 |                                                 |
| \\      /  F ield         | OpenFOAM: The Open Source CFD Toolbox           |
|  \\    /   O peration     | Version:  4.1                                   |
|   \\  /    A nd           | Web:      www.OpenFOAM.org                      |
|    \\/     M anipulation  |                                                 |
\*---------------------------------------------------------------------------*/
FoamFile
{
    version     2.0;
    format      ascii;
    class       volScalarField;
    location    "3";
    object      p;
}
// * * * * * * * * * * * * * * * * * * * * * * * * * * * * * * * * * * * * * //

dimensions      [0 2 -2 0 0 0 0];

internalField   nonuniform List<scalar> 
26785
(
0.155048
0.148075
0.141147
0.134556
0.128326
0.122542
0.117093
0.111986
0.107112
0.102491
0.0980648
0.0938528
0.0898122
0.0859461
0.0822304
0.0786635
0.0752416
0.0719641
0.0688369
0.0658574
0.0630307
0.0603525
0.0578311
0.0554658
0.053265
0.0512168
0.0493146
0.047537
0.0458795
0.0443298
0.0428886
0.0415437
0.0402859
0.0390974
0.037969
0.0368896
0.0358564
0.0348644
0.0339094
0.0329842
0.0320847
0.0312048
0.0303423
0.0294957
0.0286626
0.0278405
0.0270268
0.0262195
0.0254178
0.0246216
0.023832
0.0230523
0.0222866
0.0215383
0.0208102
0.0201039
0.0194201
0.0187585
0.0181184
0.0174993
0.0169024
0.0163299
0.0157845
0.0152685
0.014784
0.0143319
0.0139118
0.0135229
0.0131643
0.0128349
0.0125331
0.0122557
0.0119969
0.0117467
0.0114954
0.0112362
0.0109617
0.0106681
0.0103535
0.0100176
0.00966075
0.00928397
0.00888848
0.00847545
0.00804583
0.00760031
0.00713947
0.00666392
0.00617442
0.00567188
0.00515771
0.00463409
0.00410385
0.00357066
0.0030377
0.0025066
0.00196985
0.00142391
0.00086589
0.000293674
0.15505
0.148075
0.141145
0.134554
0.128323
0.122541
0.117092
0.111986
0.107112
0.102492
0.0980663
0.0938549
0.0898146
0.0859487
0.0822331
0.0786663
0.0752443
0.0719668
0.0688396
0.06586
0.0630332
0.0603547
0.0578332
0.0554678
0.0532674
0.0512194
0.0493174
0.0475399
0.0458825
0.044333
0.0428924
0.041548
0.0402906
0.0391025
0.0379744
0.0368953
0.0358625
0.0348707
0.0339158
0.0329904
0.0320905
0.0312105
0.0303484
0.0295024
0.02867
0.0278483
0.0270345
0.0262269
0.0254249
0.0246286
0.0238391
0.0230597
0.0222941
0.0215457
0.0208174
0.0201107
0.0194264
0.0187642
0.0181237
0.0175045
0.0169074
0.0163346
0.0157888
0.0152723
0.0147873
0.0143348
0.0139143
0.0135251
0.0131662
0.0128366
0.0125344
0.0122565
0.0119971
0.0117466
0.0114946
0.0112351
0.0109605
0.0106667
0.010352
0.0100161
0.00965934
0.00928268
0.00888734
0.00847447
0.00804496
0.00759956
0.0071389
0.00666353
0.00617407
0.0056715
0.0051573
0.00463365
0.00410348
0.0035705
0.00303776
0.00250668
0.00196984
0.00142383
0.000865645
0.000293444
0.155053
0.148073
0.14114
0.134548
0.128318
0.122537
0.11709
0.111986
0.107113
0.102494
0.0980696
0.0938591
0.0898194
0.0859538
0.0822384
0.0786717
0.0752498
0.0719723
0.068845
0.0658653
0.0630382
0.0603592
0.0578374
0.0554719
0.0532719
0.0512242
0.0493226
0.0475453
0.0458884
0.0443395
0.0428999
0.0415563
0.0402998
0.0391125
0.037985
0.0369066
0.0358746
0.034883
0.0339281
0.0330024
0.0321019
0.0312218
0.0303605
0.0295156
0.0286844
0.0278633
0.0270495
0.0262413
0.0254387
0.0246422
0.023853
0.0230742
0.0223089
0.0215604
0.0208316
0.0201241
0.0194386
0.0187755
0.0181343
0.0175146
0.0169172
0.0163439
0.0157973
0.0152799
0.0147939
0.0143404
0.0139192
0.0135294
0.0131701
0.0128399
0.012537
0.012258
0.0119974
0.0117459
0.0114928
0.0112326
0.0109575
0.0106636
0.0103489
0.0100131
0.00965659
0.00928019
0.00888509
0.00847247
0.00804328
0.00759816
0.00713768
0.0066624
0.00617294
0.00567028
0.00515606
0.00463258
0.00410268
0.00356987
0.00303736
0.0025064
0.0019694
0.00142323
0.000865032
0.000293061
0.155057
0.148072
0.141133
0.13454
0.12831
0.122532
0.117086
0.111985
0.107114
0.102497
0.0980745
0.0938653
0.0898265
0.0859614
0.0822463
0.0786798
0.075258
0.0719804
0.068853
0.065873
0.0630455
0.060366
0.0578439
0.0554783
0.0532787
0.0512314
0.0493301
0.0475534
0.0458971
0.0443492
0.042911
0.0415687
0.0403133
0.0391272
0.0380008
0.0369236
0.0358927
0.0349015
0.0339464
0.0330202
0.032119
0.0312388
0.0303786
0.0295355
0.0287059
0.0278857
0.0270716
0.0262626
0.0254591
0.0246624
0.0238739
0.023096
0.0223312
0.0215825
0.0208528
0.020144
0.019457
0.0187923
0.01815
0.0175297
0.0169318
0.0163577
0.01581
0.0152913
0.0148038
0.0143488
0.0139265
0.013536
0.013176
0.012845
0.0125409
0.0122603
0.0119978
0.0117449
0.01149
0.0112288
0.0109531
0.0106588
0.0103441
0.0100086
0.00965237
0.00927635
0.00888166
0.00846944
0.00804065
0.00759597
0.00713578
0.00666057
0.00617106
0.00566834
0.00515412
0.00463087
0.00410144
0.00356901
0.00303677
0.00250573
0.00196872
0.00142243
0.000864223
0.000292598
0.155063
0.148069
0.141124
0.134529
0.1283
0.122524
0.117082
0.111983
0.107116
0.102501
0.0980811
0.0938736
0.089836
0.0859715
0.0822569
0.0786907
0.0752689
0.0719913
0.0688637
0.0658833
0.0630552
0.0603751
0.0578526
0.0554869
0.0532877
0.0512408
0.0493399
0.047564
0.0459087
0.0443622
0.0429258
0.0415851
0.0403311
0.0391468
0.0380219
0.0369463
0.0359168
0.0349263
0.0339709
0.033044
0.0321418
0.0312615
0.0304026
0.0295618
0.0287344
0.0279153
0.027101
0.0262908
0.0254863
0.0246895
0.0239019
0.0231251
0.022361
0.0216118
0.020881
0.0201705
0.0194815
0.0188148
0.018171
0.0175498
0.0169511
0.0163762
0.0158271
0.0153064
0.0148168
0.01436
0.0139363
0.0135449
0.0131841
0.0128521
0.0125464
0.0122636
0.0119987
0.0117436
0.0114866
0.0112238
0.0109471
0.0106523
0.0103376
0.0100023
0.00964659
0.00927105
0.00887688
0.00846527
0.00803709
0.00759292
0.00713311
0.00665801
0.00616838
0.00566558
0.00515156
0.00462873
0.0040998
0.00356779
0.00303604
0.00250504
0.00196776
0.00142141
0.000863348
0.00029213
0.155071
0.148066
0.141113
0.134515
0.128287
0.122515
0.117077
0.111982
0.107118
0.102507
0.0980894
0.0938839
0.0898478
0.0859842
0.0822702
0.0787043
0.0752826
0.0720049
0.068877
0.0658961
0.0630672
0.0603865
0.0578636
0.0554978
0.0532989
0.0512525
0.0493521
0.0475773
0.0459233
0.0443785
0.0429442
0.0416055
0.0403533
0.0391712
0.0380484
0.0369747
0.0359472
0.0349573
0.0340016
0.0330739
0.0321706
0.03129
0.0304327
0.0295947
0.0287699
0.0279521
0.0271374
0.0263258
0.0255201
0.0247233
0.0239369
0.0231617
0.0223982
0.0216484
0.0209161
0.0202037
0.0195121
0.0188428
0.0181971
0.0175747
0.0169752
0.0163992
0.0158484
0.0153252
0.014833
0.014374
0.0139488
0.0135563
0.0131945
0.0128611
0.0125535
0.0122682
0.0120003
0.0117424
0.0114826
0.0112177
0.0109397
0.0106441
0.0103293
0.00999431
0.00963913
0.00926419
0.00887068
0.00845987
0.00803252
0.00758898
0.0071295
0.00665452
0.0061649
0.00566212
0.00514833
0.00462607
0.00409794
0.00356656
0.00303519
0.00250421
0.00196681
0.00142036
0.000862444
0.000291683
0.155081
0.148061
0.1411
0.134498
0.128272
0.122504
0.11707
0.11198
0.10712
0.102513
0.0980994
0.0938963
0.089862
0.0859994
0.0822861
0.0787206
0.075299
0.0720212
0.0688928
0.0659113
0.0630817
0.0604002
0.0578769
0.055511
0.0533125
0.0512666
0.0493668
0.0475932
0.0459408
0.044398
0.0429661
0.0416298
0.0403798
0.0392003
0.0380801
0.037009
0.0359836
0.0349948
0.0340386
0.0331098
0.0322053
0.0313243
0.0304688
0.029634
0.0288122
0.0279959
0.0271807
0.0263676
0.0255607
0.0247639
0.0239791
0.0232058
0.0224429
0.0216922
0.0209583
0.0202437
0.0195489
0.0188763
0.0182282
0.0176045
0.0170041
0.0164269
0.0158738
0.0153477
0.0148525
0.014391
0.013964
0.0135702
0.0132072
0.0128723
0.0125626
0.0122744
0.0120029
0.0117414
0.0114782
0.0112106
0.0109306
0.0106341
0.010319
0.00998435
0.00962979
0.00925564
0.00886303
0.00845317
0.00802669
0.00758387
0.00712485
0.00665004
0.00616049
0.0056579
0.00514459
0.00462315
0.00409596
0.00356525
0.00303446
0.00250352
0.001966
0.00141942
0.00086162
0.0002913
0.155093
0.148056
0.141084
0.134478
0.128255
0.12249
0.117063
0.111977
0.107123
0.102521
0.0981111
0.0939107
0.0898786
0.0860172
0.0823048
0.0787398
0.0753183
0.0720401
0.0689112
0.065929
0.0630985
0.0604164
0.0578927
0.0555266
0.0533283
0.051283
0.0493839
0.0476117
0.0459612
0.0444208
0.0429916
0.0416581
0.0404106
0.0392342
0.0381173
0.0370492
0.0360263
0.0350387
0.034082
0.033152
0.032246
0.0313645
0.0305109
0.0296796
0.0288613
0.0280467
0.0272311
0.0264163
0.025608
0.0248115
0.0240286
0.0232573
0.0224951
0.0217433
0.0210076
0.0202903
0.0195917
0.0189153
0.0182643
0.017639
0.0170377
0.016459
0.0159033
0.0153739
0.0148752
0.014411
0.0139821
0.0135869
0.0132226
0.012886
0.0125738
0.0122823
0.0120068
0.0117409
0.0114736
0.0112024
0.0109199
0.010622
0.0103066
0.00997232
0.00961854
0.00924533
0.0088538
0.008445
0.0080195
0.00757749
0.00711902
0.00664453
0.00615521
0.00565306
0.00514052
0.00462011
0.004094
0.00356417
0.00303391
0.00250303
0.00196535
0.00141861
0.000860926
0.000290995
0.155107
0.14805
0.141065
0.134455
0.128234
0.122475
0.117054
0.111975
0.107127
0.102529
0.0981245
0.0939272
0.0898975
0.0860375
0.0823263
0.0787618
0.0753403
0.0720618
0.0689321
0.0659491
0.0631178
0.0604349
0.0579108
0.0555446
0.0533465
0.0513017
0.0494034
0.0476329
0.0459846
0.0444469
0.0430207
0.0416903
0.0404458
0.039273
0.0381598
0.0370953
0.0360752
0.0350889
0.0341319
0.0332005
0.0322929
0.0314108
0.030559
0.0297316
0.0289169
0.0281043
0.0272883
0.0264718
0.0256622
0.024866
0.0240852
0.0233162
0.0225547
0.0218015
0.0210639
0.0203435
0.0196405
0.0189595
0.0183052
0.0176783
0.0170758
0.0164954
0.0159369
0.0154037
0.0149013
0.0144342
0.0140033
0.0136066
0.0132408
0.0129022
0.0125873
0.0122922
0.0120122
0.0117411
0.0114688
0.0111932
0.0109076
0.0106079
0.0102919
0.00995812
0.00960531
0.00923325
0.0088429
0.00843528
0.00801088
0.00756978
0.00711199
0.00663801
0.00614922
0.00564782
0.00513629
0.00461708
0.00409202
0.00356306
0.00303353
0.00250284
0.00196499
0.00141804
0.000860388
0.000290756
0.155122
0.148043
0.141044
0.134429
0.128211
0.122458
0.117045
0.111972
0.107131
0.102539
0.0981396
0.0939459
0.0899189
0.0860605
0.0823505
0.0787867
0.0753651
0.0720862
0.0689557
0.0659717
0.0631395
0.060456
0.0579314
0.055565
0.053367
0.0513228
0.0494254
0.0476567
0.0460109
0.0444763
0.0430534
0.0417265
0.0404855
0.0393165
0.0382077
0.0371472
0.0361303
0.0351456
0.0341882
0.0332552
0.032346
0.0314632
0.0306132
0.0297898
0.0289792
0.0281688
0.0273526
0.0265343
0.0257233
0.0249275
0.024149
0.0233826
0.0226216
0.0218667
0.0211271
0.0204032
0.019695
0.0190088
0.018351
0.0177221
0.0171184
0.016536
0.0159743
0.0154372
0.0149311
0.0144609
0.0140279
0.0136295
0.013262
0.0129213
0.0126034
0.0123043
0.0120191
0.011742
0.0114637
0.0111828
0.0108934
0.0105915
0.010275
0.00994172
0.00959009
0.00921935
0.0088303
0.00842399
0.00800084
0.0075608
0.00710388
0.00663067
0.00614272
0.00564234
0.00513185
0.00461363
0.0040899
0.00356232
0.00303365
0.00250309
0.00196494
0.00141764
0.000859929
0.000290525
0.15514
0.148035
0.14102
0.134401
0.128186
0.122439
0.117034
0.111969
0.107135
0.10255
0.0981564
0.0939666
0.0899426
0.0860861
0.0823775
0.0788144
0.0753928
0.0721133
0.0689818
0.0659968
0.0631636
0.0604795
0.0579545
0.0555879
0.0533898
0.0513461
0.0494499
0.0476833
0.0460402
0.044509
0.0430897
0.0417666
0.0405296
0.0393649
0.0382608
0.037205
0.0361915
0.0352086
0.0342509
0.0333163
0.0324053
0.0315219
0.0306736
0.0298543
0.029048
0.0282402
0.0274239
0.0266038
0.0257914
0.0249961
0.02422
0.0234562
0.0226957
0.0219387
0.0211969
0.0204691
0.019755
0.0190633
0.0184014
0.0177703
0.0171651
0.0165806
0.0160157
0.0154746
0.0149646
0.0144914
0.014056
0.0136558
0.0132865
0.0129434
0.0126222
0.0123186
0.0120278
0.0117438
0.0114584
0.0111712
0.0108772
0.0105729
0.0102557
0.00992314
0.00957292
0.00920364
0.00881604
0.00841118
0.00798945
0.00755068
0.00709485
0.00662266
0.0061357
0.00563627
0.00512697
0.00461034
0.00408835
0.00356229
0.0030343
0.00250363
0.00196496
0.0014172
0.000859385
0.000290224
0.155161
0.148026
0.140994
0.134369
0.128158
0.122419
0.117023
0.111966
0.107141
0.102563
0.098175
0.0939895
0.0899688
0.0861143
0.0824072
0.0788449
0.0754233
0.0721431
0.0690105
0.0660244
0.0631903
0.0605055
0.05798
0.0556131
0.0534149
0.0513717
0.0494767
0.0477124
0.0460725
0.0445452
0.0431298
0.0418109
0.0405782
0.0394183
0.0383193
0.0372686
0.0362587
0.0352778
0.03432
0.0333838
0.0324709
0.0315868
0.0307401
0.0299251
0.0291235
0.0283185
0.0275025
0.0266807
0.0258668
0.0250719
0.0242982
0.023537
0.0227766
0.0220173
0.0212731
0.0205408
0.0198204
0.0191226
0.0184565
0.0178228
0.0172158
0.0166292
0.0160611
0.0155161
0.0150023
0.0145259
0.0140881
0.0136858
0.0133143
0.0129685
0.0126438
0.0123353
0.0120381
0.0117463
0.0114527
0.0111582
0.0108589
0.0105518
0.010234
0.00990238
0.00955386
0.00918615
0.00880007
0.00839681
0.0079767
0.00753944
0.00708493
0.00661395
0.00612823
0.00563022
0.00512263
0.00460791
0.00408771
0.00356293
0.00303518
0.002504
0.00196463
0.00141641
0.000858586
0.000289792
0.155184
0.148016
0.140965
0.134334
0.128127
0.122396
0.11701
0.111962
0.107147
0.102576
0.0981954
0.0940146
0.0899975
0.0861451
0.0824398
0.0788783
0.0754567
0.0721757
0.0690419
0.0660547
0.0632195
0.0605341
0.058008
0.0556408
0.0534423
0.0513995
0.049506
0.0477443
0.0461077
0.0445848
0.0431738
0.0418594
0.0406315
0.0394765
0.038383
0.0373378
0.0363319
0.0353531
0.0343955
0.0334576
0.032543
0.0316582
0.030813
0.0300023
0.0292057
0.028404
0.0275885
0.0267651
0.0259496
0.0251549
0.0243834
0.0236245
0.0228641
0.022102
0.0213551
0.0206179
0.0198909
0.0191868
0.018516
0.0178794
0.0172704
0.0166816
0.0161105
0.0155618
0.0150443
0.0145647
0.0141242
0.0137196
0.0133456
0.0129968
0.012668
0.0123541
0.0120499
0.0117493
0.0114465
0.0111438
0.0108386
0.0105284
0.01021
0.0098796
0.00953306
0.00916697
0.00878245
0.00838094
0.00796268
0.0075272
0.00707434
0.00660498
0.00612098
0.00562488
0.00511937
0.00460665
0.00408794
0.00356388
0.00303572
0.00250364
0.00196352
0.00141507
0.000857466
0.000289219
0.15521
0.148004
0.140932
0.134295
0.128093
0.122371
0.116996
0.111959
0.107153
0.102591
0.0982176
0.0940419
0.0900286
0.0861786
0.0824751
0.0789145
0.0754929
0.0722111
0.069076
0.0660875
0.0632514
0.0605652
0.0580384
0.0556707
0.0534719
0.0514296
0.0495377
0.0477788
0.046146
0.044628
0.0432218
0.0419122
0.0406895
0.0395398
0.0384519
0.0374125
0.0364108
0.0354344
0.0344772
0.033538
0.0326215
0.0317361
0.0308924
0.0300861
0.0292949
0.0284969
0.0276822
0.0268573
0.0260399
0.0252452
0.0244754
0.0237183
0.0229575
0.0221926
0.0214427
0.0207002
0.0199663
0.0192556
0.01858
0.0179402
0.017329
0.0167379
0.0161641
0.015612
0.015091
0.0146081
0.0141647
0.0137572
0.0133803
0.013028
0.0126946
0.0123748
0.0120628
0.0117526
0.0114397
0.011128
0.0108165
0.010503
0.0101841
0.00985511
0.00951078
0.00914632
0.00876345
0.00836387
0.00794768
0.00751429
0.00706348
0.00659619
0.00611441
0.00562064
0.00511736
0.00460643
0.00408865
0.0035645
0.00303534
0.00250212
0.00196145
0.00141317
0.00085612
0.000288557
0.155238
0.147991
0.140897
0.134253
0.128057
0.122345
0.116982
0.111955
0.10716
0.102607
0.0982416
0.0940714
0.0900622
0.0862148
0.0825132
0.0789536
0.075532
0.0722494
0.069113
0.0661231
0.0632858
0.0605989
0.0580712
0.055703
0.0535037
0.0514617
0.0495717
0.0478159
0.0461874
0.0446749
0.043274
0.0419695
0.0407523
0.039608
0.0385259
0.0374926
0.0364953
0.0355216
0.0345652
0.0336248
0.0327066
0.0318207
0.0309786
0.0301766
0.0293911
0.0285973
0.0277837
0.0269574
0.026138
0.0253426
0.024574
0.0238182
0.0230565
0.0222887
0.0215354
0.0207871
0.0200464
0.0193291
0.0186483
0.018005
0.0173913
0.0167981
0.0162219
0.0156669
0.0151425
0.0146563
0.0142096
0.0137988
0.0134183
0.0130619
0.0127234
0.0123968
0.0120762
0.0117555
0.011432
0.0111108
0.0107928
0.010476
0.0101567
0.0098294
0.00948738
0.00912457
0.00874348
0.00834604
0.00793217
0.00750112
0.00705268
0.00658787
0.00610867
0.00561745
0.00511635
0.00460678
0.0040892
0.0035642
0.00303365
0.0024994
0.0019586
0.00141099
0.000854767
0.000287899
0.15527
0.147976
0.140858
0.134208
0.128018
0.122316
0.116967
0.111952
0.107168
0.102625
0.0982676
0.0941032
0.0900984
0.0862536
0.0825541
0.0789955
0.075574
0.0722905
0.0691528
0.0661615
0.063323
0.0606351
0.0581064
0.0557376
0.0535376
0.051496
0.0496079
0.0478557
0.0462318
0.0447255
0.0433303
0.0420314
0.04082
0.0396813
0.038605
0.037578
0.0365855
0.0356146
0.0346594
0.0337183
0.0327985
0.0319122
0.0310718
0.0302741
0.0294948
0.0287056
0.0278932
0.0270655
0.0262438
0.0254471
0.0246789
0.0239235
0.0231606
0.0223898
0.0216328
0.0208786
0.020131
0.0194073
0.0187212
0.018074
0.0174576
0.0168623
0.0162839
0.0157265
0.015199
0.0147093
0.0142589
0.0138441
0.0134593
0.0130982
0.0127538
0.0124196
0.0120894
0.0117577
0.0114234
0.0110925
0.0107681
0.0104482
0.0101287
0.00980306
0.00946328
0.00910216
0.00872305
0.00832793
0.0079165
0.00748794
0.00704208
0.00657997
0.00610355
0.00561491
0.00511578
0.00460706
0.00408904
0.00356265
0.00303082
0.00249597
0.00195551
0.00140897
0.000853642
0.000287341
0.155306
0.147959
0.140816
0.134159
0.127976
0.122286
0.11695
0.111948
0.107177
0.102644
0.0982955
0.0941373
0.090137
0.0862951
0.0825978
0.0790403
0.0756188
0.0723345
0.0691955
0.0662027
0.0633629
0.0606739
0.0581439
0.0557743
0.0535737
0.0515324
0.0496464
0.0478981
0.0462794
0.0447798
0.0433909
0.0420979
0.0408925
0.0397596
0.0386892
0.0376686
0.0366811
0.0357136
0.0347601
0.0338186
0.0328974
0.0320109
0.0311723
0.030379
0.029606
0.0288217
0.0280108
0.0271817
0.0263573
0.0255585
0.0247895
0.0240338
0.0232694
0.0224958
0.0217346
0.0209744
0.0202203
0.0194904
0.0187987
0.0181471
0.0175277
0.0169304
0.0163503
0.0157908
0.0152604
0.014767
0.0143124
0.013893
0.0135032
0.0131364
0.0127852
0.0124424
0.0121018
0.0117587
0.0114138
0.0110735
0.010743
0.0104205
0.0101009
0.00977673
0.00943891
0.00907955
0.00870257
0.00830984
0.00790085
0.00747475
0.00703149
0.00657217
0.00609856
0.00561244
0.005115
0.00460675
0.00408799
0.00356014
0.00302755
0.00249278
0.00195289
0.00140734
0.000852895
0.000286964
0.155345
0.14794
0.14077
0.134106
0.127931
0.122254
0.116933
0.111945
0.107187
0.102665
0.0983255
0.0941737
0.0901782
0.0863393
0.0826442
0.0790879
0.0756665
0.0723815
0.0692412
0.0662469
0.0634056
0.0607153
0.0581838
0.0558133
0.0536119
0.0515708
0.0496872
0.0479431
0.0463301
0.0448378
0.0434557
0.0421689
0.0409698
0.0398429
0.0387785
0.0377643
0.0367822
0.0358185
0.0348673
0.0339259
0.0330037
0.0321171
0.0312805
0.0304915
0.0297248
0.0289457
0.0281363
0.0273057
0.0264782
0.0256764
0.0249057
0.0241487
0.0233826
0.0226064
0.0218409
0.0210747
0.0203144
0.0195784
0.0188809
0.0182245
0.0176017
0.0170023
0.0164208
0.0158596
0.0153266
0.0148293
0.01437
0.0139452
0.0135494
0.0131759
0.0128169
0.0124645
0.0121127
0.0117583
0.0114034
0.0110544
0.0107185
0.0103937
0.010074
0.00975097
0.00941463
0.00905702
0.00868221
0.00829177
0.00788503
0.00746123
0.0070205
0.00656395
0.00609317
0.00560952
0.00511369
0.00460583
0.00408647
0.00355768
0.0030253
0.00249031
0.00195065
0.00140632
0.00085285
0.000286881
0.155388
0.14792
0.14072
0.13405
0.127883
0.12222
0.116915
0.111942
0.107198
0.102687
0.0983575
0.0942125
0.090222
0.0863862
0.0826934
0.0791383
0.0757171
0.0724313
0.0692898
0.066294
0.0634511
0.0607592
0.0582261
0.0558544
0.0536521
0.0516112
0.0497301
0.0479906
0.0463839
0.0448994
0.0435247
0.0422445
0.0410519
0.0399312
0.038873
0.0378653
0.036889
0.0359296
0.0349812
0.0340406
0.0331177
0.0322314
0.031397
0.030612
0.0298513
0.0290775
0.0282696
0.0274372
0.0266063
0.0258005
0.0250268
0.024268
0.0235002
0.0227216
0.0219516
0.0211797
0.0204136
0.0196717
0.0189681
0.0183061
0.0176795
0.0170781
0.0164953
0.0159328
0.0153973
0.0148959
0.0144312
0.0140003
0.0135976
0.0132162
0.0128482
0.0124853
0.0121219
0.0117565
0.0113929
0.0110359
0.0106953
0.0103687
0.0100487
0.00972616
0.00939063
0.00903464
0.00866183
0.00827338
0.00786859
0.00744688
0.0070086
0.00655488
0.00608705
0.00560601
0.00511196
0.00460491
0.00408597
0.00355657
0.00302366
0.00248833
0.00194919
0.00140635
0.000853817
0.000287234
0.155435
0.147897
0.140666
0.133989
0.127832
0.122184
0.116897
0.111939
0.10721
0.102711
0.0983916
0.0942538
0.0902684
0.0864359
0.0827454
0.0791915
0.0757706
0.0724842
0.0693415
0.0663442
0.0634995
0.0608058
0.0582707
0.0558977
0.0536944
0.0516537
0.0497752
0.0480407
0.0464407
0.0449646
0.0435976
0.0423244
0.0411386
0.0400245
0.0389726
0.0379717
0.0370016
0.0360472
0.0351023
0.034163
0.0332399
0.0323543
0.031522
0.0307407
0.0299854
0.0292166
0.02841
0.0275757
0.0267409
0.0259304
0.0251527
0.0243914
0.023622
0.0228415
0.022067
0.0212898
0.0205183
0.0197706
0.0190604
0.0183921
0.0177611
0.0171575
0.0165736
0.0160098
0.015472
0.0149664
0.0144957
0.0140577
0.0136471
0.0132567
0.0128785
0.0125045
0.0121294
0.0117537
0.0113827
0.0110188
0.0106743
0.010346
0.0100254
0.00970245
0.0093669
0.00901214
0.00864095
0.00825409
0.00785096
0.00743123
0.00699549
0.00654484
0.00608029
0.00560239
0.00511096
0.00460552
0.0040865
0.00355606
0.00302281
0.00248748
0.00194905
0.00140773
0.000855974
0.000288205
0.155488
0.14787
0.140608
0.133925
0.127778
0.122146
0.116877
0.111936
0.107223
0.102737
0.098428
0.0942976
0.0903175
0.0864884
0.0828003
0.0792476
0.075827
0.0725401
0.0693962
0.0663974
0.0635508
0.060855
0.0583177
0.0559432
0.0537388
0.0516983
0.0498225
0.0480932
0.0465004
0.0450331
0.0436743
0.0424085
0.0412299
0.0401227
0.0390775
0.0380835
0.0371202
0.0361716
0.0352308
0.0342936
0.0333711
0.0324864
0.0316562
0.0308778
0.030127
0.0293625
0.028557
0.0277205
0.0268815
0.0260657
0.0252831
0.024519
0.0237484
0.0229664
0.0221875
0.0214056
0.0206291
0.0198752
0.0191577
0.0184822
0.0178463
0.0172404
0.0166554
0.0160905
0.0155503
0.0150403
0.0145631
0.0141172
0.0136976
0.013297
0.0129076
0.0125219
0.0121353
0.0117503
0.0113737
0.0110041
0.0106562
0.0103261
0.0100041
0.00967966
0.00934319
0.00898906
0.00861895
0.0082333
0.0078317
0.00741411
0.0069814
0.00653437
0.00607373
0.00559941
0.00511061
0.00460647
0.00408746
0.00355643
0.00302345
0.00248838
0.0019504
0.00141029
0.000859805
0.000289973
0.155546
0.147841
0.140546
0.133856
0.127721
0.122107
0.116858
0.111934
0.107237
0.102764
0.0984666
0.0943439
0.0903694
0.0865438
0.0828579
0.0793065
0.0758862
0.072599
0.0694539
0.0664535
0.0636049
0.0609068
0.0583672
0.055991
0.0537853
0.0517451
0.049872
0.0481482
0.0465629
0.0451047
0.0437544
0.0424966
0.0413256
0.0402257
0.0391877
0.0382012
0.0372452
0.0363031
0.0353671
0.0344329
0.0335119
0.0326284
0.0318
0.0310235
0.0302755
0.0295144
0.0287098
0.027871
0.0270276
0.0262061
0.025418
0.0246507
0.0238795
0.0230968
0.0223139
0.0215277
0.0207462
0.0199856
0.0192597
0.018576
0.017935
0.0173269
0.0167407
0.0161745
0.0156318
0.0151172
0.014633
0.0141782
0.0137485
0.0133367
0.0129353
0.0125377
0.0121403
0.0117473
0.0113666
0.0109922
0.0106413
0.0103088
0.0099844
0.00965737
0.00931907
0.00896483
0.00859529
0.00821074
0.00781108
0.00739615
0.00696659
0.00652333
0.00606684
0.0055964
0.00511055
0.00460812
0.00408972
0.00355829
0.00302647
0.00249103
0.00195262
0.00141472
0.000865683
0.000292551
0.155608
0.14781
0.140478
0.133783
0.127661
0.122066
0.116837
0.111931
0.107252
0.102794
0.0985074
0.0943928
0.0904241
0.0866021
0.0829185
0.0793682
0.0759484
0.072661
0.0695147
0.0665127
0.0636619
0.0609613
0.0584191
0.056041
0.053834
0.0517942
0.0499238
0.0482056
0.0466281
0.0451792
0.0438378
0.0425885
0.0414256
0.0403336
0.0393035
0.0383248
0.0373769
0.0364421
0.0355119
0.0345817
0.033663
0.0327811
0.0319537
0.0311777
0.0304308
0.0296716
0.0288675
0.0280264
0.0271787
0.0263512
0.0255572
0.0247868
0.0240156
0.0232329
0.0224466
0.0216566
0.02087
0.0201017
0.0193657
0.0186733
0.0180269
0.0174168
0.0168299
0.016262
0.0157165
0.0151969
0.014705
0.0142405
0.0137996
0.0133757
0.0129618
0.0125523
0.0121451
0.0117453
0.0113618
0.0109835
0.0106295
0.0102938
0.00996573
0.009635
0.00929406
0.00893903
0.00856985
0.00818657
0.00778885
0.00737661
0.00695053
0.00651159
0.00605983
0.00559376
0.00511132
0.00461116
0.00409426
0.00356429
0.00303183
0.00249426
0.00195687
0.00142159
0.000873425
0.000295667
0.155676
0.147775
0.140405
0.133705
0.127598
0.122023
0.116816
0.11193
0.107268
0.102825
0.0985507
0.0944445
0.0904816
0.0866633
0.082982
0.0794328
0.0760134
0.0727259
0.0695786
0.0665747
0.0637216
0.0610183
0.0584734
0.0560933
0.053885
0.0518455
0.0499779
0.0482654
0.0466959
0.0452564
0.0439243
0.0426841
0.0415298
0.0404465
0.0394247
0.0384546
0.0375155
0.036589
0.0356656
0.0347404
0.0338251
0.0329449
0.0321176
0.0313404
0.0305922
0.0298333
0.0290294
0.0281862
0.0273343
0.026501
0.025701
0.0249274
0.0241568
0.0233751
0.0225865
0.0217928
0.0210004
0.0202229
0.0194764
0.0187745
0.0181218
0.0175093
0.0169221
0.0163531
0.0158043
0.0152791
0.014779
0.0143038
0.0138508
0.013414
0.0129873
0.0125663
0.0121504
0.0117451
0.011359
0.0109777
0.0106203
0.0102803
0.00994721
0.00961183
0.00926765
0.00891134
0.00854229
0.00816015
0.00776452
0.00735541
0.00693352
0.00649962
0.00605327
0.00559215
0.00511372
0.00461652
0.00410165
0.00357199
0.00303788
0.00249971
0.00196407
0.00143083
0.000882187
0.000298789
0.15575
0.147737
0.140327
0.133623
0.127532
0.121978
0.116795
0.111929
0.107286
0.102858
0.0985963
0.0944988
0.0905421
0.0867276
0.0830485
0.0795003
0.0760814
0.0727937
0.0696454
0.0666397
0.0637842
0.0610779
0.0585301
0.0561479
0.0539383
0.0518993
0.0500343
0.0483275
0.046766
0.0453361
0.0440136
0.0427831
0.0416383
0.0405642
0.0395517
0.0385907
0.0376612
0.0367441
0.0358287
0.0349096
0.0339986
0.0331202
0.0322919
0.0315114
0.0307594
0.0299988
0.0291946
0.0283499
0.0274943
0.0266555
0.0258495
0.0250728
0.0243033
0.0235235
0.0227337
0.0219364
0.0211377
0.0203503
0.0195922
0.0188795
0.0182192
0.0176037
0.0170165
0.0164472
0.0158954
0.015364
0.0148548
0.0143681
0.013902
0.0134519
0.0130123
0.0125805
0.0121569
0.0117469
0.0113574
0.0109741
0.0106127
0.0102671
0.00992794
0.00958715
0.00923929
0.00888132
0.0085122
0.00813131
0.0077382
0.00733298
0.00691622
0.00648826
0.00604796
0.00559214
0.00511807
0.00462384
0.00411035
0.00358183
0.00304713
0.00250877
0.00197443
0.00144163
0.000890651
0.000301283
0.155833
0.147692
0.140244
0.133536
0.127462
0.121932
0.116773
0.111929
0.107305
0.102893
0.0986443
0.0945559
0.0906056
0.0867951
0.0831181
0.0795709
0.0761523
0.0728645
0.0697152
0.0667076
0.0638494
0.06114
0.0585892
0.0562048
0.0539938
0.0519555
0.0500932
0.0483918
0.0468384
0.045418
0.0441055
0.0428857
0.041751
0.040687
0.0396844
0.0387334
0.0378144
0.0369078
0.0360016
0.0350898
0.0341839
0.0333072
0.0324765
0.0316905
0.0309322
0.0301677
0.0293629
0.0285174
0.0276588
0.0268149
0.0260032
0.0252235
0.0244555
0.0236784
0.0228883
0.0220878
0.0212823
0.0204844
0.0197135
0.0189886
0.0183191
0.0176995
0.0171123
0.0165433
0.0159892
0.0154519
0.0149329
0.0144336
0.0139537
0.0134897
0.0130376
0.0125955
0.012165
0.0117507
0.011357
0.0109717
0.0106055
0.0102533
0.00990701
0.00956031
0.00920848
0.00884868
0.00847954
0.00810032
0.00771053
0.00731022
0.00689918
0.00647704
0.0060429
0.00559335
0.00512445
0.0046338
0.00412246
0.00359582
0.00306063
0.0025218
0.00198713
0.00145261
0.000897396
0.000302628
0.155922
0.147645
0.140154
0.133444
0.12739
0.121884
0.116751
0.111929
0.107326
0.10293
0.0986948
0.0946159
0.0906721
0.0868656
0.0831908
0.0796444
0.0762261
0.0729383
0.0697879
0.0667784
0.0639174
0.0612046
0.0586507
0.0562639
0.0540516
0.0520141
0.0501544
0.0484584
0.046913
0.0455022
0.0442002
0.0429917
0.0418681
0.0408149
0.039823
0.0388828
0.0379753
0.0370803
0.0361846
0.0352811
0.0343809
0.0335057
0.0326712
0.0318776
0.0311104
0.0303399
0.029534
0.0286886
0.0278281
0.0269796
0.0261624
0.0253798
0.0246136
0.0238399
0.0230504
0.0222471
0.0214348
0.0206256
0.0198405
0.0191016
0.0184212
0.0177963
0.017209
0.0166409
0.0160851
0.015542
0.0150134
0.0145011
0.0140064
0.0135282
0.0130636
0.0126117
0.0121747
0.0117561
0.0113575
0.0109691
0.0105974
0.0102376
0.00988363
0.00953074
0.00917493
0.00881342
0.0084447
0.00806784
0.00768188
0.00728648
0.00688152
0.00646671
0.0060402
0.00559764
0.00513432
0.00464753
0.00413849
0.00361339
0.00307772
0.00253776
0.00200065
0.00146212
0.000901286
0.000302564
0.156018
0.147593
0.140057
0.133347
0.127314
0.121835
0.116729
0.11193
0.107348
0.102969
0.0987479
0.0946788
0.0907418
0.0869395
0.0832667
0.0797211
0.076303
0.073015
0.0698635
0.066852
0.063988
0.0612715
0.0587144
0.0563252
0.0541115
0.052075
0.050218
0.0485272
0.0469897
0.0455886
0.0442975
0.0431013
0.0419897
0.040948
0.0399676
0.0390391
0.038144
0.037262
0.0363779
0.0354836
0.0345894
0.0337154
0.0328757
0.0320724
0.031294
0.0305156
0.0297082
0.0288641
0.0280026
0.0271502
0.0263279
0.0255423
0.024778
0.0240082
0.0232202
0.0224144
0.0215951
0.0207737
0.0199732
0.0192185
0.0185255
0.0178939
0.0173061
0.0167396
0.0161827
0.0156341
0.0150957
0.0145702
0.0140608
0.013568
0.0130908
0.0126291
0.0121855
0.0117623
0.0113582
0.0109654
0.0105874
0.0102192
0.0098572
0.00949812
0.00913857
0.00877571
0.00840774
0.00803354
0.00765221
0.00726328
0.00686628
0.00646008
0.00604174
0.0056061
0.00514801
0.00466471
0.00415763
0.00363335
0.003097
0.00255558
0.00201341
0.00146868
0.000901726
0.000301132
0.156123
0.147535
0.139954
0.133245
0.127235
0.121784
0.116706
0.111932
0.107372
0.10301
0.0988036
0.0947446
0.0908146
0.0870166
0.0833458
0.079801
0.0763829
0.0730946
0.069942
0.0669285
0.0640613
0.0613409
0.0587802
0.0563885
0.0541735
0.0521381
0.0502838
0.0485982
0.0470686
0.0456772
0.0443977
0.0432146
0.0421158
0.0410866
0.0401184
0.0392024
0.0383209
0.0374529
0.0365815
0.0356969
0.0348089
0.0339355
0.0330896
0.0322749
0.0314833
0.0306952
0.029886
0.0290445
0.0281834
0.0273277
0.0265006
0.025712
0.0249492
0.0241836
0.0233974
0.0225893
0.0217627
0.0209286
0.0201113
0.0193391
0.018632
0.0179926
0.0174036
0.0168391
0.0162819
0.015728
0.0151797
0.0146408
0.0141162
0.013609
0.0131192
0.0126477
0.0121972
0.0117689
0.0113584
0.0109597
0.0105744
0.0101972
0.00982708
0.00946217
0.00909933
0.0087356
0.00836917
0.00799899
0.00762412
0.00724357
0.00685597
0.00645898
0.00604848
0.0056188
0.00516479
0.00468396
0.00417806
0.00365363
0.00311615
0.00257228
0.00202257
0.00147105
0.00089872
0.000298602
0.156237
0.147471
0.139844
0.133137
0.127153
0.121732
0.116684
0.111935
0.107398
0.103054
0.0988619
0.0948134