/*--------------------------------*- C++ -*----------------------------------*\
| =========                 |                                                 |
| \\      /  F ield         | OpenFOAM: The Open Source CFD Toolbox           |
|  \\    /   O peration     | Version:  4.1                                   |
|   \\  /    A nd           | Web:      www.OpenFOAM.org                      |
|    \\/     M anipulation  |                                                 |
\*---------------------------------------------------------------------------*/
FoamFile
{
    version     2.0;
    format      ascii;
    class       surfaceScalarField;
    location    "3";
    object      phi;
}
// * * * * * * * * * * * * * * * * * * * * * * * * * * * * * * * * * * * * * //

dimensions      [0 3 -1 0 0 0 0];

internalField   nonuniform List<scalar> 
52920
(
16.8168
-0.00239645
16.7987
0.0180756
16.7603
0.0384254
16.7026
0.0577142
16.6267
0.0759052
16.5341
0.0925176
16.4264
0.107766
16.3049
0.121524
16.1707
0.134125
16.0252
0.145516
15.8693
0.155939
15.704
0.165297
15.5303
0.173713
15.3489
0.181335
15.161
0.187895
14.9672
0.193836
14.7684
0.198841
14.5652
0.20321
14.3582
0.206915
14.1481
0.210104
13.9355
0.212609
13.7207
0.214843
13.5041
0.216562
13.2863
0.217822
13.0674
0.21893
12.8479
0.219484
12.6281
0.21978
12.4082
0.219941
12.1885
0.219715
11.9692
0.219289
11.7504
0.218724
11.5327
0.217707
11.3162
0.216516
11.1009
0.215277
10.8873
0.213688
10.6753
0.21197
10.4652
0.210084
10.2575
0.207678
10.0525
0.205008
9.8503
0.202213
9.65106
0.199249
9.45457
0.19649
9.26056
0.194012
9.06896
0.191595
8.87981
0.189149
8.69338
0.186433
8.51012
0.183261
8.33033
0.179788
8.15401
0.176319
7.98093
0.173087
7.81082
0.170104
7.64358
0.167242
7.4793
0.164286
7.31828
0.161019
7.16091
0.157367
7.00751
0.153398
6.85825
0.149269
6.71303
0.145216
6.57163
0.141402
6.43382
0.137814
6.29949
0.134323
6.16875
0.130748
6.04177
0.126976
5.91872
0.123054
5.79961
0.119102
5.6844
0.115212
5.57297
0.111431
5.46525
0.107721
5.36124
0.104012
5.26097
0.100263
5.16451
0.0964588
5.0719
0.0926152
4.98308
0.0888152
4.89777
0.0853134
4.81593
0.0818406
4.7379
0.0780341
4.66379
0.0741059
4.59366
0.0701247
4.52754
0.0661204
4.46544
0.0621073
4.40735
0.0580864
4.3533
0.0540528
4.30331
0.0499916
4.25743
0.0458798
4.21572
0.0417035
4.17827
0.0374544
4.14515
0.0331215
4.11645
0.0286988
4.09226
0.0241854
4.07268
0.0195853
4.05776
0.0149148
4.04757
0.0101952
4.04214
0.00542833
4.04153
0.000610512
4.04578
-0.0042532
4.05478
-0.00900343
4.06882
-0.0140378
4.08808
-0.0192553
4.1127
-0.0246207
-0.0300629
16.8166
-0.0049418
16.7985
0.0361458
16.7601
0.0768647
16.7023
0.11544
16.6264
0.151833
16.5339
0.185044
16.4261
0.215541
16.3046
0.24306
16.1704
0.268252
16.0249
0.291041
15.869
0.311878
15.7036
0.330626
15.5299
0.347438
15.3485
0.362719
15.1606
0.375818
14.9667
0.387712
14.7679
0.397699
14.5647
0.406419
14.3578
0.413804
14.1477
0.420191
13.9351
0.425223
13.7202
0.429701
13.5036
0.433189
13.2857
0.435691
13.0668
0.437909
12.8472
0.439009
12.6275
0.439555
12.4075
0.439896
12.1878
0.439457
11.9685
0.438562
11.7498
0.437441
11.5321
0.435423
11.3156
0.432993
11.1003
0.430547
10.8866
0.427408
10.6746
0.423938
10.4645
0.420207
10.2568
0.415426
10.0517
0.410027
9.84951
0.404444
9.65023
0.398527
9.45377
0.392955
9.25975
0.388023
9.06812
0.383228
8.87896
0.378313
8.69254
0.372851
8.50934
0.366459
8.32966
0.35947
8.15343
0.352555
7.98036
0.34616
7.81021
0.340247
7.64292
0.334538
7.47858
0.328629
7.31751
0.322083
7.16014
0.314743
7.00678
0.306762
6.85757
0.298472
6.71242
0.290366
6.57104
0.282788
6.43319
0.275664
6.29882
0.268688
6.16806
0.26151
6.04111
0.253928
5.9181
0.246061
5.79903
0.23817
5.68382
0.230427
5.57236
0.222884
5.46461
0.215479
5.36055
0.208065
5.26025
0.200559
5.16376
0.192949
5.07111
0.185264
4.98227
0.17766
4.89695
0.170634
4.81509
0.163706
4.73703
0.156085
4.66292
0.148217
4.59281
0.140241
4.52671
0.132218
4.46464
0.124182
4.40659
0.116136
4.35257
0.108066
4.30262
0.099944
4.25678
0.0917217
4.21512
0.0833669
4.1777
0.0748692
4.14461
0.0662102
4.11594
0.0573679
4.09179
0.0483394
4.07223
0.0391424
4.05733
0.029812
4.04714
0.0203883
4.04169
0.0108823
4.04102
0.00127492
4.0452
-0.00843556
4.05414
-0.0179449
4.06812
-0.0280149
4.0873
-0.0384368
4.11183
-0.0491505
-0.0600238
16.8161
-0.00752943
16.798
0.0542227
16.7596
0.115324
16.7018
0.173195
16.6259
0.227793
16.5333
0.277597
16.4255
0.323333
16.304
0.364619
16.1698
0.402385
16.0243
0.436586
15.8683
0.467823
15.703
0.496002
15.5292
0.521221
15.3477
0.544183
15.1597
0.563826
14.9658
0.581641
14.7669
0.596568
14.5637
0.6096
14.3569
0.620634
14.1469
0.630247
13.9342
0.637885
13.7193
0.644634
13.5025
0.649944
13.2845
0.653682
13.0655
0.656951
12.8459
0.658604
12.6261
0.659362
12.4061
0.659856
12.1863
0.659228
11.9671
0.657821
11.7484
0.656104
11.5307
0.653134
11.3143
0.649456
11.099
0.645786
10.8853
0.641166
10.6733
0.635938
10.4631
0.630357
10.2553
0.623278
10.0502
0.615127
9.84788
0.606726
9.64851
0.597894
9.452
0.589469
9.25798
0.582039
9.06635
0.574858
8.87726
0.567403
8.69099
0.559122
8.50795
0.549506
8.32836
0.539057
8.15215
0.528768
7.97905
0.519256
7.80887
0.510432
7.64154
0.501864
7.47719
0.492977
7.31614
0.483141
7.1588
0.472079
7.00551
0.460057
6.85635
0.447631
6.71121
0.435511
6.56981
0.424191
6.43194
0.41353
6.2976
0.403027
6.16691
0.392203
6.04002
0.380812
5.91706
0.369027
5.79799
0.357239
5.68273
0.34568
5.57123
0.334393
5.46342
0.323287
5.35931
0.312172
5.25895
0.300916
5.16239
0.289508
5.06966
0.277996
4.98073
0.266585
4.89538
0.255993
4.81345
0.245631
4.73536
0.234177
4.66124
0.222338
4.59114
0.21034
4.52509
0.198269
4.46308
0.186188
4.40511
0.174106
4.35119
0.161989
4.30135
0.14979
4.25561
0.137453
4.21405
0.12493
4.17673
0.112192
4.14373
0.0992131
4.11513
0.0859635
4.09103
0.0724373
4.07151
0.0586661
4.05661
0.044714
4.04636
0.030638
4.04081
0.0164286
4.04004
0.00204686
4.04409
-0.0124927
4.05288
-0.0267345
4.06671
-0.0418408
4.08572
-0.0574463
4.11005
-0.0734782
-0.0898085
16.8154
-0.0100574
16.7974
0.0723129
16.7589
0.153811
16.7011
0.23099
16.6251
0.303795
16.5325
0.370191
16.4247
0.431154
16.3031
0.48621
16.1689
0.536531
16.0233
0.58216
15.8674
0.623788
15.7019
0.661439
15.5281
0.695098
15.3465
0.725751
15.1584
0.751961
14.9644
0.775635
14.7655
0.795438
14.5624
0.81274
14.3556
0.827398
14.1456
0.840276
13.9328
0.850636
13.7178
0.859691
13.5008
0.866868
13.2827
0.871844
13.0636
0.876071
12.8439
0.878281
12.624
0.879237
12.404
0.879822
12.1843
0.879019
11.965
0.877077
11.7464
0.874705
11.5287
0.870832
11.3122
0.865926
11.097
0.860988
10.8832
0.854958
10.6712
0.847998
10.461
0.840537
10.253
0.831245
10.0478
0.820358
9.84544
0.809082
9.64597
0.797367
9.44937
0.786068
9.25535
0.776064
9.06376
0.766447
8.8748
0.756364
8.68873
0.745196
8.50585
0.732382
8.32635
0.71856
8.15013
0.704984
7.97701
0.692385
7.80678
0.680655
7.63943
0.669214
7.4751
0.65731
7.31409
0.644154
7.15683
0.629345
7.00362
0.613263
6.85451
0.596739
6.70937
0.580658
6.56795
0.565603
6.4301
0.551382
6.29582
0.537308
6.16523
0.522799
6.03842
0.507616
5.91548
0.491966
5.7964
0.476326
5.68108
0.460992
5.5695
0.445976
5.46162
0.431167
5.35743
0.41636
5.25698
0.401369
5.16031
0.386173
5.06746
0.370846
4.97842
0.355626
4.89301
0.341406
4.81101
0.327628
4.73287
0.312323
4.65874
0.296467
4.58867
0.280405
4.52268
0.264262
4.46076
0.248106
4.40291
0.23196
4.34911
0.215783
4.2994
0.199502
4.25381
0.183045
4.21238
0.16636
4.17517
0.149403
4.14226
0.132121
4.11374
0.114481
4.08969
0.096491
4.07016
0.078193
4.05521
0.0596631
4.04487
0.040978
4.03918
0.0221225
4.03823
0.00299189
4.04211
-0.0163677
4.05073
-0.0353561
4.06434
-0.0554551
4.08312
-0.0762234
4.10722
-0.0975751
-0.119403
16.8145
-0.0124266
16.7964
0.0904215
16.7579
0.192335
16.7001
0.288839
16.624
0.379852
16.5314
0.462839
16.4235
0.539016
16.3019
0.607848
16.1677
0.670699
16.0221
0.727778
15.8661
0.77979
15.7006
0.826954
15.5266
0.869094
15.3449
0.907442
15.1566
0.940243
14.9625
0.969703
14.7636
0.994307
14.5605
1.01584
14.3538
1.03411
14.1438
1.0503
13.9309
1.06351
13.7157
1.07491
13.4986
1.08398
13.2802
1.0902
13.061
1.09528
12.8413
1.09805
12.6213
1.09921
12.4013
1.09981
12.1815
1.09883
11.9622
1.09635
11.7437
1.09326
11.526
1.08852
11.3095
1.08243
11.0943
1.07616
10.8805
1.06877
10.6684
1.06014
10.4582
1.05076
10.2501
1.03932
10.0447
1.02573
9.84226
1.01152
9.64268
0.996945
9.44598
0.982771
9.25194
0.970104
9.06042
0.957965
8.87162
0.945167
8.68575
0.931068
8.50303
0.915103
8.32359
0.898005
8.14734
0.881228
7.97417
0.865562
7.80391
0.850907
7.63656
0.836573
7.47227
0.821598
7.31135
0.805076
7.1542
0.786498
7.0011
0.766356
6.85206
0.745782
6.70692
0.7258
6.56551
0.70701
6.42771
0.689189
6.29351
0.671507
6.16302
0.653288
6.0363
0.634339
5.91337
0.614895
5.79424
0.595457
5.67885
0.576377
5.56717
0.557654
5.45919
0.539148
5.35489
0.520655
5.25431
0.501948
5.15751
0.482973
5.06453
0.463832
4.97535
0.444802
4.88987
0.426889
4.8078
0.409697
4.72961
0.390516
4.65547
0.370605
4.58544
0.350434
4.51952
0.330184
4.4577
0.30993
4.39996
0.289694
4.34631
0.269436
4.29674
0.249069
4.25129
0.228502
4.20997
0.207673
4.17286
0.186516
4.14002
0.164961
4.11154
0.14296
4.08749
0.120537
4.06792
0.0977639
4.05286
0.0747246
4.04235
0.0514868
4.03647
0.0280091
4.03532
0.00413471
4.03898
-0.0200293
4.04739
-0.0437621
4.06081
-0.0688726
4.07938
-0.0947928
4.10327
-0.121466
-0.148831
16.8134
-0.014674
16.7953
0.108539
16.7567
0.230892
16.6988
0.346753
16.6227
0.455975
16.53
0.555557
16.422
0.646936
16.3003
0.72955
16.1661
0.804907
16.0205
0.873459
15.8644
0.935849
15.6988
0.992562
15.5247
1.04323
15.3428
1.08926
15.1544
1.12868
14.9603
1.16385
14.7614
1.19318
14.5583
1.21893
14.3516
1.24082
14.1415
1.26034
13.9285
1.27655
13.7131
1.29031
13.4958
1.30128
13.2772
1.30877
13.0579
1.3146
12.8381
1.3179
12.618
1.31928
12.398
1.31982
12.1782
1.31865
11.9588
1.31567
11.7403
1.31181
11.5226
1.30621
11.306
1.29898
11.0909
1.29133
10.877
1.2826
10.6648
1.27235
10.4546
1.26101
10.2464
1.24746
10.0409
1.23124
9.83839
1.21406
9.63871
1.19663
9.44189
1.17959
9.24783
1.16417
9.05639
1.14941
8.86774
1.13382
8.68205
1.11676
8.49944
1.09771
8.32001
1.07743
8.14371
1.05753
7.97047
1.0388
7.8002
1.02118
7.63287
1.0039
7.46867
0.985798
7.3079
0.965843
7.15092
0.943482
6.99798
0.919301
6.84902
0.894736
6.7039
0.870921
6.56252
0.848398
6.42478
0.826927
6.29068
0.805606
6.16028
0.783683
6.03362
0.761008
5.91067
0.737839
5.79147
0.714657
5.67599
0.691855
5.5642
0.669445
5.4561
0.647252
5.35168
0.625076
5.25095
0.602668
5.154
0.579927
5.06087
0.556966
4.97156
0.534111
4.886
0.512444
4.80387
0.491831
4.72564
0.468747
4.65149
0.44475
4.58149
0.420435
4.51564
0.396042
4.4539
0.371666
4.39627
0.347323
4.34274
0.32297
4.29329
0.298513
4.24793
0.273862
4.20669
0.248915
4.16963
0.223578
4.13682
0.197772
4.10833
0.171449
4.08422
0.144648
4.06453
0.117458
4.04928
0.0899659
4.03855
0.0622182
4.03242
0.0341452
4.03103
0.00551988
4.03448
-0.0234776
4.04271
-0.0519914
4.05596
-0.0821221
4.07438
-0.113213
4.09814
-0.145227
-0.178141
16.812
-0.0170542
16.7939
0.126685
16.7553
0.269493
16.6973
0.404742
16.6211
0.532177
16.5283
0.648358
16.4203
0.754932
16.2985
0.851336
16.1642
0.93918
16.0185
1.01923
15.8623
1.09199
15.6966
1.15827
15.5224
1.2175
15.3404
1.2712
15.1519
1.31725
14.9576
1.35809
14.7587
1.39208
14.5556
1.42205
14.3489
1.44758
14.1387
1.47046
13.9255
1.48977
13.7099
1.50592
13.4924
1.51875
13.2737
1.52753
13.0543
1.53403
12.8343
1.53784
12.6141
1.53948
12.3941
1.53989
12.1742
1.53851
11.9548
1.53507
11.7362
1.53041
11.5185
1.52393
11.3018
1.51562
11.0867
1.50652
10.8728
1.49642
10.6606
1.48463
10.4503
1.4713
10.2421
1.45563
10.0365
1.43685
9.83388
1.41667
9.63411
1.3964
9.43717
1.37652
9.24307
1.35827
9.0517
1.34078
8.86317
1.32234
8.6776
1.30234
8.49503
1.28028
8.31556
1.2569
8.13918
1.23391
7.96586
1.21212
7.79558
1.19146
7.62833
1.17116
7.46428
1.14984
7.30374
1.12638
7.147
1.10022
6.99424
1.07207
6.84539
1.04358
6.70032
1.01599
6.55898
0.989745
6.42132
0.964583
6.28732
0.939609
6.15699
0.91401
6.03035
0.887653
5.90736
0.860823
5.78806
0.833953
5.67247
0.807449
5.56055
0.781363
5.4523
0.755497
5.34774
0.729634
5.24689
0.703526
5.14979
0.677028
5.05651
0.650242
4.96709
0.623534
4.88147
0.598061
4.79928
0.574018
4.72102
0.547009
4.64688
0.518898
4.57689
0.49042
4.51107
0.461863
4.44939
0.433344
4.39183
0.404885
4.33836
0.376437
4.28897
0.347905
4.24365
0.319189
4.20241
0.290148
4.16534
0.260654
4.13248
0.230625
4.10391
0.200027
4.07965
0.1689
4.05976
0.137352
4.04426
0.105465
4.03324
0.0732417
4.02681
0.0405661
4.0252
0.00713477
4.02846
-0.0267367
4.03656
-0.0600904
4.04973
-0.0952933
4.0681
-0.131587
4.09183
-0.168954
-0.207386
16.8105
-0.019464
16.7923
0.144854
16.7537
0.308146
16.6956
0.462818
16.6193
0.60847
16.5264
0.741261
16.4183
0.863022
16.2964
0.973232
16.162
1.07355
16.0161
1.16511
15.8599
1.24822
15.6941
1.32409
15.5197
1.3919
15.3376
1.45324
15.149
1.50593
14.9546
1.55242
14.7557
1.59104
14.5525
1.62524
14.3456
1.65445
14.1354
1.6807
13.9219
1.70319
13.7061
1.72172
13.4885
1.73637
13.2696
1.74646
13.0501
1.75357
12.83
1.75785
12.6097
1.75979
12.3896
1.76005
12.1697
1.75843
11.9501
1.7546
11.7314
1.74912
11.5136
1.74173
11.2969
1.73236
11.0817
1.72176
10.8678
1.71022
10.6555
1.69693
10.4453
1.68158
10.2371
1.66377
10.0315
1.6425
9.82879
1.61936
9.62893
1.59626
9.43187
1.57359
9.2377
1.55243
9.04636
1.53213
8.8579
1.51081
8.67237
1.48786
8.48978
1.46288
8.31021
1.43647
8.1337
1.41042
7.9603
1.38553
7.79003
1.36172
7.62292
1.33828
7.4591
1.31366
7.29886
1.28662
7.14243
1.25665
6.98988
1.22461
6.84117
1.1923
6.69618
1.16098
6.55489
1.13104
6.41731
1.10216
6.28339
1.07353
6.1531
1.0443
6.02644
1.01431
5.90339
0.983875
5.78397
0.953372
5.66823
0.923188
5.55617
0.893425
5.44778
0.863889
5.34308
0.834334
5.2421
0.804506
5.14488
0.774244
5.0515
0.743627
4.96199
0.713042
4.87633
0.683717
4.79412
0.656232
4.71583
0.625293
4.64168
0.593054
4.57169
0.560413
4.50586
0.527692
4.44418
0.495022
4.38662
0.462448
4.33313
0.429923
4.2837
0.397338
4.23832
0.364572
4.19701
0.331458
4.15983
0.297829
4.12685
0.263603
4.09811
0.228771
4.07363
0.19338
4.05345
0.15753
4.03763
0.121286
4.02627
0.0845967
4.01955
0.0472843
4.01773
0.00896152
4.02088
-0.0298929
4.02897
-0.0681731
4.04218
-0.108505
4.06061
-0.150024
4.08439
-0.192727
-0.236603
16.8087
-0.0218183
16.7905
0.163052
16.7518
0.346853
16.6936
0.520989
16.6172
0.684867
16.5242
0.83428
16.416
0.97123
16.294
1.09527
16.1595
1.20804
16.0134
1.31114
15.8571
1.40459
15.6911
1.49003
15.5166
1.56641
15.3345
1.63535
15.1457
1.69471
14.9513
1.74684
14.7523
1.7901
14.5489
1.82859
14.3418
1.86153
14.1314
1.89111
13.9178
1.91682
13.7018
1.93771
13.4841
1.95411
13.265
1.96554
13.0453
1.97322
12.8253
1.97793
12.6048
1.98021
12.3846
1.98031
12.1646
1.97844
11.9449
1.97429
11.726
1.96801
11.5081
1.95966
11.2912
1.94922
11.0759
1.93708
10.8621
1.92401
10.6498
1.90922
10.4396
1.89182
10.2315
1.87181
10.0259
1.84814
9.82315
1.82211
9.6232
1.79621
9.426
1.77079
9.23174
1.74669
9.04037
1.7235
8.8519
1.69928
8.66635
1.67342
8.48365
1.64558
8.30392
1.6162
8.12727
1.58707
7.95378
1.55902
7.78355
1.53195
7.61664
1.5052
7.45313
1.47718
7.29326
1.4465
7.1372
1.4127
6.9849
1.37691
6.83634
1.34087
6.69144
1.30587
6.55022
1.27226
6.41271
1.23968
6.27885
1.20738
6.14857
1.17458
6.02185
1.14103
5.8987
1.10703
5.77914
1.07293
5.66324
1.03909
5.55102
1.00564
5.44248
0.972424
5.33766
0.93916
5.23658
0.905581
5.1393
0.871527
5.04586
0.837061
4.95632
0.802584
4.87065
0.769383
4.78845
0.738437
4.71015
0.703592
4.63597
0.667238
4.56593
0.63045
4.50003
0.593589
4.43827
0.556787
4.38061
0.520112
4.32699
0.483541
4.2774
0.446929
4.23185
0.410123
4.19036
0.372943
4.153
0.335195
4.11981
0.296795
4.09081
0.257765
4.06603
0.218163
4.0455
0.178058
4.02931
0.137477
4.01761
0.096294
4.01067
0.054226
4.00877
0.0108635
4.01195
-0.0330727
4.02013
-0.0763553
4.03348
-0.121854
4.05205
-0.168593
4.0759
-0.216583
-0.265796
16.8067
-0.0240117
16.7885
0.181259
16.7497
0.385618
16.6914
0.579264
16.6149
0.761381
16.5218
0.927434
16.4134
1.07958
16.2912
1.21747
16.1565
1.34271
16.0103
1.45735
15.8538
1.56111
15.6878
1.65609
15.5131
1.74102
15.331
1.8175
15.1422
1.88353
14.9477
1.94135
14.7485
1.9893
14.5449
2.03215
14.3375
2.06888
14.1269
2.10177
13.913
2.13068
13.6969
2.15388
13.479
2.17194
13.2598
2.18471
13.0401
2.19298
12.82
2.19807
12.5994
2.20073
12.3791
2.20069
12.1589
2.19858
11.939
2.19419
11.7199
2.18713
11.5018
2.17775
11.2848
2.16624
11.0694
2.15249
10.8556
2.13777
10.6434
2.12144
10.4332
2.10197
10.2253
2.0797
10.0198
2.05371
9.81697
2.02491
9.61693
1.99625
9.41957
1.96814
9.22517
1.94109
9.03372
1.91495
8.84517
1.88783
8.6595
1.85909
8.47664
1.82844
8.29669
1.79615
8.11987
1.76388
7.94632
1.73257
7.77617
1.7021
7.60951
1.67186
7.44638
1.64031
7.28694
1.60594
7.13129
1.56836
6.97928
1.52892
6.83086
1.48928
6.68608
1.45066
6.54493
1.41341
6.40746
1.37715
6.27363
1.34122
6.14332
1.30489
6.01651
1.26784
5.89323
1.23031
5.77351
1.19265
5.65743
1.15517
5.54505
1.11802
5.43639
1.08108
5.33147
1.04408
5.23034
1.00671
5.13304
0.968819
5.03963
0.930475
4.95013
0.892089
4.8645
0.855011
4.78234
0.820596
4.70404
0.781895
4.6298
0.741479
4.55966
0.70059
4.49361
0.659634
4.43166
0.618745
4.37377
0.578001
4.31989
0.537415
4.27002
0.496805
4.22418
0.455964
4.18241
0.414706
4.14477
0.372839
4.11128
0.330281
4.08197
0.287081
4.05683
0.243304
4.03592
0.198968
4.0194
0.153988
4.00753
0.108163
4.00054
0.0612164
3.99868
0.0127296
4.00197
-0.0363686
4.01033
-0.0847085
4.02386
-0.135385
4.04257
-0.187305
4.06649
-0.2405
-0.294929
16.8044
-0.0259684
16.7862
0.199423
16.7474
0.42443
16.689
0.637653
16.6124
0.838024
16.5191
1.02074
16.4106
1.18809
16.2882
1.33986
16.1533
1.47759
16.0069
1.60378
15.8501
1.71782
15.684
1.82228
15.5093
1.91569
15.3271
1.99966
15.1383
2.07236
14.9437
2.13594
14.7443
2.18871
14.5404
2.236
14.3327
2.2766
14.1218
2.31274
13.9077
2.34476
13.6914
2.37021
13.4734
2.38985
13.2542
2.40397
13.0344
2.41282
12.8142
2.41827
12.5935
2.42134
12.373
2.42122
12.1527
2.41889
11.9326
2.41432
11.7132
2.40652
11.4949
2.39606
11.2777
2.38342
11.0622
2.36803
10.8484
2.35151
10.6363
2.33356
10.4263
2.31201
10.2186
2.28742
10.0131
2.25918
9.81024
2.22776
9.61008
2.1964
9.41255
2.16567
9.21796
2.13569
9.02637
2.10653
8.83766
2.07654
8.65181
2.04495
8.46873
2.01152
8.28854
1.97634
8.11156
1.94086
7.93798
1.90616
7.76794
1.87213
7.60158
1.83822
7.43889
1.803
7.27991
1.76491
7.12468
1.7236
6.97296
1.68064
6.8247
1.63754
6.68001
1.59535
6.53893
1.55449
6.40148
1.5146
6.26763
1.47507
6.13726
1.43525
6.01034
1.39477
5.8869
1.35374
5.76702
1.31253
5.65077
1.27142
5.53824
1.23055
5.42948
1.18985
5.32451
1.14905
5.22337
1.10784
5.12614
1.06606
5.03282
1.02379
4.94342
0.981489
4.85787
0.94056
4.77579
0.902673
4.69751
0.860184
4.62318
0.815807
4.55287
0.7709
4.48658
0.725923
4.42432
0.681012
4.36607
0.636244
4.31181
0.591677
4.26153
0.547088
4.21528
0.50221
4.17314
0.456848
4.13514
0.410842
4.1013
0.364122
4.07163
0.316749
4.04617
0.268765
4.02503
0.22011
4.00839
0.17062
3.9965
0.120059
3.98956
0.0681542
3.98781
0.0144819
3.99127
-0.0398347
3.99982
-0.0932581
4.01353
-0.14909
4.03233
-0.206113
4.05623
-0.264399
-0.32393
16.802
-0.0281273
16.7838
0.217635
16.7449
0.463306
16.6864
0.696166
16.6096
0.91481
16.5161
1.11422
16.4074
1.2968
16.2848
1.46249
16.1497
1.61272
16.003
1.75046
15.8461
1.87474
15.6797
1.98861
15.505
2.09041
15.3229
2.18179
15.1341
2.26118
14.9394
2.33062
14.7398
2.38835
14.5356
2.4402
14.3274
2.48475
14.1161
2.52406
13.9018
2.55908
13.6853
2.58669
13.4673
2.60782
13.248
2.62327
13.0281
2.63275
12.8078
2.63853
12.5872
2.64203
12.3665
2.64191
12.146
2.6394
11.9256
2.63471
11.7059
2.62621
11.4873
2.61461
11.27
2.60076
11.0543
2.58368
10.8406
2.56523
10.6286
2.54555
10.4187
2.5219
10.2112
2.49495
10.0058
2.46453
9.80293
2.43067
9.60263
2.3967
9.40489
2.36341
9.21005
2.33053
9.01826
2.29832
8.82935
2.26545
8.64326
2.23104
8.45995
2.19483
8.27953
2.15676
8.1024
2.11799
7.92882
2.07975
7.75893
2.04202
7.5929
2.00425
7.43067
1.96523
7.27218
1.92341
7.11734
1.87844
6.9659
1.83208
6.81779
1.78565
6.67317
1.73998
6.53213
1.69553
6.39467
1.65206
6.26077
1.60897
6.13032
1.56569
6.00327
1.52182
5.87968
1.47734
5.75964
1.43257
5.64323
1.38782
5.53057
1.34321
5.42174
1.29868
5.31677
1.25402
5.2157
1.20891
5.11858
1.16317
5.02543
1.11694
4.93619
1.07073
4.85075
1.02601
4.76876
0.984661
4.69048
0.938465
4.61603
0.89025
4.54549
0.841444
4.47888
0.792534
4.41621
0.743681
4.35751
0.69495
4.30276
0.646429
4.25199
0.597859
4.20528
0.54892
4.16271
0.499412
4.12434
0.449217
4.09017
0.398292
4.06023
0.346685
4.03459
0.29441
4.01335
0.241342
3.99671
0.187258
3.98488
0.131891
3.97806
0.0749725
3.97647
0.0160783
3.98012
-0.0434869
3.98885
-0.101985
4.00266
-0.162906
4.02146
-0.224913
4.04522
-0.288156
-0.352694
16.7994
-0.0303856
16.7811
0.235873
16.7422
0.502251
16.6835
0.754813
16.6066
0.991752
16.5129
1.20789
16.404
1.40572
16.2811
1.58537
16.1457
1.74814
15.9987
1.89743
15.8416
2.0319
15.6751
2.15508
15.5004
2.26516
15.3183
2.36388
15.1295
2.44996
14.9348
2.52536
14.7348
2.58827
14.5302
2.64481
14.3216
2.69337
14.1099
2.73578
13.8953
2.77364
13.6787
2.80334
13.4606
2.82586
13.2413
2.84261
13.0213
2.85276
12.801
2.85884
12.5802
2.86279
12.3594
2.86277
12.1386
2.86013
11.918
2.85534
11.698
2.84621
11.4792
2.83342
11.2617
2.81826
11.0459
2.79945
10.8322
2.77896
10.6204
2.75739
10.4106
2.73165
10.2032
2.70233
9.99799
2.66979
9.79498
2.63368
9.59449
2.5972
9.3965
2.5614
9.20137
2.52566
9.00934
2.49036
8.82019
2.4546
8.63385
2.41738
8.45032
2.37836
8.26971
2.33737
8.09246
2.29524
7.91893
2.25329
7.74924
2.21171
7.58354
2.16995
7.42177
2.12699
7.26375
2.08143
7.10926
2.03293
6.95804
1.9833
6.81004
1.93365
6.66545
1.88457
6.52442
1.83656
6.38693
1.78954
6.25295
1.74295
6.12241
1.69623
5.99525
1.64898
5.8715
1.60109
5.75131
1.55276
5.63478
1.50435
5.52203
1.45596
5.41317
1.40754
5.30826
1.35893
5.20732
1.30985
5.11038
1.26011
5.01744
1.20989
4.92839
1.15978
4.84306
1.11134
4.76115
1.06657
4.68286
1.01676
4.60827
0.964842
4.53744
0.912269
4.47045
0.859532
4.40731
0.806818
4.34808
0.754187
4.29278
0.701723
4.24151
0.649135
4.19435
0.596081
4.1514
0.542363
4.1127
0.487908
4.07829
0.432706
4.04819
0.376785
4.02247
0.320126
4.00125
0.262562
3.98469
0.20382
3.97298
0.143603
3.96631
0.0816383
3.96488
0.0175073
3.9687
-0.0473064
3.97755
-0.110827
3.99136
-0.176724
4.01001
-0.243558
4.03347
-0.311614
-0.381096
16.7966
-0.0326952
16.7783
0.254163
16.7393
0.541271
16.6805
0.813606
16.6034
1.06886
16.5095
1.30178
16.4003
1.51488
16.2772
1.70853
16.1414
1.88388
15.9941
2.04471
15.8367
2.18933
15.6701
2.32172
15.4953
2.43993
15.3133
2.54591
15.1246
2.63867
14.9297
2.72017
14.7295
2.78848
14.5245
2.84985
14.3154
2.90249
14.1032
2.94794
13.8884
2.98847
13.6716
3.02014
13.4534
3.044
13.2341
3.06199
13.014
3.07285
12.7936
3.07924
12.5727
3.08362
12.3517
3.08378
12.1308
3.08107
11.9099
3.07621
11.6897
3.06646
11.4706
3.05248
11.253
3.0359
11.0371
3.01533
10.8233
2.99271
10.6116
2.96911
10.402
2.94128
10.1947
2.90961
9.9895
2.87499
9.78634
2.83683
9.58559
2.79795
9.38732
2.75967
9.19187
2.72112
8.99955
2.68268
8.81017
2.64399
8.62359
2.60395
8.43989
2.56206
8.25915
2.5181
8.08185
2.47254
7.9084
2.42674
7.73893
2.38118
7.57355
2.33533
7.41221
2.28833
7.25461
2.23904
7.10038
2.18715
6.94933
2.13435
6.80139
2.08159
6.65678
2.02918
6.51571
1.97763
6.37817
1.92708
6.24411
1.87702
6.11347
1.82687
5.9862
1.77625
5.86234
1.72495
5.74202
1.67308
5.62541
1.62095
5.51263
1.56874
5.40379
1.51638
5.29899
1.46373
5.19824
1.4106
5.10152
1.35683
5.0088
1.30261
4.91995
1.24863
4.83472
1.19657
4.75288
1.14841
4.67454
1.0951
4.59977
1.03961
4.52863
0.983407
4.46122
0.92695
4.39758
0.870451
4.3378
0.813971
4.28197
0.75755
4.23023
0.700875
4.18269
0.643624
4.13944
0.585617
4.10052
0.526824
4.06597
0.467261
4.03581
0.406942
4.01012
0.345818
3.98899
0.283694
3.97255
0.220254
3.96099
0.155167
3.95448
0.0881442
3.95321
0.018783
3.95714
-0.05124
3.96599
-0.11968
3.97966
-0.190387
3.99797
-0.261867
4.02095
-0.334601
-0.409012
16.7936
-0.0349429
16.7753
0.272462
16.7361
0.580373
16.6772
0.872558
16.5999
1.14616
16.5058
1.39589
16.3964
1.6243
16.2729
1.832
16.1368
2.01998
15.9892
2.19233
15.8315
2.34706
15.6646
2.48856
15.4898
2.61475
15.3078
2.72789
15.1192
2.82732
14.9243
2.91503
14.7238
2.98898
14.5183
3.05533
14.3087
3.11213
14.0961
3.16057
13.881
3.20358
13.664
3.23713
13.4457
3.26227
13.2263
3.28144
13.0061
3.29303
12.7856
3.29974
12.5647
3.30454
12.3435
3.30494
12.1223
3.30223
11.9013
3.29728
11.6808
3.28693
11.4616
3.27174
11.2438
3.25367
11.0278
3.23131
10.814
3.20652
10.6024
3.18076
10.3928
3.15083
10.1856
3.11687
9.98031
3.08024
9.77694
3.0402
9.57586
2.99903
9.37726
2.95828
9.18147
2.91691
8.98886
2.87528
8.79927
2.83358
8.61252
2.7907
8.4287
2.74588
8.24793
2.69887
8.07064
2.64984
7.89731
2.60006
7.72808
2.55041
7.563
2.50042
7.40201
2.44932
7.24474
2.39631
7.09069
2.3412
6.93968
2.28536
6.79174
2.22953
6.64706
2.17386
6.5059
2.11879
6.3683
2.06468
6.23416
2.01116
6.10343
1.9576
5.97609
1.90359
5.85216
1.84889
5.73177
1.79347
5.61512
1.7376
5.50237
1.6815
5.39361
1.62514
5.28896
1.56838
5.18844
1.51112
5.09197
1.4533
4.99947
1.39511
4.91077
1.33733
4.82561
1.28172
4.7438
1.23022
4.66538
1.17352
4.59042
1.11458
4.51896
1.05486
4.45112
0.994787
4.38701
0.934565
4.32672
0.874261
4.27043
0.813839
4.21832
0.752984
4.17051
0.691443
4.12706
0.629067
4.08802
0.565855
4.05343
0.501851
4.02332
0.437061
3.99772
0.371414
3.97672
0.304691
3.96044
0.236538
3.94903
0.166578
3.94267
0.0945039
3.9415
0.0199485
3.94545
-0.0551881
3.95415
-0.128379
3.96746
-0.203691
3.98523
-0.279639
4.00758
-0.356957
-0.436338
16.79
-0.0367617
16.772
0.290502
16.7328
0.619541
16.6737
0.931683
16.5962
1.22365
16.5018
1.49025
16.3921
1.73399
16.2684
1.95577
16.1319
2.15645
15.9839
2.34031
15.8259
2.50512
15.6588
2.65562
15.4839
2.78963
15.302
2.90985
15.1133
3.01592
14.9185
3.10992
14.7177
3.18977
14.5118
3.26123
14.3016
3.32226
14.0885
3.37368
13.8731
3.419
13.6559
3.45433
13.4375
3.48072
13.2179
3.50099
12.9976
3.51334
12.777
3.52038
12.556
3.52555
12.3347
3.52624
12.1133
3.52356
11.8921
3.51847
11.6715
3.50754
11.4521
3.49116
11.2343
3.47152
11.0182
3.44737
10.8043
3.42039
10.5927
3.39238
10.3832
3.36039
10.1758
3.32423
9.97039
3.28564
9.76672
3.24387
9.56523
3.20051
9.36627
3.15724
9.17013
3.11305
8.97725
3.06817
8.7875
3.02333
8.60066
2.97754
8.41682
2.92971
8.23612
2.87958
8.05891
2.82705
7.88574
2.77324
7.71674
2.71941
7.55191
2.66525
7.39118
2.61005
7.23412
2.55337
7.08012
2.4952
6.92906
2.43642
6.78103
2.37756
6.63622
2.31867
6.49493
2.26008
6.35724
2.20237
6.22304
2.14536
6.09225
2.08838
5.96489
2.03096
5.84094
1.97283
5.72054
1.91387
5.60393
1.85422
5.49126
1.79416
5.38265
1.73375
5.27819
1.67284
5.17791
1.61141
5.08168
1.54952
4.98936
1.48743
4.90076
1.42592
4.81563
1.36686
4.73382
1.31203
4.65529
1.25205
4.5801
1.18977
4.50834
1.12663
4.44012
1.06301
4.37559
0.999099
4.31489
0.934959
4.25827
0.870461
4.20592
0.805333
4.15795
0.739409
4.11443
0.67259
4.07539
0.604894
4.04086
0.536383
4.01085
0.467068
3.9854
0.396867
3.96456
0.325533
3.94843
0.252671
3.93715
0.17785
3.9309
0.100759
3.92975
0.0210923
3.93355
-0.0589827
3.94186
-0.136691
3.95456
-0.216391
3.9716
-0.296678
3.99321
-0.37857
-0.46301
16.7867
-0.0389598
16.7686
0.30864
16.7293
0.658807
16.67
0.990999
16.5922
1.30137
16.4976
1.58488
16.3876
1.84397
16.2635
2.07987
16.1267
2.29329
15.9783
2.48865
15.8199
2.66353
15.6526
2.82296
15.4776
2.96464
15.2956
3.09184
15.107
3.20451
14.9121
3.30486
14.7111
3.3908
14.5048
3.4675
14.2942
3.53285
14.0806
3.58726
13.8649
3.63475
13.6474
3.67177
13.4287
3.69939
13.209
3.7207
12.9886
3.7338
12.7677
3.7412
12.5466
3.74669
12.3252
3.74766
12.1037
3.74502
11.8825
3.73971
11.6618
3.72818
11.4423
3.71066
11.2244
3.68943
11.0083
3.6635
10.7943
3.63439
10.5826
3.60406
10.373
3.57004
10.1654
3.53182
9.95969
3.49134
9.75562
3.44795
9.55366
3.40247
9.3543
3.35661
9.15784
3.30951
8.96471
3.26129
8.77487
3.21317
8.58805
3.16437
8.40429
3.11347
8.22375
3.06013
8.04671
3.00408
7.87371
2.94624
7.70494
2.88818
7.54031
2.82988
7.3797
2.77065
7.22271
2.71037
7.06864
2.64927
6.91741
2.58765
6.7692
2.52578
6.62421
2.46365
6.48273
2.40156
6.34493
2.34018
6.21069
2.2796
6.07991
2.21917
5.95256
2.1583
5.82868
2.09671
5.70836
2.03419
5.59184
1.97074
5.47932
1.90668
5.37091
1.84216
5.26667
1.77708
5.16661
1.71147
5.07059
1.64555
4.97839
1.57963
4.88982
1.51449
4.80466
1.45202
4.72282
1.39388
4.64414
1.33073
4.56873
1.26518
4.4967
1.19867
4.42816
1.13154
4.36332
1.06395
4.30236
0.995919
4.24557
0.927254
4.19314
0.857764
4.14516
0.787383
4.10169
0.716064
4.06275
0.643838
4.02835
0.57078
3.9985
0.496917
3.97321
0.422159
3.95252
0.346228
3.93651
0.268674
3.92533
0.18903
3.91909
0.106999
3.91781
0.0223766
3.92118
-0.0623594
3.92878
-0.144284
3.94061
-0.228224
3.95681
-0.312879
3.97767
-0.399427
-0.489031
16.7831
-0.041422
16.7649
0.326837
16.7255
0.698185
16.666
1.05052
16.5881
1.37932
16.4931
1.6798
16.3829
1.95426
16.2584
2.20429
16.1212
2.43051
15.9725
2.63737
15.8137
2.82232
15.6461
2.99061
15.4709
3.13982
15.2888
3.27392
15.1002
3.39313
14.9052
3.49984
14.704
3.59205
14.4974
3.6741
14.2864
3.74383
14.0724
3.80129
13.8563
3.85085
13.6385
3.8895
13.4196
3.91837
13.1996
3.94063
12.979
3.95448
12.7579
3.96227
12.5366
3.96798
12.3151
3.96919
12.0935
3.96657
11.8723
3.96094
11.6517
3.94875
11.4322
3.93017
11.2143
3.90735
10.9981
3.87968
10.784
3.84852
10.5722
3.81589
10.3623
3.7799
10.1543
3.73978
9.9482
3.69748
9.74363
3.65252
9.54114
3.60496
9.34135
3.5564
9.1446
3.50626
8.95129
3.45461
8.76144
3.40302
8.57474
3.35107
8.39117
3.29704
8.21088
3.24042
8.03408
3.18088
7.86126
3.11907
7.69266
3.05678
7.52816
2.99439
7.36756
2.93126
7.21046
2.86747
7.0562
2.80353
6.90469
2.73916
6.7562
2.67427
6.61097
2.60888
6.46928
2.54325
6.33134
2.47811
6.1971
2.41384
6.06637
2.3499
5.93912
2.28555
5.81538
2.22045
5.69522
2.15434
5.57887
2.08709
5.46656
2.01899
5.35839
1.95033
5.25438
1.88109
5.15452
1.81133
5.05864
1.74143
4.96649
1.67177
4.87788
1.6031
4.79264
1.53725
4.71073
1.4758
4.63189
1.40956
4.55626
1.34081