/*--------------------------------*- C++ -*----------------------------------*\
| =========                 |                                                 |
| \\      /  F ield         | OpenFOAM: The Open Source CFD Toolbox           |
|  \\    /   O peration     | Version:  4.1                                   |
|   \\  /    A nd           | Web:      www.OpenFOAM.org                      |
|    \\/     M anipulation  |                                                 |
\*---------------------------------------------------------------------------*/
FoamFile
{
    version     2.0;
    format      ascii;
    class       volVectorField;
    location    "3";
    object      U;
}
// * * * * * * * * * * * * * * * * * * * * * * * * * * * * * * * * * * * * * //

dimensions      [0 1 -1 0 0 0 0];

internalField   nonuniform List<vector> 
26785
(
(6.13836e-21 0.000234739 0.137342)
(-1.94865e-18 0.000233084 0.132136)
(-5.5468e-20 0.000231859 0.127117)
(2.53087e-17 0.000230604 0.122306)
(1.23797e-17 0.000229292 0.117689)
(-4.46463e-15 0.000227708 0.113255)
(-9.24634e-18 0.000225953 0.108998)
(-4.43384e-18 0.000223926 0.104909)
(2.03332e-15 0.000221779 0.100983)
(-1.84134e-15 0.000219431 0.0972114)
(-3.68289e-18 0.000217007 0.0935886)
(-3.60722e-21 0.000214414 0.0901078)
(-3.33171e-24 0.000211744 0.0867633)
(9.87805e-22 0.000208972 0.0835491)
(-4.93199e-19 0.00020605 0.0804602)
(-1.70725e-21 0.000203086 0.0774917)
(4.33434e-19 0.000199989 0.0746388)
(8.24195e-22 0.000196867 0.0718972)
(-1.78424e-19 0.000193683 0.0692623)
(1.25911e-16 0.000190489 0.0667296)
(-1.50012e-19 0.00018721 0.0642953)
(-1.73474e-19 0.000183992 0.061955)
(1.17831e-16 0.00018074 0.0597046)
(1.67022e-18 0.000177485 0.0575406)
(-1.28177e-15 0.000174315 0.0554591)
(-1.5705e-18 0.000171076 0.0534566)
(-1.25897e-21 0.000167889 0.0515301)
(5.1155e-19 0.000164764 0.0496761)
(-4.96097e-16 0.000161621 0.0478915)
(-4.86871e-16 0.00015853 0.0461737)
(-5.16601e-16 0.000155483 0.0445196)
(6.5723e-16 0.000152382 0.042927)
(6.72652e-19 0.000149331 0.0413938)
(-1.0477e-16 0.000146347 0.0399173)
(-9.26295e-16 0.000143328 0.0384954)
(-7.41386e-19 0.00014037 0.0371262)
(-2.91518e-22 0.000137421 0.0358077)
(-1.0039e-25 0.000134364 0.0345385)
(1.02939e-22 0.000131309 0.0333176)
(-2.93944e-19 0.000128263 0.0321433)
(4.43399e-16 0.000125228 0.0310141)
(3.15585e-19 0.000122363 0.0299278)
(4.78589e-19 0.000119675 0.0288818)
(-8.01202e-16 0.000117086 0.0278738)
(-3.05533e-19 0.000114569 0.0269021)
(-2.89336e-16 0.000112001 0.0259655)
(-1.80683e-19 0.000109318 0.0250638)
(-3.28315e-23 0.000106576 0.0241964)
(-3.39556e-20 0.000103878 0.0233624)
(-1.54383e-19 0.000101319 0.0225602)
(3.83183e-16 9.89209e-05 0.0217879)
(1.74506e-19 9.66287e-05 0.0210438)
(6.00963e-23 9.43448e-05 0.0203267)
(-2.55884e-20 9.19883e-05 0.0196361)
(2.64604e-20 8.95334e-05 0.0189719)
(9.41982e-20 8.70006e-05 0.0183341)
(-2.48584e-16 8.44467e-05 0.0177222)
(-9.33813e-20 8.1956e-05 0.0171356)
(1.37835e-19 7.95864e-05 0.0165728)
(-3.3813e-16 7.73508e-05 0.0160324)
(-1.14228e-19 7.52038e-05 0.0155134)
(-2.07413e-20 7.30647e-05 0.0150148)
(3.7937e-20 7.08864e-05 0.0145364)
(-1.27583e-16 6.8681e-05 0.0140779)
(-3.80336e-20 6.64811e-05 0.0136387)
(-5.6068e-24 6.43364e-05 0.0132183)
(2.05794e-25 6.22629e-05 0.0128158)
(1.19923e-23 6.02522e-05 0.0124305)
(-1.69005e-20 5.82746e-05 0.0120616)
(4.67959e-20 5.63003e-05 0.0117088)
(-1.9739e-16 5.43217e-05 0.0113717)
(-5.73197e-20 5.23334e-05 0.0110497)
(-1.24317e-23 5.0344e-05 0.0107425)
(-1.29219e-24 4.83635e-05 0.0104493)
(-2.48042e-20 4.64607e-05 0.0101693)
(1.5503e-16 4.45794e-05 0.00990242)
(3.26834e-20 4.27165e-05 0.00964872)
(2.5585e-24 4.08741e-05 0.00940801)
(1.21952e-21 3.90579e-05 0.00917998)
(-3.55261e-27 3.72642e-05 0.0089643)
(9.29561e-21 3.54891e-05 0.00876065)
(-5.24197e-17 3.37341e-05 0.00856869)
(-9.67887e-21 3.19921e-05 0.00838815)
(1.07955e-20 3.02506e-05 0.00821879)
(-4.13432e-17 2.85027e-05 0.0080604)
(-6.1763e-21 2.67484e-05 0.00791283)
(-3.5866e-21 2.4988e-05 0.00777591)
(9.79909e-21 2.32152e-05 0.00764954)
(-6.38244e-17 2.14264e-05 0.0075336)
(-1.03735e-20 1.96267e-05 0.00742797)
(-8.48542e-25 1.78198e-05 0.00733252)
(-2.10017e-28 1.60097e-05 0.00724712)
(1.47693e-24 1.42075e-05 0.00717158)
(-2.23186e-21 1.24073e-05 0.00710576)
(-1.22544e-21 1.05924e-05 0.00704948)
(8.67889e-18 8.73898e-06 0.00700245)
(5.9032e-22 6.85266e-06 0.00696457)
(-3.83294e-25 4.91976e-06 0.00693602)
(-5.92872e-29 2.9366e-06 0.00691687)
(-4.49924e-33 9.42098e-07 0.00690706)
(7.61442e-18 0.000703654 0.137335)
(-2.66406e-15 0.000699235 0.132134)
(-7.1663e-18 0.000695567 0.127116)
(-4.61941e-18 0.000691813 0.122304)
(2.40199e-15 0.000687865 0.117687)
(-2.22375e-15 0.000683144 0.113253)
(2.14594e-15 0.000677843 0.108996)
(9.24298e-18 0.000671786 0.104907)
(-2.03537e-15 0.000665297 0.100981)
(-5.06125e-18 0.00065829 0.0972093)
(-5.75751e-21 0.000650987 0.0935865)
(-2.4423e-24 0.00064326 0.0901057)
(-2.51889e-21 0.000635195 0.0867611)
(2.74748e-18 0.00062693 0.0835469)
(-1.58431e-15 0.000618113 0.080458)
(-5.05911e-18 0.000609269 0.0774895)
(1.5343e-15 0.000599981 0.0746366)
(1.98945e-18 0.000590601 0.071895)
(1.62028e-19 0.000581034 0.06926)
(-1.32386e-16 0.000571446 0.0667273)
(-1.39629e-15 0.000561612 0.064293)
(-1.19938e-16 0.000551968 0.0619527)
(-1.34059e-15 0.000542242 0.0597023)
(-1.75803e-18 0.000532455 0.0575383)
(3.54971e-19 0.000522958 0.0554568)
(-5.68052e-16 0.000513244 0.0534543)
(-8.15136e-19 0.000503651 0.0515278)
(-8.4247e-22 0.000494293 0.0496738)
(3.84578e-19 0.000484858 0.0478893)
(-4.88052e-16 0.000475559 0.0461715)
(5.15222e-16 0.000466447 0.0445174)
(6.53273e-19 0.000457148 0.0429248)
(-5.793e-20 0.000447958 0.0413916)
(3.29127e-19 0.000439033 0.0399151)
(-4.84607e-16 0.000429989 0.0384932)
(-3.87416e-19 0.000421084 0.037124)
(-1.57392e-22 0.000412275 0.0358054)
(-6.52548e-26 0.000403118 0.0345362)
(4.48171e-24 0.000393902 0.0333153)
(4.14096e-23 0.000384783 0.0321411)
(-1.18375e-19 0.00037568 0.0310119)
(2.75765e-16 0.000367051 0.0299257)
(-3.06497e-19 0.00035902 0.0288798)
(8.04103e-16 0.000351286 0.0278718)
(4.68494e-19 0.00034372 0.0269001)
(1.0383e-19 0.000336011 0.0259635)
(-2.54722e-16 0.000327924 0.0250617)
(6.16421e-20 0.000319652 0.0241943)
(-3.95421e-16 0.000311558 0.0233604)
(2.71668e-16 0.000303927 0.0225583)
(-2.69194e-16 0.000296774 0.021786)
(-1.23629e-19 0.000289915 0.0210419)
(1.42392e-19 0.00028307 0.0203248)
(-3.40512e-16 0.000275992 0.0196342)
(3.62853e-16 0.000268602 0.0189699)
(2.54535e-19 0.000260975 0.0183321)
(-3.53968e-16 0.000253283 0.0177203)
(-2.32962e-19 0.0002458 0.0171336)
(3.45699e-16 0.000238729 0.0165709)
(1.11696e-19 0.000232063 0.0160306)
(1.05267e-19 0.000225638 0.0155116)
(-3.31592e-16 0.000219213 0.0150131)
(-1.36248e-19 0.00021265 0.0145346)
(1.04146e-16 0.000206003 0.0140761)
(2.56889e-20 0.000199414 0.0136369)
(-1.17886e-23 0.000192992 0.0132165)
(6.37972e-21 0.000186791 0.0128141)
(7.88609e-20 0.000180768 0.0124288)
(-3.12105e-16 0.000174828 0.01206)
(-7.97124e-20 0.000168909 0.0117072)
(3.28588e-20 0.000162978 0.01137)
(-1.95082e-16 0.000157018 0.011048)
(-4.42112e-20 0.000151049 0.0107409)
(-2.59671e-20 0.000145112 0.0104477)
(1.45237e-16 0.000139389 0.0101677)
(-1.42934e-16 0.000133736 0.00990083)
(-3.02323e-20 0.000128147 0.00964714)
(-5.43631e-21 0.00012262 0.00940644)
(2.84382e-17 0.000117161 0.00917843)
(5.59004e-21 0.000111777 0.00896277)
(7.53549e-21 0.000106459 0.00875913)
(-4.21086e-17 0.000101195 0.00856718)
(-2.53412e-20 9.59637e-05 0.00838665)
(9.15982e-17 9.07406e-05 0.00821729)
(9.67591e-21 8.55062e-05 0.00805889)
(2.76199e-17 8.02484e-05 0.00791131)
(-8.93167e-17 7.49591e-05 0.00777439)
(-2.46851e-20 6.96312e-05 0.00764801)
(6.37262e-17 6.42601e-05 0.00753205)
(8.00022e-21 5.88544e-05 0.00742641)
(-2.37231e-24 5.34358e-05 0.00733097)
(5.36387e-25 4.80205e-05 0.00724557)
(7.8805e-21 4.26131e-05 0.00717003)
(-6.08116e-17 3.72069e-05 0.0071042)
(-9.36425e-21 3.17756e-05 0.0070479)
(3.15366e-21 2.62427e-05 0.00700084)
(-2.03928e-17 2.05588e-05 0.00696293)
(-3.06895e-21 1.4738e-05 0.00693434)
(-2.34546e-25 8.81156e-06 0.00691516)
(-1.20619e-29 2.85392e-06 0.0069054)
(-7.38594e-18 0.00117265 0.137331)
(2.58248e-15 0.00116536 0.13213)
(3.13062e-17 0.00115926 0.127112)
(2.40115e-15 0.00115301 0.122301)
(2.37899e-15 0.00114643 0.117683)
(-2.19231e-15 0.00113855 0.113249)
(2.15177e-15 0.00112971 0.108992)
(3.94128e-18 0.00111962 0.104903)
(-1.00768e-18 0.00110879 0.100977)
(-1.87622e-21 0.00109713 0.0972052)
(-1.92792e-24 0.00108494 0.0935823)
(9.72648e-23 0.0010721 0.0901014)
(1.16126e-22 0.00105864 0.0867568)
(-4.11758e-20 0.0010449 0.0835425)
(-8.16813e-19 0.00103019 0.0804536)
(1.35718e-16 0.00101545 0.077485)
(1.53714e-15 0.00099995 0.0746321)
(-1.49191e-15 0.000984291 0.0718904)
(-1.37545e-16 0.000968317 0.0692555)
(1.75427e-16 0.000952347 0.0667228)
(-3.80514e-18 0.000935992 0.0642884)
(2.7324e-15 0.000919936 0.0619481)
(3.85772e-18 0.000903783 0.0596977)
(-5.93106e-16 0.000887453 0.0575338)
(-1.02817e-19 0.000871614 0.0554523)
(-5.19879e-16 0.000855422 0.0534497)
(-1.19198e-15 0.000839382 0.0515233)
(-1.2701e-18 0.000823794 0.0496693)
(-6.30504e-22 0.000808085 0.0478848)
(-1.03104e-19 0.000792538 0.046167)
(-2.70431e-19 0.000777354 0.0445129)
(4.66386e-16 0.000761884 0.0429203)
(-4.61116e-16 0.000746523 0.0413871)
(-4.52203e-16 0.00073167 0.0399107)
(-5.10502e-19 0.000716646 0.0384888)
(3.33794e-20 0.00070177 0.0371197)
(-8.26556e-20 0.000687125 0.035801)
(-3.50942e-22 0.00067191 0.0345318)
(7.50485e-20 0.000656488 0.0333109)
(-7.11762e-20 0.000641295 0.0321366)
(-3.20332e-22 0.000626146 0.0310076)
(1.15061e-19 0.000611708 0.0299215)
(2.24053e-22 0.000598336 0.0288757)
(8.61943e-20 0.00058548 0.0278678)
(-6.37933e-23 0.000572829 0.0268961)
(-7.19045e-23 0.000559932 0.0259594)
(-3.89222e-21 0.000546411 0.0250575)
(5.75382e-20 0.000532602 0.0241901)
(-4.62712e-20 0.000519151 0.0233563)
(6.83989e-21 0.000506507 0.0225544)
(-3.03727e-20 0.000494636 0.0217823)
(-1.6356e-20 0.000483211 0.0210382)
(1.52689e-20 0.000471799 0.020321)
(-1.37773e-20 0.000459989 0.0196303)
(1.75403e-19 0.000447632 0.018966)
(-3.58499e-16 0.000434878 0.0183281)
(-3.07857e-19 0.000422038 0.0177163)
(3.23259e-16 0.000409576 0.0171298)
(4.10588e-20 0.000397843 0.0165672)
(3.12813e-16 0.000386779 0.0160271)
(1.05913e-19 0.000376061 0.0155081)
(-2.18494e-20 0.000365318 0.0150095)
(2.99727e-23 0.000354347 0.014531)
(3.81867e-20 0.000343256 0.0140724)
(-1.02803e-16 0.000332301 0.0136333)
(-5.81731e-20 0.000321636 0.013213)
(1.22978e-16 0.000311322 0.0128107)
(2.77243e-20 0.000301294 0.0124254)
(-2.14685e-20 0.000291396 0.0120566)
(2.37601e-23 0.000281528 0.0117038)
(-3.01793e-21 0.000271648 0.0113666)
(-1.78246e-20 0.00026173 0.0110447)
(2.64885e-17 0.000251789 0.0107375)
(1.03037e-16 0.000241902 0.0104444)
(2.52447e-20 0.000232341 0.0101645)
(-2.04056e-21 0.000222896 0.00989763)
(2.42972e-23 0.000213557 0.00964398)
(-1.09447e-21 0.000204329 0.00940331)
(1.46065e-21 0.000195217 0.00917533)
(-1.50362e-24 0.000186229 0.0089597)
(-3.14994e-24 0.000177358 0.00875609)
(6.93691e-21 0.00016858 0.00856417)
(-5.22255e-17 0.00015986 0.00838364)
(-7.11589e-21 0.000151154 0.00821428)
(-8.6878e-24 0.000142431 0.00805588)
(1.23361e-21 0.000133674 0.00790828)
(-2.07197e-21 0.00012486 0.00777134)
(1.13699e-23 0.00011598 0.00764494)
(1.22238e-20 0.000107036 0.00752896)
(-6.30038e-17 9.80369e-05 0.00742331)
(-8.58885e-21 8.90135e-05 0.00732787)
(2.59749e-21 8.00103e-05 0.00724247)
(-2.38309e-17 7.10411e-05 0.00716693)
(-5.97026e-21 6.20579e-05 0.0071011)
(1.75935e-24 5.30062e-05 0.00704477)
(2.99729e-21 4.37789e-05 0.00699763)
(-1.83174e-17 3.43284e-05 0.00695963)
(-2.3312e-21 2.4637e-05 0.00693098)
(6.26917e-25 1.47777e-05 0.00691177)
(3.71895e-27 4.85329e-06 0.00690207)
(7.46948e-20 0.00164165 0.137329)
(-3.61953e-17 0.00163144 0.132125)
(2.49002e-15 0.00162293 0.127107)
(2.41007e-15 0.00161417 0.122295)
(2.05366e-18 0.00160499 0.117678)
(2.22156e-15 0.00159393 0.113244)
(1.1823e-17 0.00158155 0.108986)
(-1.95527e-15 0.00156743 0.104897)
(-4.21082e-18 0.00155226 0.10097)
(-4.57482e-21 0.00153593 0.097199)
(-1.65551e-21 0.00151886 0.093576)
(5.38343e-19 0.00150092 0.090095)
(3.05084e-19 0.0014821 0.0867504)
(-1.71445e-16 0.00146288 0.083536)
(-2.89302e-19 0.0014423 0.080447)
(6.91201e-20 0.00142162 0.0774783)
(-1.67131e-18 0.00139986 0.0746253)
(1.44276e-15 0.00137789 0.0718836)
(-1.4613e-15 0.00135549 0.0692486)
(-2.02694e-18 0.00133316 0.0667159)
(-1.81584e-18 0.00131037 0.0642815)
(1.36407e-15 0.00128792 0.0619413)
(1.74002e-18 0.00126537 0.0596908)
(-1.65062e-19 0.00124251 0.0575269)
(-3.13509e-23 0.00122026 0.0554454)
(-1.36648e-19 0.00119759 0.0534429)
(-3.68224e-19 0.00117509 0.0515165)
(5.95814e-20 0.00115324 0.0496626)
(3.97412e-22 0.00113128 0.047878)
(-4.51969e-19 0.00110946 0.0461603)
(4.71135e-16 0.00108815 0.0445062)
(5.07311e-16 0.00106655 0.0429136)
(3.54878e-19 0.00104503 0.0413805)
(3.47694e-19 0.00102422 0.0399041)
(-4.82565e-16 0.00100327 0.0384822)
(3.39025e-16 0.000982441 0.0371131)
(-8.93929e-16 0.000961933 0.0357944)
(-1.28652e-18 0.000940729 0.0345251)
(8.68413e-16 0.000919109 0.0333042)
(-8.53054e-16 0.000897799 0.03213)
(-1.18434e-18 0.000876642 0.031001)
(9.58009e-16 0.000856376 0.0299152)
(7.45834e-19 0.000837602 0.0288696)
(-2.95202e-16 0.000819598 0.0278618)
(-1.72693e-19 0.000801795 0.0268901)
(-2.16801e-19 0.000783646 0.0259533)
(4.05824e-16 0.000764706 0.0250512)
(8.76529e-16 0.000745434 0.0241839)
(6.296e-19 0.0007267 0.0233502)
(-3.89474e-16 0.000709068 0.0225486)
(-6.37372e-20 0.000692482 0.0217766)
(-2.65906e-16 0.000676473 0.0210326)
(2.60866e-16 0.000660465 0.0203154)
(3.69782e-16 0.000643911 0.0196245)
(1.51767e-19 0.000626566 0.01896)
(1.13013e-19 0.000608669 0.018322)
(-3.56297e-16 0.000590717 0.0177103)
(3.47725e-16 0.000573321 0.017124)
(-4.47941e-21 0.000556932 0.0165616)
(3.40738e-16 0.000541451 0.0160217)
(7.46101e-20 0.000526397 0.0155027)
(1.07228e-16 0.000511298 0.0150041)
(3.42533e-20 0.000495932 0.0145256)
(1.11416e-24 0.000480437 0.014067)
(-3.73238e-20 0.000465149 0.013628)
(1.02326e-16 0.000450279 0.0132078)
(-9.93012e-17 0.00043586 0.0128056)
(-1.2256e-16 0.000421823 0.0124204)
(-3.23379e-20 0.000407978 0.0120516)
(9.29435e-21 0.000394166 0.0116988)
(-7.44262e-17 0.000380342 0.0113616)
(-4.11896e-20 0.000366481 0.0110397)
(1.02898e-16 0.00035259 0.0107325)
(-1.8964e-16 0.000338758 0.0104395)
(-1.56611e-16 0.000325323 0.0101596)
(1.54085e-16 0.000312059 0.00989283)
(3.915e-20 0.000298938 0.00963922)
(-2.91497e-17 0.000285977 0.0093986)
(-5.88398e-21 0.000273186 0.00917067)
(1.99496e-21 0.000260576 0.00895509)
(1.8121e-23 0.000248137 0.00875153)
(-3.94711e-21 0.000235836 0.00855964)
(6.15542e-21 0.000223619 0.00837913)
(-5.23712e-17 0.000211426 0.00820977)
(-1.25601e-20 0.000199213 0.00805136)
(-8.05424e-21 0.000186963 0.00790374)
(5.03309e-17 0.000174647 0.00776677)
(8.45817e-21 0.000162234 0.00764034)
(9.44642e-21 0.000149725 0.00752434)
(-6.24934e-17 0.000137157 0.00741867)
(4.28057e-17 0.000124576 0.00732322)
(-2.42206e-17 0.000112023 0.00723784)
(-2.3744e-17 9.95056e-05 0.00716231)
(-3.72251e-21 8.6965e-05 0.00709645)
(-1.6458e-21 7.43216e-05 0.00704005)
(1.15448e-17 6.14155e-05 0.00699282)
(2.01572e-22 4.81914e-05 0.00695472)
(1.16154e-17 3.46582e-05 0.00692596)
(1.53453e-21 2.0881e-05 0.00690668)
(1.37076e-22 6.95651e-06 0.006897)
(7.59885e-20 0.00211055 0.137331)
(-2.49336e-17 0.00209747 0.132118)
(-4.68018e-18 0.00208655 0.127099)
(2.40701e-15 0.00207531 0.122288)
(1.14933e-17 0.0020635 0.11767)
(-2.2312e-15 0.00204929 0.113236)
(2.15054e-15 0.00203334 0.108978)
(4.55112e-18 0.00201519 0.104889)
(8.48548e-21 0.00199564 0.100962)
(-6.7015e-19 0.00197468 0.0971907)
(-3.34253e-18 0.00195271 0.0935676)
(1.71446e-15 0.00192972 0.0900865)
(2.51182e-19 0.00190555 0.0867418)
(1.62534e-15 0.00188087 0.0835272)
(2.56365e-18 0.00185442 0.0804381)
(1.3798e-16 0.00182777 0.0774694)
(2.16733e-19 0.00179969 0.0746163)
(2.60193e-19 0.00177138 0.0718745)
(-5.25465e-19 0.00174253 0.0692395)
(2.25509e-19 0.00171388 0.0667067)
(3.9457e-19 0.00168473 0.0642723)
(-1.19962e-16 0.00165593 0.0619321)
(2.15664e-20 0.00162702 0.0596816)
(7.09e-20 0.00159762 0.0575178)
(-1.43595e-19 0.00156889 0.0554363)
(6.20314e-19 0.00153975 0.0534337)
(-5.61344e-16 0.00151078 0.0515074)
(5.04939e-16 0.00148261 0.0496535)
(5.2116e-19 0.0014544 0.047869)
(-4.18262e-20 0.00142629 0.0461513)
(1.12752e-19 0.00139881 0.0444973)
(7.87379e-20 0.00137112 0.0429046)
(-3.90118e-19 0.00134346 0.0413716)
(4.54627e-16 0.00131666 0.0398953)
(-4.85212e-16 0.00128985 0.0384734)
(-2.85695e-19 0.00126309 0.0371043)
(-1.75881e-19 0.00123669 0.0357856)
(1.1157e-22 0.00120956 0.0345161)
(1.60371e-19 0.00118176 0.0332952)
(-1.53208e-19 0.00115429 0.0321211)
(-1.85916e-20 0.00112715 0.0309922)
(4.08668e-19 0.00110105 0.0299067)
(-4.28571e-16 0.00107681 0.0288614)
(-3.26524e-19 0.0010536 0.0278538)
(-1.48541e-22 0.00103057 0.026882)
(4.03724e-23 0.00100713 0.0259451)
(5.97835e-20 0.000982793 0.0250429)
(1.24206e-19 0.000958131 0.0241756)
(1.85986e-19 0.000934183 0.0233422)
(-3.88123e-16 0.000911589 0.0225408)
(-1.33847e-20 0.000890287 0.0217691)
(-3.79303e-16 0.000869685 0.0210252)
(-1.34138e-19 0.000849045 0.0203078)
(4.42327e-20 0.000827715 0.0196168)
(-1.39205e-19 0.000805363 0.0189521)
(3.58184e-16 0.000782312 0.018314)
(9.85699e-20 0.000759281 0.0177024)
(1.49919e-19 0.000736996 0.0171163)
(-3.20282e-16 0.000715956 0.0165543)
(-3.32788e-20 0.000696034 0.0160145)
(-1.35146e-16 0.000676612 0.0154956)
(1.31888e-16 0.000657132 0.014997)
(4.178e-20 0.000637389 0.0145184)
(3.39126e-24 0.000617536 0.0140598)
(1.45182e-19 0.000597956 0.0136209)
(-5.37974e-16 0.000578909 0.0132009)
(-1.30769e-19 0.00056041 0.0127988)
(-1.22354e-16 0.000542361 0.0124137)
(1.92009e-20 0.000524568 0.012045)
(-2.11979e-16 0.000506835 0.0116922)
(-5.98371e-20 0.000489082 0.011355)
(-3.14718e-21 0.000471291 0.011033)
(1.55683e-17 0.000453463 0.0107258)
(-1.02115e-16 0.000435695 0.0104329)
(-1.02115e-16 0.000418341 0.0101531)
(-1.43823e-16 0.000401214 0.0098864)
(2.82861e-17 0.000384272 0.00963285)
(-2.84746e-17 0.000367544 0.0093923)
(-1.55618e-20 0.000351047 0.00916444)
(5.31504e-17 0.000334795 0.00894895)
(2.89532e-20 0.000318777 0.00874544)
(-1.05976e-16 0.00030294 0.0085536)
(-2.56599e-21 0.000287212 0.00837312)
(-9.21487e-17 0.000271533 0.00820376)
(-9.06708e-17 0.000255856 0.00804534)
(-2.04726e-20 0.00024013 0.0078977)
(2.32189e-21 0.000224313 0.00776069)
(-4.6009e-24 0.000208379 0.00763422)
(-9.51309e-21 0.000192341 0.00751818)
(6.26526e-17 0.000176237 0.0074125)
(1.33647e-20 0.000160129 0.00731706)
(5.11436e-21 0.000144066 0.00723168)
(-4.21763e-17 0.000128038 0.00715615)
(-6.50337e-21 0.000111955 0.00709027)
(-7.9728e-22 9.57092e-05 0.00703379)
(1.19298e-17 7.91355e-05 0.00698641)
(1.80118e-17 6.21473e-05 0.00694815)
(3.90388e-21 4.4775e-05 0.00691927)
(-5.86128e-18 2.70851e-05 0.0068999)
(3.64743e-18 9.13355e-06 0.00689016)
(-7.64392e-18 0.00257925 0.137283)
(2.66587e-15 0.00256342 0.132108)
(8.87791e-18 0.00255012 0.12709)
(-1.92278e-17 0.00253641 0.122279)
(-4.12646e-20 0.00252197 0.117661)
(-7.38804e-18 0.00250459 0.113226)
(2.11448e-15 0.00248508 0.108968)
(2.06307e-15 0.0024629 0.104879)
(7.83294e-18 0.00243896 0.100952)
(-1.97056e-15 0.00241337 0.0971804)
(-6.74982e-18 0.0023865 0.0935571)
(1.74597e-15 0.00235848 0.0900759)
(3.23216e-18 0.00232899 0.086731)
(7.38643e-19 0.00229885 0.0835163)
(1.7739e-21 0.00226656 0.0804271)
(-2.43647e-19 0.00223386 0.0774582)
(2.3121e-18 0.00219942 0.0746049)
(-1.49559e-15 0.00216474 0.0718631)
(-4.25874e-18 0.00212944 0.0692281)
(1.42857e-15 0.00209449 0.0666953)
(1.58842e-15 0.0020591 0.0642609)
(3.47626e-19 0.00202396 0.0619207)
(1.33375e-15 0.00198871 0.0596702)
(5.56368e-16 0.00195279 0.0575063)
(-1.23754e-15 0.00191749 0.0554248)
(-1.41717e-18 0.00188187 0.0534222)
(-2.11433e-19 0.00184645 0.0514961)
(9.69375e-20 0.00181188 0.0496422)
(5.24734e-19 0.00177742 0.0478577)
(-4.89092e-16 0.00174305 0.0461401)
(-3.31382e-20 0.00170935 0.0444861)
(-4.71904e-16 0.00167558 0.0428934)
(-4.20541e-19 0.00164183 0.0413605)
(-2.90883e-19 0.00160898 0.0398843)
(4.80485e-16 0.00157633 0.0384624)
(4.76404e-16 0.00154369 0.0370934)
(3.66974e-19 0.00151137 0.0357747)
(1.38997e-22 0.00147835 0.034505)
(-5.84894e-23 0.00144442 0.033284)
(2.07435e-19 0.00141074 0.03211)
(-3.10889e-16 0.00137764 0.0309813)
(-3.06233e-16 0.00134572 0.0298962)
(-2.9849e-20 0.00131593 0.0288512)
(-4.21283e-16 0.00128744 0.0278437)
(-2.44431e-19 0.00125912 0.0268719)
(-6.97037e-23 0.00123035 0.0259348)
(-9.89516e-23 0.00120067 0.0250325)
(1.34668e-20 0.0011707 0.0241652)
(1.30586e-20 0.00114161 0.0233321)
(-3.44327e-20 0.00111407 0.0225311)
(2.37894e-20 0.00108803 0.0217597)
(-3.1303e-20 0.00106281 0.0210158)
(2.09487e-22 0.00103749 0.0202984)
(2.51491e-24 0.00101134 0.0196071)
(5.33806e-23 0.000983964 0.0189421)
(4.38326e-20 0.000955765 0.018304)
(-1.49999e-22 0.000927696 0.0176924)
(1.31122e-19 0.000900578 0.0171067)
(-3.46219e-16 0.000874889 0.016545)
(-1.20478e-19 0.00085049 0.0160055)
(-5.60863e-20 0.000826672 0.0154867)
(1.31876e-16 0.000802799 0.014988)
(4.16173e-20 0.000778702 0.0145093)
(3.97842e-20 0.000754553 0.0140508)
(-1.0435e-16 0.000730725 0.0136121)
(-2.95348e-16 0.000707523 0.0131922)
(-1.24256e-16 0.000684961 0.0127903)
(-1.2309e-16 0.00066291 0.0124053)
(4.30001e-22 0.000641177 0.0120366)
(-1.07455e-16 0.000619536 0.0116839)
(-7.50526e-17 0.000597866 0.0113466)
(-1.79063e-20 0.000576152 0.0110247)
(-5.03225e-22 0.000554397 0.0107175)
(-2.91804e-20 0.000532694 0.0104246)
(1.17249e-16 0.000511384 0.010145)
(1.78161e-20 0.000490345 0.00987834)
(-1.67172e-20 0.000469534 0.00962487)
(1.40001e-16 0.000449006 0.00938441)
(2.81162e-20 0.000428787 0.00915665)
(3.2563e-21 0.000408873 0.00894125)
(-7.70115e-21 0.00038925 0.00873783)
(5.27171e-17 0.000369865 0.00854605)
(4.30231e-17 0.000350633 0.0083656)
(1.43857e-16 0.000331481 0.00819625)
(-4.13317e-17 0.000312347 0.00803782)
(-1.41272e-16 0.000293163 0.00789015)
(-2.39607e-20 0.000273868 0.0077531)
(-1.2117e-23 0.000254438 0.00762658)
(2.21046e-21 0.0002349 0.00751051)
(-3.7124e-21 0.000215306 0.00740482)
(4.37191e-17 0.000195712 0.00730938)
(9.70604e-21 0.000176169 0.00722403)
(-1.94624e-17 0.000156659 0.0071485)
(-6.4341e-21 0.000137041 0.00708254)
(2.36817e-17 0.000117183 0.00702594)
(1.16337e-17 9.69146e-05 0.0069784)
(2.79727e-21 7.61819e-05 0.00693997)
(-1.92471e-22 5.49703e-05 0.00691092)
(5.81522e-18 3.33451e-05 0.0068914)
(2.83003e-18 1.13389e-05 0.0068815)
(2.15152e-18 0.00304769 0.13727)
(-4.85387e-18 0.00302928 0.132097)
(2.49616e-15 0.00301361 0.127079)
(-1.2804e-17 0.00299746 0.122268)
(5.09253e-18 0.00298039 0.11765)
(-2.08441e-15 0.00295984 0.113215)
(-3.54665e-18 0.00293676 0.108957)
(4.79479e-18 0.00291055 0.104867)
(-2.00117e-15 0.00288221 0.10094)
(-1.85373e-15 0.002852 0.097168)
(1.9111e-15 0.00282022 0.0935446)
(4.55473e-18 0.00278719 0.0900631)
(4.21234e-21 0.00275242 0.0867181)
(-2.10329e-21 0.00271679 0.0835032)
(2.57698e-18 0.00267868 0.0804138)
(-1.54469e-15 0.00263989 0.0774448)
(-5.00384e-18 0.00259902 0.0745913)
(1.64636e-15 0.00255797 0.0718495)
(4.46011e-19 0.00251623 0.0692144)
(1.38432e-15 0.00247501 0.0666816)
(-1.39654e-15 0.00243346 0.0642472)
(-2.57619e-18 0.00239201 0.061907)
(5.6579e-16 0.0023504 0.0596564)
(9.96191e-19 0.00230797 0.0574925)
(-4.03266e-19 0.00226603 0.0554111)
(6.17301e-19 0.00222393 0.0534085)
(-5.57445e-16 0.00218206 0.0514824)
(-5.51305e-16 0.00214107 0.0496287)
(5.38745e-16 0.00210033 0.0478442)
(-5.25913e-16 0.00205972 0.0461267)
(-5.02496e-19 0.00201977 0.0444727)
(-1.25146e-19 0.00197992 0.0428801)
(4.18021e-23 0.00194012 0.0413473)
(2.12565e-22 0.00190118 0.0398711)
(-2.3243e-19 0.00186268 0.0384493)
(4.37147e-16 0.00182423 0.0370803)
(3.37652e-19 0.00178595 0.0357615)
(1.28128e-22 0.00174705 0.0344916)
(-7.3104e-23 0.00170704 0.0332706)
(2.07626e-19 0.00166714 0.0320967)
(-3.11533e-16 0.00162808 0.0309682)
(-9.65108e-20 0.00159037 0.0298835)
(-3.03735e-16 0.00155497 0.0288389)
(-2.61319e-19 0.00152111 0.0278316)
(1.43211e-23 0.00148744 0.0268598)
(5.56821e-23 0.00145334 0.0259225)
(-2.04756e-19 0.00141837 0.0250201)
(3.97824e-16 0.00138315 0.0241529)
(3.94674e-16 0.00134898 0.0233201)
(6.61395e-16 0.00131649 0.0225195)
(7.38732e-16 0.00128567 0.0217484)
(6.42242e-16 0.00125579 0.0210046)
(2.83402e-19 0.00122574 0.0202871)
(6.1589e-23 0.00119471 0.0195954)
(-2.0289e-26 0.0011623 0.0189302)
(1.17417e-22 0.00112898 0.0182919)
(-1.25349e-19 0.00109593 0.0176806)
(3.23842e-16 0.00106403 0.0170952)
(-3.45554e-16 0.0010337 0.0165339)
(-1.12508e-19 0.00100478 0.0159947)
(8.65662e-23 0.00097655 0.015476)
(1.44968e-20 0.000948298 0.0149772)
(-9.62358e-20 0.00091988 0.0144986)
(3.25026e-16 0.000891486 0.0140401)
(5.70303e-20 0.00086346 0.0136015)
(1.02168e-16 0.000836123 0.0131818)
(-9.91282e-17 0.00080951 0.0127801)
(-9.9758e-17 0.000783469 0.0123953)
(2.12926e-16 0.000757799 0.0120267)
(1.55966e-20 0.000732258 0.0116739)
(1.22524e-16 0.00070668 0.0113367)
(4.33817e-20 0.000681045 0.0110147)
(-6.21333e-17 0.000655371 0.0107075)
(1.03402e-16 0.000629733 0.0104147)
(-2.88742e-17 0.000604412 0.0101352)
(7.21234e-17 0.000579418 0.00986862)
(2.83516e-16 0.000554714 0.00961525)
(-2.98147e-17 0.00053036 0.00937491)
(-5.96179e-21 0.000506393 0.00914728)
(-9.67752e-21 0.000482804 0.00893199)
(5.35824e-17 0.000459567 0.00872868)
(-3.83513e-21 0.000436627 0.00853698)
(8.31148e-17 0.000413898 0.00835658)
(9.39424e-17 0.000391293 0.00818726)
(1.71288e-20 0.000368716 0.00802882)
(-7.20896e-21 0.000346086 0.00788112)
(2.33194e-23 0.000323342 0.00774402)
(-9.71801e-21 0.000300448 0.00761745)
(6.34051e-17 0.000277439 0.00750135)
(6.92982e-21 0.000254393 0.00739564)
(1.97877e-17 0.000231371 0.00730022)
(7.69367e-21 0.000208383 0.00721487)
(-4.21561e-17 0.000185376 0.00713931)
(-5.11073e-21 0.000162207 0.00707328)
(-9.28809e-22 0.000138724 0.00701653)
(2.11577e-17 0.000114746 0.00696879)
(1.14647e-17 9.02146e-05 0.00693014)
(1.60469e-17 6.5138e-05 0.00690089)
(2.44915e-21 3.95674e-05 0.00688118)
(2.5572e-18 1.35106e-05 0.00687103)
(2.72377e-15 0.00351644 0.13726)
(7.664e-18 0.00349505 0.132084)
(-2.27315e-17 0.00347701 0.127066)
(2.40036e-15 0.00345844 0.122255)
(6.0435e-18 0.00343875 0.117637)
(-1.37001e-18 0.00341504 0.113202)
(5.53041e-18 0.00338836 0.108943)
(-2.05851e-15 0.00335813 0.104853)
(-5.60947e-18 0.00332537 0.100926)
(-5.27414e-19 0.00329057 0.0971535)
(1.05158e-18 0.00325387 0.0935299)
(1.16072e-21 0.00321584 0.0900483)
(-1.61288e-24 0.00317581 0.0867031)
(2.31258e-21 0.00313467 0.0834879)
(-2.57716e-18 0.00309074 0.0803983)
(1.54427e-15 0.00304584 0.077429)
(2.46094e-18 0.00299851 0.0745755)
(5.35322e-19 0.00295108 0.0718335)
(-1.54522e-19 0.00290292 0.0691985)
(5.49964e-19 0.00285543 0.0666657)
(-5.46971e-19 0.00280782 0.0642313)
(-1.64259e-18 0.00276005 0.0618911)
(1.27898e-15 0.00271206 0.0596403)
(1.31109e-15 0.00266315 0.0574764)
(1.5846e-18 0.00261451 0.055395)
(6.51009e-19 0.00256588 0.0533925)
(-5.61336e-16 0.00251762 0.0514665)
(5.0544e-16 0.00247015 0.0496129)
(6.82502e-19 0.00242312 0.0478284)
(-1.56024e-19 0.00237632 0.046111)
(-3.74886e-20 0.0023301 0.0444571)
(-3.40828e-22 0.00228415 0.0428645)
(-1.11859e-20 0.00223832 0.0413317)
(-1.23716e-20 0.00219325 0.0398557)
(-3.75226e-19 0.00214889 0.038434)
(4.72487e-16 0.00210465 0.037065)
(3.63469e-19 0.0020604 0.0357462)
(1.37382e-22 0.00201561 0.0344761)
(-7.23128e-23 0.00196957 0.0332549)
(2.05335e-19 0.00192345 0.0320811)
(-3.0785e-16 0.00187846 0.0309529)
(-8.2747e-16 0.00183497 0.0298686)
(-4.29975e-16 0.00179391 0.0288246)
(-2.57697e-19 0.0017546 0.0278174)
(-7.70356e-23 0.00171554 0.0268456)
(-9.06148e-26 0.00167611 0.0259082)
(1.96629e-22 0.00163591 0.0250056)
(-3.60517e-19 0.00159553 0.0241385)
(8.6697e-16 0.00155629 0.0233061)
(3.88702e-16 0.00151886 0.0225059)
(1.45108e-19 0.00148319 0.0217352)
(3.49603e-16 0.00144856 0.0209915)
(1.53945e-19 0.00141371 0.0202738)
(3.33793e-23 0.00137775 0.0195818)
(-2.63598e-23 0.00134028 0.0189163)
(1.3337e-19 0.00130192 0.0182779)
(-3.55838e-16 0.00126394 0.0176668)
(3.21985e-16 0.0012273 0.0170818)
(-4.80367e-20 0.00119235 0.016521)
(3.41385e-16 0.00115889 0.0159821)
(1.12575e-19 0.00112623 0.0154635)
(-1.76634e-23 0.00109363 0.0149647)
(7.00234e-23 0.00106093 0.014486)
(3.53984e-20 0.00102834 0.0140276)
(-5.7768e-21 0.000996161 0.0135892)
(9.50068e-20 0.00096471 0.0131697)
(-3.14006e-16 0.000934057 0.0127682)
(-9.95907e-17 0.000904034 0.0123835)
(-6.6821e-21 0.000874421 0.012015)
(-2.55829e-20 0.000844975 0.0116623)
(1.06477e-16 0.000815495 0.011325)
(2.58823e-20 0.000785938 0.011003)
(-4.90087e-21 0.000756335 0.0106959)
(1.19147e-20 0.000726755 0.0104031)
(-2.81812e-17 0.000697394 0.0101237)
(8.56602e-21 0.000668408 0.00985725)
(-2.81699e-17 0.000639794 0.009604)
(1.40357e-16 0.000611606 0.0093638)
(3.17134e-20 0.000583875 0.00913632)
(8.00013e-21 0.000556601 0.00892118)
(-4.36493e-17 0.000529755 0.008718)
(-9.39146e-17 0.000503267 0.0085264)
(5.28305e-17 0.000477047 0.00834607)
(-6.21541e-22 0.000451003 0.00817678)
(9.05902e-17 0.000425009 0.00801834)
(1.27803e-20 0.00039895 0.0078706)
(-1.79389e-23 0.000372766 0.00773345)
(1.16355e-23 0.000346441 0.00760683)
(4.95723e-21 0.000320013 0.0074907)
(-1.28256e-17 0.000293559 0.00738499)
(5.05898e-21 0.000267131 0.00728957)
(-4.3066e-17 0.000240711 0.00720422)
(-2.40981e-17 0.000214213 0.00712861)
(3.74297e-17 0.000187455 0.00706246)
(3.27992e-17 0.000160265 0.00700553)
(1.19574e-17 0.000132515 0.00695757)
(1.81954e-17 0.000104153 0.00691868)
(2.40232e-21 7.51873e-05 0.00688919)
(5.87036e-18 4.56669e-05 0.00686926)
(3.64298e-18 1.55936e-05 0.00685878)
(2.73546e-15 0.00398519 0.137252)
(8.49811e-19 0.00396068 0.13207)
(2.48519e-15 0.00394031 0.127052)
(-1.93546e-17 0.00391934 0.12224)
(9.61972e-17 0.00389704 0.117622)
(-4.78148e-18 0.00387016 0.113186)
(2.11703e-15 0.00383989 0.108927)
(3.44346e-18 0.00380565 0.104837)
(-3.86643e-18 0.00376845 0.100909)
(1.84525e-15 0.00372907 0.0971369)