/*--------------------------------*- C++ -*----------------------------------*\
| =========                 |                                                 |
| \\      /  F ield         | OpenFOAM: The Open Source CFD Toolbox           |
|  \\    /   O peration     | Version:  4.1                                   |
|   \\  /    A nd           | Web:      www.OpenFOAM.org                      |
|    \\/     M anipulation  |                                                 |
\*---------------------------------------------------------------------------*/
FoamFile
{
    version     2.0;
    format      ascii;
    class       volScalarField;
    location    "6";
    object      p;
}
// * * * * * * * * * * * * * * * * * * * * * * * * * * * * * * * * * * * * * //

dimensions      [0 2 -2 0 0 0 0];

internalField   nonuniform List<scalar> 
26785
(
0.136525
0.130046
0.123958
0.118328
0.113152
0.108386
0.103981
0.0998928
0.096065
0.0924623
0.0890358
0.0857813
0.0826549
0.0796665
0.0767757
0.0739968
0.071301
0.0687085
0.0661966
0.0637789
0.0614422
0.059199
0.0570398
0.0549674
0.0529734
0.0510635
0.0492354
0.0474911
0.0458219
0.0442211
0.0426806
0.0412004
0.0397784
0.0384141
0.037103
0.0358418
0.0346257
0.0334527
0.0323216
0.0312341
0.0301916
0.0291947
0.0282401
0.0273221
0.0264344
0.0255733
0.0247379
0.0239293
0.0231483
0.0223935
0.0216616
0.0209482
0.0202496
0.0195632
0.0188883
0.0182248
0.0175733
0.0169352
0.016312
0.0157054
0.0151169
0.0145476
0.0139986
0.0134706
0.0129642
0.0124795
0.0120155
0.0115708
0.011144
0.010734
0.0103401
0.00996182
0.00959807
0.00924583
0.00889952
0.00855449
0.00820815
0.00786
0.00751042
0.00715983
0.0068083
0.00645554
0.0061011
0.00574452
0.00538571
0.00502505
0.0046635
0.00430239
0.00394314
0.00358698
0.00323472
0.0028867
0.00254276
0.00220243
0.00186512
0.00153001
0.0011943
0.000856714
0.000516471
0.000173147
0.136524
0.130043
0.123954
0.118323
0.113148
0.108383
0.103977
0.0998902
0.0960629
0.0924606
0.0890342
0.0857802
0.082654
0.0796659
0.0767749
0.0739963
0.0713005
0.0687083
0.0661963
0.0637786
0.0614418
0.0591988
0.0570396
0.0549672
0.052973
0.051063
0.0492351
0.0474911
0.0458218
0.0442211
0.0426805
0.0412005
0.0397786
0.0384145
0.0371034
0.0358424
0.0346264
0.0334534
0.0323221
0.0312344
0.030192
0.0291951
0.0282407
0.0273229
0.0264354
0.0255743
0.0247389
0.0239303
0.0231493
0.0223946
0.0216629
0.0209498
0.0202513
0.0195649
0.0188899
0.0182264
0.0175747
0.0169362
0.0163129
0.0157062
0.0151176
0.0145483
0.0139992
0.0134711
0.0129647
0.0124799
0.0120159
0.0115712
0.0111443
0.0107342
0.0103402
0.00996177
0.00959784
0.00924545
0.00889895
0.00855381
0.00820739
0.0078592
0.00750965
0.00715913
0.0068077
0.00645505
0.00610067
0.00574414
0.00538533
0.00502468
0.00466316
0.00430209
0.00394287
0.00358675
0.00323455
0.00288659
0.00254273
0.00220249
0.00186523
0.0015301
0.00119434
0.000856713
0.000516392
0.000173059
0.136521
0.130036
0.123945
0.118314
0.11314
0.108375
0.103971
0.099885
0.0960585
0.0924571
0.0890311
0.0857778
0.0826521
0.0796645
0.0767736
0.0739953
0.0712998
0.0687078
0.0661958
0.0637781
0.0614413
0.0591984
0.0570393
0.0549667
0.0529724
0.0510624
0.0492347
0.0474909
0.0458217
0.0442209
0.0426806
0.0412007
0.039779
0.0384153
0.0371045
0.0358437
0.0346279
0.0334549
0.0323234
0.0312355
0.0301929
0.029196
0.0282418
0.0273244
0.0264373
0.0255764
0.024741
0.0239324
0.0231513
0.0223968
0.0216655
0.0209528
0.0202546
0.0195683
0.0188932
0.0182293
0.0175772
0.0169383
0.0163146
0.0157078
0.0151192
0.01455
0.0140008
0.0134725
0.0129659
0.012481
0.0120169
0.0115722
0.0111452
0.0107349
0.0103406
0.00996185
0.00959744
0.00924467
0.00889781
0.00855249
0.00820597
0.00785777
0.00750828
0.00715788
0.00680661
0.0064541
0.00609986
0.00574347
0.00538484
0.00502436
0.00466298
0.00430202
0.00394287
0.00358675
0.00323455
0.00288661
0.00254275
0.00220248
0.00186523
0.0015301
0.00119427
0.000856557
0.000516201
0.00017292
0.136515
0.130025
0.123932
0.118301
0.113127
0.108364
0.103962
0.0998771
0.0960519
0.0924516
0.0890265
0.0857743
0.0826493
0.0796624
0.0767718
0.0739939
0.0712987
0.068707
0.0661951
0.0637774
0.0614407
0.0591979
0.0570388
0.054966
0.0529716
0.0510615
0.049234
0.0474905
0.0458214
0.0442207
0.0426806
0.0412011
0.0397798
0.0384165
0.0371062
0.0358458
0.0346303
0.0334572
0.0323255
0.0312373
0.0301943
0.0291974
0.0282435
0.0273266
0.0264401
0.0255796
0.0247442
0.0239354
0.0231543
0.0224001
0.0216694
0.0209574
0.0202596
0.0195733
0.018898
0.0182337
0.0175809
0.0169413
0.0163172
0.0157103
0.0151218
0.0145526
0.0140033
0.0134747
0.0129678
0.0124827
0.0120185
0.0115737
0.0111465
0.010736
0.0103413
0.00996203
0.0095969
0.0092435
0.00889612
0.00855055
0.00820388
0.00785565
0.00750624
0.00715601
0.00680493
0.00645263
0.00609861
0.00574248
0.00538413
0.00502397
0.00466286
0.00430207
0.00394299
0.00358687
0.0032346
0.00288659
0.00254273
0.00220247
0.00186522
0.00153002
0.00119417
0.000856396
0.000515982
0.000172765
0.136508
0.130011
0.123915
0.118283
0.113111
0.10835
0.103949
0.0998665
0.0960431
0.0924443
0.0890205
0.0857695
0.0826456
0.0796594
0.0767693
0.0739919
0.0712973
0.0687059
0.0661941
0.0637766
0.06144
0.0591972
0.0570381
0.0549651
0.0529706
0.0510605
0.0492332
0.0474899
0.0458209
0.0442205
0.0426808
0.0412016
0.0397808
0.0384182
0.0371085
0.0358486
0.0346335
0.0334604
0.0323283
0.0312397
0.0301963
0.0291991
0.0282456
0.0273296
0.0264439
0.0255839
0.0247485
0.0239395
0.0231583
0.0224044
0.0216745
0.0209634
0.0202662
0.0195799
0.0189044
0.0182395
0.0175858
0.0169453
0.0163206
0.0157136
0.0151253
0.0145561
0.0140066
0.0134777
0.0129704
0.0124849
0.0120206
0.0115756
0.0111483
0.0107375
0.0103424
0.00996236
0.00959632
0.00924198
0.00889393
0.008548
0.00820109
0.00785278
0.00750346
0.00715345
0.00680264
0.0064506
0.00609688
0.00574113
0.00538322
0.00502348
0.00466271
0.00430214
0.00394312
0.00358696
0.00323462
0.00288657
0.00254269
0.00220244
0.00186528
0.00153005
0.00119405
0.000856204
0.000515775
0.000172623
0.136499
0.129993
0.123893
0.118261
0.11309
0.108331
0.103934
0.0998533
0.0960321
0.0924352
0.089013
0.0857635
0.082641
0.0796556
0.0767663
0.0739895
0.0712956
0.0687045
0.066193
0.0637755
0.0614391
0.0591964
0.0570373
0.0549641
0.0529694
0.0510593
0.0492321
0.0474891
0.0458204
0.0442201
0.0426809
0.0412023
0.0397821
0.0384202
0.0371113
0.0358521
0.0346375
0.0334644
0.032332
0.0312429
0.0301988
0.0292013
0.0282482
0.0273332
0.0264485
0.0255891
0.0247538
0.0239445
0.0231633
0.0224098
0.0216809
0.020971
0.0202744
0.0195882
0.0189123
0.0182468
0.017592
0.0169503
0.016325
0.0157178
0.0151296
0.0145605
0.0140108
0.0134814
0.0129735
0.0124877
0.0120231
0.0115781
0.0111506
0.0107395
0.0103438
0.00996293
0.00959577
0.00924024
0.00889134
0.00854485
0.00819758
0.00784912
0.00749988
0.00715013
0.00679966
0.00644796
0.00609463
0.0057394
0.00538204
0.00502277
0.00466239
0.00430205
0.00394314
0.00358697
0.00323458
0.00288653
0.00254274
0.0022026
0.00186548
0.00153018
0.00119407
0.000856076
0.000515589
0.000172498
0.136489
0.129972
0.123866
0.118234
0.113065
0.108309
0.103915
0.0998374
0.0960188
0.0924242
0.0890041
0.0857563
0.0826355
0.0796511
0.0767627
0.0739866
0.0712935
0.0687028
0.0661916
0.0637742
0.061438
0.0591954
0.0570364
0.0549628
0.052968
0.0510578
0.0492308
0.0474881
0.0458196
0.0442197
0.042681
0.0412031
0.0397836
0.0384227
0.0371148
0.0358563
0.0346423
0.0334693
0.0323364
0.0312467
0.0302019
0.0292039
0.0282513
0.0273374
0.026454
0.0255953
0.02476
0.0239505
0.0231691
0.0224163
0.0216887
0.0209802
0.0202844
0.019598
0.0189217
0.0182554
0.0175993
0.0169563
0.0163301
0.0157228
0.0151348
0.0145658
0.0140158
0.0134858
0.0129771
0.0124908
0.0120261
0.011581
0.0111534
0.0107419
0.0103456
0.0099638
0.00959536
0.00923841
0.00888842
0.00854111
0.00819327
0.00784459
0.00749544
0.00714601
0.00679594
0.00644467
0.00609187
0.00573721
0.00538042
0.0050217
0.00466177
0.00430173
0.00394296
0.00358686
0.00323453
0.00288661
0.00254299
0.00220298
0.00186597
0.00153059
0.00119428
0.000856069
0.00051547
0.000172408
0.136477
0.129947
0.123835
0.118202
0.113036
0.108284
0.103893
0.0998189
0.0960034
0.0924114
0.0889938
0.085748
0.082629
0.0796459
0.0767586
0.0739833
0.0712911
0.0687008
0.0661899
0.0637727
0.0614368
0.0591944
0.0570353
0.0549614
0.0529665
0.0510562
0.0492293
0.0474869
0.0458188
0.0442192
0.0426812
0.041204
0.0397854
0.0384255
0.0371188
0.0358613
0.034648
0.033475
0.0323417
0.0312512
0.0302055
0.029207
0.0282548
0.0273422
0.0264603
0.0256025
0.0247673
0.0239574
0.023176
0.0224237
0.0216977
0.0209909
0.0202959
0.0196093
0.0189326
0.0182656
0.0176078
0.0169632
0.016336
0.0157285
0.0151407
0.0145719
0.0140216
0.0134907
0.0129813
0.0124945
0.0120296
0.0115844
0.0111567
0.0107448
0.0103479
0.00996503
0.00959521
0.00923659
0.00888519
0.00853676
0.00818815
0.00783913
0.00749007
0.00714101
0.00679146
0.00644073
0.0060885
0.00573444
0.00537828
0.00502017
0.00466074
0.00430108
0.00394257
0.00358668
0.00323457
0.00288691
0.00254355
0.00220375
0.00186678
0.00153127
0.0011947
0.000856195
0.000515449
0.000172359
0.136463
0.129918
0.1238
0.118166
0.113002
0.108255
0.103868
0.0997977
0.0959858
0.0923968
0.088982
0.0857385
0.0826217
0.07964
0.076754
0.0739796
0.0712884
0.0686985
0.0661881
0.063771
0.0614355
0.0591932
0.0570342
0.0549599
0.0529647
0.0510543
0.0492276
0.0474855
0.0458177
0.0442186
0.0426813
0.041205
0.0397874
0.0384288
0.0371233
0.035867
0.0346544
0.0334817
0.0323479
0.0312564
0.0302097
0.0292105
0.0282587
0.0273475
0.0264672
0.0256105
0.0247755
0.0239653
0.0231837
0.0224323
0.0217079
0.0210031
0.020309
0.0196221
0.0189451
0.0182771
0.0176174
0.0169709
0.0163426
0.015735
0.0151475
0.0145787
0.0140279
0.0134962
0.0129859
0.0124986
0.0120336
0.0115884
0.0111606
0.0107484
0.0103506
0.00996666
0.00959532
0.00923484
0.00888164
0.00853174
0.00818213
0.00783267
0.00748369
0.00713511
0.00678621
0.0064361
0.00608448
0.00573105
0.00537556
0.00501812
0.00465929
0.00430013
0.00394202
0.00358651
0.00323479
0.00288751
0.00254432
0.00220464
0.00186787
0.0015323
0.00119542
0.000856532
0.000515546
0.000172344
0.136448
0.129885
0.123759
0.118126
0.112965
0.108222
0.10384
0.0997739
0.095966
0.0923804
0.0889687
0.0857279
0.0826134
0.0796333
0.0767488
0.0739754
0.0712853
0.0686959
0.0661859
0.063769
0.0614341
0.0591919
0.0570329
0.0549582
0.0529628
0.0510523
0.0492257
0.0474838
0.0458166
0.0442179
0.0426815
0.0412062
0.0397897
0.0384323
0.0371284
0.0358734
0.0346617
0.0334891
0.0323548
0.0312623
0.0302145
0.0292145
0.028263
0.0273534
0.0264749
0.0256194
0.0247847
0.0239741
0.0231925
0.0224419
0.0217195
0.0210168
0.0203236
0.0196361
0.0189589
0.0182899
0.0176281
0.0169795
0.01635
0.0157421
0.0151548
0.0145861
0.0140349
0.0135023
0.0129912
0.0125034
0.0120382
0.011593
0.0111651
0.0107525
0.010354
0.00996878
0.00959573
0.00923315
0.00887773
0.00852598
0.00817514
0.00782513
0.00747627
0.00712828
0.00678017
0.00643077
0.00607978
0.00572702
0.00537228
0.0050156
0.00465748
0.00429894
0.00394143
0.00358647
0.00323508
0.00288792
0.00254512
0.00220596
0.00186946
0.00153376
0.00119642
0.000857024
0.000515703
0.000172332
0.136431
0.129849
0.123715
0.11808
0.112923
0.108185
0.103809
0.0997475
0.095944
0.0923622
0.0889541
0.0857161
0.0826044
0.079626
0.0767431
0.0739708
0.0712819
0.068693
0.0661836
0.063767
0.0614325
0.0591904
0.0570315
0.0549564
0.0529606
0.0510499
0.0492235
0.047482
0.0458152
0.0442172
0.0426817
0.0412075
0.0397922
0.0384363
0.037134
0.0358805
0.0346697
0.0334974
0.0323625
0.0312689
0.0302199
0.0292191
0.0282678
0.0273598
0.0264833
0.0256292
0.0247949
0.023984
0.0232023
0.0224526
0.0217324
0.0210319
0.0203396
0.0196514
0.018974
0.0183038
0.0176396
0.0169887
0.016358
0.0157497
0.0151627
0.0145941
0.0140424
0.013509
0.0129971
0.0125088
0.0120435
0.0115984
0.0111704
0.0107574
0.010358
0.00997143
0.00959647
0.00923151
0.00887337
0.00851935
0.00816704
0.00781644
0.00746776
0.00712052
0.00677336
0.00642471
0.00607439
0.00572239
0.00536851
0.0050127
0.0046554
0.0042976
0.00394068
0.0035861
0.00323513
0.0028886
0.00254651
0.0022079
0.00187152
0.00153547
0.00119751
0.000857499
0.000515805
0.000172278
0.136414
0.129808
0.123665
0.118031
0.112878
0.108145
0.103774
0.0997185
0.0959199
0.0923423
0.0889381
0.0857032
0.0825944
0.0796179
0.0767369
0.0739658
0.0712781
0.0686898
0.0661811
0.0637647
0.0614308
0.0591889
0.05703
0.0549545
0.0529583
0.0510473
0.0492211
0.04748
0.0458138
0.0442166
0.042682
0.0412089
0.039795
0.0384406
0.0371401
0.0358882
0.0346784
0.0335064
0.0323709
0.0312762
0.0302259
0.0292241
0.028273
0.0273667
0.0264924
0.0256399
0.0248062
0.0239951
0.0232131
0.0224645
0.0217464
0.0210482
0.0203567
0.0196677
0.0189902
0.0183186
0.0176519
0.0169987
0.0163665
0.0157579
0.015171
0.0146025
0.0140504
0.0135163
0.0130037
0.012515
0.0120496
0.0116045
0.0111764
0.0107629
0.0103627
0.00997463
0.00959755
0.00922985
0.00886853
0.00851182
0.00815777
0.00780648
0.00745807
0.00711177
0.00676576
0.0064179
0.00606828
0.00571712
0.00536423
0.00500942
0.00465301
0.00429597
0.00393973
0.00358586
0.00323567
0.00288998
0.0025486
0.00221034
0.00187377
0.00153709
0.00119835
0.000857736
0.000515741
0.000172149
0.136396
0.129763
0.123611
0.117976
0.112828
0.108101
0.103737
0.0996869
0.0958937
0.0923206
0.0889207
0.0856892
0.0825836
0.0796092
0.0767301
0.0739604
0.0712741
0.0686864
0.0661784
0.0637623
0.061429
0.0591873
0.0570284
0.0549524
0.0529557
0.0510445
0.0492185
0.0474777
0.0458122
0.044216
0.0426824
0.0412106
0.0397982
0.0384453
0.0371467
0.0358965
0.0346877
0.033516
0.0323801
0.0312842
0.0302324
0.0292297
0.0282788
0.0273741
0.0265022
0.0256517
0.0248187
0.0240073
0.0232253
0.0224776
0.0217616
0.0210656
0.0203747
0.0196848
0.0190072
0.0183341
0.0176648
0.0170091
0.0163756
0.0157665
0.0151797
0.0146112
0.014059
0.0135243
0.0130112
0.0125222
0.0120566
0.0116114
0.0111831
0.0107692
0.010368
0.00997828
0.00959883
0.00922804
0.00886309
0.00850332
0.00814734
0.00779529
0.00744722
0.00710207
0.00675742
0.00641035
0.00606143
0.00571122
0.00535946
0.00500579
0.00465043
0.00429434
0.00393904
0.00358614
0.00323695
0.00289213
0.00255125
0.00221297
0.00187578
0.00153818
0.00119864
0.000857588
0.000515481
0.000171952
0.136377
0.129715
0.123552
0.117917
0.112774
0.108054
0.103697
0.0996527
0.0958653
0.0922972
0.088902
0.0856742
0.082572
0.0795998
0.0767228
0.0739546
0.0712697
0.0686828
0.0661755
0.0637598
0.0614271
0.0591856
0.0570266
0.0549501
0.0529529
0.0510413
0.0492156
0.0474753
0.0458106
0.0442155
0.0426831
0.0412126
0.0398018
0.0384505
0.0371536
0.0359053
0.0346976
0.0335261
0.0323898
0.0312928
0.0302396
0.0292359
0.0282851
0.0273823
0.026513
0.0256646
0.0248325
0.024021
0.0232387
0.0224919
0.0217778
0.0210837
0.0203933
0.0197025
0.0190247
0.01835
0.0176782
0.0170202
0.0163852
0.0157756
0.0151887
0.0146204
0.0140681
0.0135332
0.0130196
0.0125303
0.0120646
0.0116191
0.0111905
0.010776
0.0103737
0.00998218
0.00960009
0.00922583
0.0088569
0.00849383
0.0081358
0.00778301
0.00743539
0.00709155
0.00674844
0.00640215
0.00605401
0.00570489
0.0053544
0.00500203
0.00464787
0.00429294
0.0039388
0.00358705
0.00323892
0.00289482
0.0025541
0.00221532
0.0018771
0.00153843
0.00119824
0.000857082
0.000515114
0.00017173
0.136357
0.129661
0.123488
0.117854
0.112715
0.108003
0.103653
0.099616
0.0958349
0.0922722
0.088882
0.0856581
0.0825595
0.0795897
0.076715
0.0739483
0.0712651
0.068679
0.0661726
0.0637572
0.0614252
0.0591839
0.0570247
0.0549476
0.0529498
0.0510379
0.0492125
0.0474726
0.0458089
0.0442151
0.0426841
0.0412149
0.0398057
0.038456
0.0371609
0.0359145
0.0347079
0.0335368
0.0324002
0.0313021
0.0302474
0.0292427
0.0282922
0.0273911
0.0265247
0.0256786
0.0248476
0.024036
0.0232535
0.0225074
0.0217949
0.0211023
0.0204122
0.0197206
0.0190424
0.018366
0.0176919
0.0170317
0.0163953
0.0157851
0.0151982
0.0146301
0.0140779
0.013543
0.0130292
0.0125395
0.0120735
0.0116276
0.0111985
0.0107833
0.0103797
0.00998606
0.00960098
0.00922291
0.00884982
0.00848333
0.00812332
0.0077699
0.00742284
0.00708047
0.00673898
0.00639351
0.0060463
0.00569842
0.00534932
0.00499832
0.00464548
0.00429183
0.00393897
0.00358845
0.00324129
0.00289766
0.00255669
0.00221694
0.00187742
0.00153776
0.00119729
0.000856434
0.000514818
0.000171552
0.136337
0.129603
0.123419
0.117785
0.112653
0.107948
0.103607
0.0995768
0.0958024
0.0922454
0.0888606
0.085641
0.0825462
0.079579
0.0767067
0.0739418
0.0712602
0.068675
0.0661695
0.0637546
0.0614232
0.059182
0.0570226
0.0549448
0.0529465
0.0510341
0.049209
0.0474698
0.0458071
0.0442149
0.0426854
0.0412176
0.0398101
0.0384619
0.0371685
0.0359239
0.0347185
0.0335479
0.0324112
0.0313121
0.0302559
0.0292503
0.0283001
0.0274009
0.0265374
0.0256939
0.0248642
0.0240527
0.0232698
0.0225239
0.0218126
0.0211211
0.0204311
0.0197389
0.0190603
0.0183822
0.0177058
0.0170438
0.016406
0.0157951
0.015208
0.0146401
0.0140884
0.0135537
0.0130398
0.0125498
0.0120832
0.0116368
0.011207
0.0107908
0.0103856
0.00998954
0.00960111
0.00921896
0.00884172
0.00847192
0.00811015
0.00775631
0.00740998
0.00706912
0.00672922
0.00638466
0.00603856
0.00569206
0.00534438
0.00499475
0.00464323
0.00429088
0.00393932
0.00358998
0.00324365
0.00290019
0.00255858
0.00221755
0.00187676
0.00153645
0.0011962
0.000855994
0.000514766
0.000171473
0.136317
0.129541
0.123345
0.117712
0.112586
0.10789
0.103557
0.099535
0.0957679
0.0922171
0.088838
0.0856228
0.0825322
0.0795676
0.0766979
0.0739348
0.0712549
0.0686708
0.0661664
0.0637519
0.0614213
0.0591801
0.0570203
0.0549419
0.0529428
0.0510299
0.0492052
0.0474668
0.0458053
0.0442148
0.042687
0.0412207
0.0398149
0.0384682
0.0371764
0.0359336
0.0347295
0.0335595
0.0324229
0.0313228
0.0302651
0.0292587
0.028309
0.0274117
0.0265513
0.0257105
0.0248822
0.0240708
0.0232875
0.0225415
0.0218307
0.0211398
0.0204498
0.0197573
0.019078
0.0183983
0.0177201
0.0170564
0.0164173
0.0158056
0.0152182
0.0146506
0.0140994
0.0135653
0.0130515
0.0125611
0.0120938
0.0116465
0.0112156
0.0107981
0.0103911
0.00999223
0.0096001
0.00921372
0.00883258
0.00845975
0.0080966
0.00774267
0.00739719
0.00705779
0.00671933
0.00637582
0.00603099
0.0056859
0.00533958
0.00499121
0.00464091
0.0042898
0.00393947
0.00359122
0.00324555
0.002902
0.00255955
0.0022172
0.0018755
0.00153523
0.00119556
0.000855923
0.000515026
0.00017152
0.136296
0.129474
0.123266
0.117634
0.112515
0.107828
0.103505
0.0994907
0.0957314
0.0921872
0.0888142
0.0856037
0.0825173
0.0795556
0.0766886
0.0739275
0.0712495
0.0686664
0.0661632
0.0637493
0.0614193
0.0591781
0.0570179
0.0549386
0.0529388
0.0510254
0.0492011
0.0474636
0.0458035
0.0442149
0.0426889
0.0412241
0.03982
0.0384749
0.0371846
0.0359435
0.0347407
0.0335716
0.0324352
0.0313343
0.0302753
0.0292682
0.0283191
0.0274236
0.0265663
0.0257284
0.0249015
0.0240903
0.0233064
0.0225598
0.021849
0.0211583
0.0204682
0.0197756
0.0190956
0.0184144
0.0177349
0.0170699
0.0164295
0.0158167
0.0152289
0.0146615
0.0141111
0.0135777
0.0130641
0.0125732
0.012105
0.0116565
0.0112243
0.0108051
0.0103958
0.00999374
0.00959765
0.00920706
0.00882249
0.0084471
0.00808303
0.00772937
0.00738485
0.00704672
0.00670942
0.00636708
0.00602361
0.00567986
0.00533472
0.0049874
0.00463818
0.00428821
0.00393904
0.0035918
0.00324669
0.00290296
0.0025597
0.00221652
0.00187485
0.00153455
0.00119523
0.000856345
0.000515822
0.000171738
0.136276
0.129402
0.123181
0.117552
0.11244
0.107763
0.103449
0.099444
0.0956929
0.0921557
0.0887892
0.0855837
0.0825017
0.079543
0.0766788
0.0739198
0.0712438
0.0686618
0.0661599
0.0637467
0.0614173
0.059176
0.0570152
0.0549351
0.0529345
0.0510205
0.0491967
0.0474602
0.0458016
0.0442152
0.0426911
0.0412279
0.0398254
0.0384819
0.0371931
0.0359537
0.0347524
0.0335843
0.0324483
0.0313469
0.0302865
0.029279
0.0283306
0.0274369
0.0265824
0.0257475
0.024922
0.0241109
0.0233264
0.0225787
0.0218672
0.0211764
0.0204863
0.0197939
0.0191131
0.0184307
0.0177502
0.0170842
0.0164425
0.0158284
0.0152399
0.0146728
0.0141232
0.0135907
0.0130774
0.0125861
0.0121167
0.0116667
0.0112327
0.0108113
0.0103993
0.00999376
0.0095936
0.00919902
0.00881169
0.00843431
0.00806985
0.00771676
0.00737321
0.00703601
0.0066995
0.00635837
0.00601622
0.0056736
0.0053294
0.00498294
0.00463465
0.00428577
0.00393776
0.00359155
0.00324702
0.00290339
0.00256024
0.00221668
0.0018744
0.0015341
0.00119552
0.000857575
0.000517364
0.000172211
0.136255
0.129325
0.123091
0.117464
0.112361
0.107694
0.103391
0.0993948
0.0956524
0.0921227
0.088763
0.0855627
0.0824853
0.0795298
0.0766686
0.0739117
0.0712378
0.0686571
0.0661566
0.0637441
0.0614154
0.0591739
0.0570125
0.0549314
0.0529298
0.0510153
0.0491919
0.0474565
0.0457997
0.0442155
0.0426934
0.0412319
0.0398311
0.0384892
0.037202
0.0359641
0.0347645
0.0335977
0.0324624
0.0313605
0.0302992
0.0292914
0.0283438
0.0274517
0.0265997
0.0257674
0.0249434
0.0241325
0.0233471
0.0225979
0.0218852
0.0211939
0.0205042
0.0198123
0.0191306
0.0184474
0.0177663
0.0170996
0.0164565
0.0158407
0.0152513
0.0146843
0.0141357
0.0136042
0.0130913
0.0125993
0.0121285
0.0116766
0.0112405
0.0108165
0.0104013
0.00999212
0.00958798
0.00918981
0.00880057
0.00842179
0.00805742
0.00770511
0.00736236
0.00702563
0.00668946
0.00634942
0.00600841
0.00566667
0.00532318
0.00497743
0.00463004
0.0042823
0.0039356
0.00359075
0.0032475
0.00290462
0.00256111
0.00221677
0.0018743
0.00153446
0.00119683
0.000859819
0.000519739
0.000173076
0.136237
0.129242
0.122996
0.117372
0.112278
0.107621
0.103329
0.0993432
0.09561
0.0920882
0.0887357
0.0855409
0.0824683
0.079516
0.0766579
0.0739032
0.0712316
0.0686523
0.0661532
0.0637416
0.0614135
0.0591717
0.0570096
0.0549274
0.0529249
0.0510097
0.0491867
0.0474525
0.0457976
0.0442157
0.0426957
0.041236
0.039837
0.0384968
0.0372111
0.0359749
0.0347771
0.0336119
0.0324775
0.0313755
0.0303136
0.0293057
0.028359
0.0274679
0.0266178
0.025788
0.0249654
0.0241545
0.0233682
0.0226173
0.0219029
0.021211
0.0205219
0.019831
0.0191485
0.0184649
0.0177836
0.0171161
0.0164713
0.0158535
0.015263
0.0146962
0.0141485
0.0136179
0.0131055
0.0126128
0.0121402
0.0116861
0.0112474
0.0108204
0.0104017
0.00998876
0.00958094
0.0091798
0.00878958
0.00840997
0.00804607
0.00769454
0.00735224
0.00701538
0.00667907
0.00633986
0.00599969
0.00565858
0.00531565
0.00497064
0.00462446
0.00427827
0.00393332
0.00359011
0.003248
0.00290558
0.00256189
0.00221733
0.00187521
0.00153615
0.0011993
0.000862845
0.000523341
0.000174495
0.136219
0.129154
0.122895
0.117275
0.11219
0.107545
0.103265
0.0992892
0.0955657
0.0920522
0.0887072
0.0855182
0.0824506
0.0795017
0.0766468
0.0738944
0.0712252
0.0686474
0.0661497
0.0637391
0.0614117
0.0591696
0.0570066
0.0549231
0.0529197
0.0510038
0.0491812
0.0474483
0.0457953
0.0442158
0.0426979
0.0412401
0.039843
0.0385046
0.0372206
0.0359862
0.0347905
0.0336271
0.0324939
0.0313922
0.0303302
0.0293224
0.0283762
0.0274857
0.0266367
0.0258087
0.0249874
0.0241767
0.0233894
0.0226366
0.0219203
0.0212277
0.0205397
0.0198502
0.0191671
0.0184835
0.0178023
0.0171338
0.0164868
0.0158665
0.0152751
0.0147086
0.0141616
0.0136319
0.0131197
0.0126262
0.0121517
0.011695
0.0112533
0.0108228
0.0104003
0.00998378
0.00957277
0.00916945
0.00877923
0.00839923
0.00803598
0.00768498
0.00734258
0.00700498
0.00666805
0.00632927
0.00598964
0.00564909
0.00530704
0.00496315
0.00461817
0.00427351
0.00393041
0.00358898
0.00324824
0.00290661
0.00256324
0.00221888
0.00187776
0.00153925
0.00120231
0.00086725
0.000528425
0.000176501
0.136202
0.129061
0.122788
0.117173
0.112098
0.107466
0.103197
0.0992329
0.0955196
0.0920147
0.0886778
0.0854948
0.0824322
0.0794868
0.0766353
0.0738852
0.0712185
0.0686424
0.0661463
0.0637367
0.0614099
0.0591674
0.0570035
0.0549187
0.0529143
0.0509977
0.0491755
0.0474437
0.0457927
0.0442156
0.0426999
0.0412441
0.039849
0.0385126
0.0372306
0.0359981
0.0348046
0.0336435
0.0325118
0.0314109
0.0303492
0.0293417
0.0283957
0.0275049
0.0266561
0.0258293
0.0250092
0.0241986
0.0234105
0.0226558
0.0219373
0.0212441
0.0205576
0.0198702
0.0191868
0.0185035
0.0178224
0.0171525
0.0165023
0.0158795
0.0152872
0.0147215
0.0141755
0.0136461
0.0131339
0.0126394
0.0121628
0.0117031
0.0112579
0.0108236
0.0103973
0.00997741
0.00956386
0.00915926
0.00876981
0.00838981
0.00802715
0.00767617
0.00733299
0.00699405
0.00665613
0.0063174
0.00597825
0.0056384
0.00529713
0.00495425
0.00461067
0.00426791
0.00392704
0.00358772
0.00324865
0.00290822
0.00256586
0.00222265
0.001882
0.00154271
0.0012069
0.000873405
0.000534786
0.000178908
0.136187
0.128962
0.122676
0.117066
0.112002
0.107383
0.103127
0.0991742
0.0954716
0.0919759
0.0886472
0.0854705
0.0824133
0.0794716
0.0766234
0.0738757
0.0712116
0.0686373
0.0661428
0.0637342
0.0614081
0.0591651
0.0570003
0.0549142
0.0529086
0.0509914
0.0491694
0.0474389
0.0457898
0.044215
0.0427015
0.0412479
0.039855
0.0385208
0.0372409
0.0360106
0.0348197
0.0336612
0.0325315
0.0314319
0.0303711
0.029364
0.0284175
0.0275256
0.0266757
0.0258493
0.0250301
0.0242199
0.0234311
0.0226746
0.0219541
0.0212603
0.0205758
0.019891
0.0192081
0.0185251
0.0178438
0.0171716
0.0165183
0.0158929
0.0152994
0.0147343
0.0141897
0.0136611
0.0131483
0.0126524
0.0121734
0.0117103
0.0112612
0.010823
0.0103929
0.00996995
0.0095546
0.0091496
0.00876121
0.00838174
0.00801935
0.00766769
0.00732297
0.00698226
0.00664311
0.00630416
0.00596529
0.00562596
0.00528549
0.0049439
0.00460219
0.00426182
0.00392362
0.00358679
0.00324982
0.00291116
0.00257033
0.00222754
0.00188657
0.0015481
0.0012137
0.000881166
0.000541786
0.00018135
0.136173
0.128856
0.122557
0.116954
0.111902
0.107296
0.103054
0.0991133
0.0954218
0.0919357
0.0886157
0.0854456
0.0823938
0.0794558
0.0766111
0.0738659
0.0712045
0.0686321
0.0661393
0.0637317
0.0614063
0.0591629
0.056997
0.0549095
0.0529028
0.0509849
0.0491631
0.0474336
0.0457864
0.0442138
0.0427026
0.0412515
0.039861
0.0385293
0.0372518
0.0360238
0.0348358
0.0336803
0.0325531
0.0314554
0.0303961
0.0293893
0.0284417
0.0275476
0.0266954
0.0258683
0.02505
0.0242404
0.0234511
0.0226931
0.0219707
0.0212766
0.0205943
0.0199126
0.019231
0.0185485
0.0178665
0.017192
0.0165353
0.0159067
0.0153115
0.0147467
0.0142036
0.0136762
0.0131632
0.0126655
0.0121835
0.0117166
0.0112633
0.0108209
0.0103873
0.00996174
0.00954531
0.00914066
0.00875285
0.00837473
0.00801208
0.00765894
0.00731207
0.00696927
0.00662874
0.00628931
0.0059505
0.00561166
0.00527222
0.00493241
0.00459322
0.0042559
0.00392083
0.00358664
0.00325199
0.00291511
0.00257533
0.00223365
0.00189364
0.00155612
0.00122261
0.000889949
0.000548576
0.000183411
0.136164
0.128742
0.122432
0.116836
0.111798
0.107206
0.102978
0.0990501
0.0953703
0.0918941
0.0885831
0.0854199
0.0823738
0.0794397
0.0765986
0.0738558
0.0711971
0.0686267
0.0661358
0.0637292
0.0614045
0.0591605
0.0569937
0.0549046
0.0528968
0.0509783
0.0491566
0.047428
0.0457826
0.044212
0.0427032
0.0412548
0.0398671
0.038538
0.0372631
0.0360378
0.034853
0.0337009
0.0325769
0.0314818
0.0304242
0.0294176
0.0284681
0.0275707
0.0267151
0.0258862
0.0250685
0.0242599
0.0234707
0.0227115
0.0219874
0.0212932
0.0206134
0.019935
0.0192555
0.0185738
0.0178911
0.0172139
0.0165534
0.0159211
0.0153234
0.0147583
0.0142168
0.0136908
0.013178
0.0126788
0.0121935
0.0117223
0.0112644
0.0108178
0.0103808
0.00995311
0.0095362
0.00913243
0.00874503
0.00836823
0.00800467
0.00764935
0.00729988
0.00695482
0.0066128
0.00627269
0.00593387
0.00559572
0.00525781
0.00492052
0.00458422
0.00424969
0.00391767
0.00358686
0.00325515
0.0029206
0.00258264
0.00224261
0.00190356
0.00156661
0.00123299
0.000898905
0.000554331
0.000184768
0.136156
0.128622
0.122301
0.116714
0.11169
0.107113
0.1029
0.0989846
0.095317
0.0918513
0.0885497
0.0853936
0.0823534
0.0794232
0.0765857
0.0738455
0.0711896
0.0686213
0.0661323
0.0637268
0.0614027
0.0591581
0.0569901
0.0548995
0.0528906
0.0509716
0.0491499
0.047422
0.0457781
0.0442096
0.0427033
0.041258
0.0398733
0.0385471
0.0372749
0.0360526
0.0348714
0.0337232
0.032603
0.031511
0.0304556
0.0294489
0.0284967
0.0275949
0.0267345
0.0259029
0.0250856
0.0242786
0.02349
0.02273
0.0220045
0.0213102
0.0206331
0.0199584
0.0192814
0.0186009
0.0179177
0.0172377
0.0165728
0.015936
0.0153351
0.0147691
0.0142289
0.0137048
0.0131924
0.0126918
0.0122036
0.011728
0.011265
0.010814
0.0103737
0.00994431
0.00952728
0.00912457
0.00873756
0.00836146
0.00799637
0.00763839
0.00728611
0.00693873
0.00659518
0.0062544
0.00591576
0.00557868
0.00524253
0.00490753
0.00457434
0.0042438
0.00391591
0.00358886
0.0032603
0.00292829
0.00259229
0.00225388
0.00191562
0.00157865
0.00124383
0.000907124
0.000558419
0.000185267
0.136151
0.128496
0.122164
0.116587
0.111578
0.107016
0.102818
0.0989171
0.0952621
0.0918072
0.0885153
0.0853666
0.0823324
0.0794064
0.0765726
0.073835
0.0711819
0.0686157
0.0661288
0.0637243
0.0614008
0.0591555
0.0569864
0.0548942
0.0528842
0.0509648
0.049143
0.0474156
0.0457732
0.0442065
0.0427029
0.0412609
0.0398796
0.0385564
0.0372872
0.0360681
0.034891
0.0337474
0.0326315
0.0315431
0.0304899
0.029483
0.0285273
0.02762
0.0267538
0.0259185
0.0251014
0.0242966
0.0235092
0.0227488
0.0220224
0.0213282
0.0206536
0.019983
0.0193089
0.0186299
0.0179464
0.0172633
0.0165934
0.0159514
0.0153466
0.0147791
0.01424
0.0137177
0.0132061
0.0127044
0.0122132
0.0117334
0.0112656
0.0108101
0.0103666
0.00993539
0.00951819
0.00911641
0.00872981
0.00835373
0.00798678
0.00762583
0.00727061
0.00692094
0.00657593
0.00623457
0.00589614
0.00556017
0.00522632
0.00489481
0.004566
0.0042401
0.00391645
0.00359299
0.00326735
0.00293771
0.0026036
0.00226661
0.00192889
0.00159155
0.00125435
0.000913816
0.000560512
0.000184943
0.136149
0.128361
0.12202
0.116455
0.111461
0.106916
0.102734
0.0988473
0.0952056
0.0917619
0.0884801
0.0853391
0.0823111
0.0793893
0.0765592
0.0738243
0.0711741
0.06861
0.0661252
0.063722
0.0613989
0.0591528
0.0569824
0.0548886
0.0528775
0.0509576
0.0491358
0.0474089
0.0457677
0.0442028
0.0427021
0.0412638
0.0398861
0.0385662
0.0373001
0.0360846
0.0349119
0.0337734
0.0326625
0.0315779
0.0305268
0.0295193
0.0285596
0.027646
0.026773
0.0259332
0.0251163
0.0243143
0.0235289
0.0227687
0.0220415
0.0213474
0.0206753
0.0200087
0.0193379
0.0186607
0.0179767
0.0172904
0.0166151
0.0159672
0.0153578
0.0147884
0.01425
0.0137297
0.0132192
0.0127164
0.0122224
0.0117383
0.0112657
0.0108059
0.0103591
0.00992625
0.00950887
0.00910792