/*--------------------------------*- C++ -*----------------------------------*\
| =========                 |                                                 |
| \\      /  F ield         | OpenFOAM: The Open Source CFD Toolbox           |
|  \\    /   O peration     | Version:  4.1                                   |
|   \\  /    A nd           | Web:      www.OpenFOAM.org                      |
|    \\/     M anipulation  |                                                 |
\*---------------------------------------------------------------------------*/
FoamFile
{
    version     2.0;
    format      ascii;
    class       surfaceScalarField;
    location    "6";
    object      phi;
}
// * * * * * * * * * * * * * * * * * * * * * * * * * * * * * * * * * * * * * //

dimensions      [0 3 -1 0 0 0 0];

internalField   nonuniform List<scalar> 
52920
(
16.8503
-0.00360171
16.832
0.0182578
16.7925
0.0395414
16.7333
0.0592224
16.6558
0.0774709
16.5618
0.0939838
16.4527
0.10907
16.3301
0.12266
16.195
0.135098
16.0486
0.146352
15.892
0.156658
15.726
0.165928
15.5518
0.174277
15.3699
0.181845
15.1816
0.188359
14.9873
0.194277
14.788
0.199264
14.5844
0.203644
14.377
0.207363
14.1664
0.210584
13.9533
0.213128
13.7379
0.215395
13.5207
0.217152
13.3023
0.218442
13.0827
0.219575
12.8626
0.22014
12.6422
0.220437
12.4216
0.220579
12.2013
0.220322
11.9814
0.219862
11.7621
0.219253
11.5439
0.218194
11.327
0.216955
11.1113
0.215664
10.8973
0.214021
10.685
0.212261
10.4747
0.210348
10.2668
0.207932
10.0615
0.205264
9.85902
0.202473
9.65952
0.199502
9.4628
0.196723
9.26858
0.194212
9.07683
0.19175
8.88757
0.189266
8.70104
0.18653
8.51768
0.183356
8.33779
0.179889
8.16138
0.176417
7.9882
0.173173
7.81802
0.17018
7.65071
0.167314
7.48635
0.164362
7.32524
0.161111
7.16776
0.157477
7.01423
0.153526
6.86482
0.149418
6.71944
0.14538
6.57786
0.141576
6.43986
0.138
6.30533
0.134527
6.17436
0.130972
6.04714
0.127223
5.92381
0.123324
5.80442
0.119388
5.68892
0.115503
5.5772
0.111719
5.4692
0.108003
5.36491
0.104287
5.26438
0.100528
5.16768
0.0967065
5.07485
0.0928259
4.98591
0.0889387
4.9006
0.0853078
4.81887
0.0817334
4.74102
0.0778446
4.66714
0.0738793
4.59726
0.0698819
4.53139
0.0658702
4.46954
0.0618537
4.41171
0.0578323
4.3579
0.0538011
4.30816
0.0497434
4.26253
0.0456346
4.22107
0.0414611
4.18385
0.0372153
4.15096
0.0328889
4.12248
0.0284774
4.0985
0.0239801
4.0791
0.0194007
4.06434
0.0147542
4.05428
0.0100594
4.04896
0.00532304
4.04842
0.000536201
4.05273
-0.00430791
4.06188
-0.00914827
4.07609
-0.014216
4.09556
-0.0194615
4.12041
-0.0248521
-0.0303216
16.8501
-0.00736178
16.8318
0.036516
16.7923
0.0791032
16.733
0.118458
16.6555
0.154967
16.5615
0.187976
16.4524
0.218151
16.3298
0.24533
16.1947
0.2702
16.0483
0.292713
15.8917
0.313315
15.7257
0.331887
15.5514
0.348566
15.3695
0.363738
15.1811
0.376743
14.9868
0.388591
14.7875
0.398544
14.5839
0.407287
14.3766
0.414702
14.166
0.421152
13.9529
0.42626
13.7374
0.430803
13.5202
0.434368
13.3017
0.436931
13.0821
0.439199
12.8619
0.44032
12.6415
0.44087
12.4209
0.441171
12.2006
0.440669
11.9807
0.439708
11.7615
0.438499
11.5433
0.436399
11.3264
0.433874
11.1107
0.431321
10.8966
0.428072
10.6844
0.424518
10.474
0.420732
10.266
0.41593
10.0607
0.410538
9.85823
0.404962
9.6587
0.399034
9.462
0.393425
9.26779
0.388426
9.076
0.383538
8.88672
0.378545
8.70021
0.373043
8.51691
0.366649
8.33713
0.359674
8.16079
0.352755
7.98763
0.346335
7.81741
0.340399
7.65004
0.334678
7.48563
0.328776
7.32448
0.322264
7.16699
0.314961
7.0135
0.307018
6.86415
0.298771
6.71883
0.290698
6.57727
0.283139
6.43923
0.276037
6.30466
0.269095
6.17368
0.261957
6.04648
0.254422
5.9232
0.246603
5.80384
0.238745
5.68834
0.23101
5.57659
0.22346
5.46855
0.216042
5.36423
0.208613
5.26367
0.201086
5.16693
0.193441
5.07407
0.185683
4.9851
0.177908
4.89979
0.17062
4.81803
0.163493
4.74017
0.155706
4.66628
0.147764
4.59641
0.139756
4.53056
0.131719
4.46874
0.123677
4.41094
0.11563
4.35717
0.107565
4.30747
0.0994495
4.26187
0.0912327
4.22045
0.0828833
4.18327
0.0743923
4.15041
0.065745
4.12197
0.0569243
4.09801
0.0479287
4.07864
0.0387736
4.0639
0.0294906
4.05384
0.020117
4.04849
0.0106719
4.0479
0.00112509
4.05214
-0.00854863
4.06123
-0.0182355
4.07539
-0.028371
4.09478
-0.038852
4.11954
-0.0496155
-0.060542
16.8496
-0.0111848
16.8314
0.0547902
16.7918
0.118694
16.7325
0.177728
16.655
0.232498
16.561
0.281996
16.4519
0.327249
16.3292
0.368022
16.1941
0.405307
16.0477
0.439092
15.891
0.469979
15.725
0.497892
15.5507
0.522911
15.3687
0.545708
15.1802
0.565211
14.9859
0.582956
14.7866
0.597834
14.583
0.610903
14.3757
0.621984
14.1651
0.63169
13.952
0.639441
13.7365
0.646286
13.5191
0.651709
13.3005
0.65554
13.0808
0.658883
12.8606
0.660569
12.6401
0.661336
12.4195
0.661769
12.1992
0.661047
11.9793
0.659542
11.7601
0.657692
11.5419
0.654599
11.325
0.65078
11.1094
0.646946
10.8953
0.642161
10.683
0.636806
10.4726
0.631138
10.2645
0.624028
10.0592
0.61589
9.85662
0.6075
9.65699
0.598656
9.46024
0.590178
9.26602
0.582647
9.07423
0.575324
8.88503
0.56775
8.69866
0.55941
8.51552
0.549794
8.33582
0.539369
8.15951
0.529074
7.98632
0.519522
7.81606
0.51066
7.64867
0.502069
7.48425
0.493191
7.32311
0.483409
7.16566
0.472406
7.01224
0.460441
6.86293
0.44808
6.71762
0.436012
6.57603
0.424721
6.43798
0.414091
6.30344
0.403637
6.17252
0.392872
6.04539
0.381553
5.92215
0.36984
5.8028
0.358103
5.68725
0.346558
5.57545
0.335258
5.46736
0.32413
5.36298
0.31299
5.26237
0.301701
5.16557
0.29024
5.07263
0.27862
4.98358
0.26696
4.89823
0.255968
4.81641
0.245317
4.7385
0.23361
4.66461
0.221661
4.59475
0.209616
4.52894
0.197526
4.46718
0.185434
4.40946
0.17335
4.35578
0.161241
4.30618
0.149053
4.26069
0.136723
4.21937
0.124206
4.18228
0.111477
4.14951
0.0985152
4.12114
0.085297
4.09724
0.0718197
4.0779
0.0581129
4.06316
0.0442327
4.05304
0.0302307
4.0476
0.0161117
4.0469
0.00182295
4.05102
-0.0126652
4.05996
-0.0271743
4.07397
-0.0423764
4.09319
-0.0580718
4.11775
-0.0741803
-0.0905868
16.849
-0.0149795
16.8307
0.0730912
16.7911
0.158329
16.7317
0.237049
16.6542
0.310077
16.5601
0.376058
16.451
0.436376
16.3282
0.490746
16.1931
0.540426
16.0467
0.5855
15.89
0.626661
15.724
0.663956
15.5495
0.697347
15.3675
0.72778
15.1789
0.753802
14.9844
0.777385
14.7852
0.797126
14.5816
0.814479
14.3744
0.829202
14.1638
0.842201
13.9506
0.852708
13.735
0.86189
13.5175
0.869215
13.2987
0.874317
13.0789
0.878643
12.8586
0.880899
12.6381
0.88187
12.4175
0.882374
12.1971
0.881446
11.9772
0.879375
11.7581
0.876826
11.5399
0.872787
11.323
0.867695
11.1074
0.862537
10.8933
0.856283
10.6809
0.849152
10.4705
0.841571
10.2623
0.832235
10.0568
0.821365
9.85421
0.810107
9.65448
0.798382
9.45764
0.787022
9.2634
0.776882
9.07166
0.76707
8.88258
0.756826
8.69641
0.745581
8.51344
0.73277
8.33382
0.718983
8.15749
0.7054
7.98427
0.692748
7.81397
0.680959
7.64656
0.669479
7.48216
0.657587
7.32106
0.64451
7.16369
0.62978
7.01036
0.613773
6.8611
0.597339
6.71578
0.581331
6.57418
0.566317
6.43614
0.552134
6.30166
0.538121
6.17084
0.523687
6.0438
0.508598
5.92059
0.493049
5.80121
0.477481
5.6856
0.462168
5.57372
0.447132
5.46556
0.432291
5.36111
0.417445
5.2604
0.402407
5.1635
0.387139
5.07045
0.371667
4.98128
0.356128
4.89588
0.341367
4.81398
0.327218
4.73602
0.311569
4.66212
0.295568
4.59229
0.279447
4.52653
0.263278
4.46486
0.247109
4.40725
0.230961
4.35369
0.214793
4.30422
0.198525
4.25887
0.182074
4.21768
0.165394
4.18071
0.14845
4.14803
0.131193
4.11973
0.113597
4.09588
0.0956727
4.07653
0.0774593
4.06173
0.0590237
4.05153
0.0404335
4.04595
0.021691
4.04509
0.0026856
4.04903
-0.0166089
4.0578
-0.0359474
4.0716
-0.0561742
4.09059
-0.0770597
4.11492
-0.0985135
-0.120441
16.8481
-0.0186575
16.8298
0.0914267
16.7901
0.198021
16.7307
0.296435
16.6531
0.387716
16.559
0.470178
16.4498
0.545545
16.327
0.613517
16.1919
0.675567
16.0454
0.73195
15.8887
0.783379
15.7226
0.830096
15.548
0.8719
15.3658
0.90997
15.1771
0.942536
14.9826
0.971887
14.7833
0.996417
14.5798
1.01802
14.3726
1.03637
14.1621
1.0527
13.9487
1.0661
13.7329
1.07765
13.5152
1.0869
13.2963
1.09329
13.0764
1.09849
12.856
1.10132
12.6354
1.1025
12.4148
1.103
12.1943
1.10186
11.9745
1.09923
11.7554
1.09592
11.5372
1.09097
11.3203
1.08464
11.1047
1.0781
10.8906
1.07043
10.6781
1.06157
10.4677
1.05204
10.2594
1.04054
10.0537
1.02698
9.85106
1.01279
9.65123
0.998212
9.45428
0.983974
9.26002
0.971138
9.06834
0.958751
8.87942
0.945749
8.69345
0.931553
8.51062
0.915592
8.33107
0.89854
8.15471
0.88176
7.98143
0.866027
7.8111
0.851288
7.64369
0.836891
7.47934
0.821933
7.31833
0.805518
7.16107
0.78704
7.00786
0.766986
6.85867
0.74653
6.71335
0.726653
6.57175
0.707917
6.43374
0.690137
6.29935
0.672519
6.16865
0.654385
6.04169
0.635556
5.91849
0.616248
5.79906
0.596907
5.68337
0.577856
5.5714
0.559108
5.46314
0.540554
5.35858
0.522005
5.25775
0.503234
5.16072
0.484165
5.06754
0.464845
4.97824
0.445429
4.89277
0.426836
4.81079
0.409194
4.73278
0.389577
4.65886
0.369489
4.58906
0.349249
4.52337
0.328968
4.46178
0.308696
4.40429
0.288455
4.35088
0.268207
4.30155
0.247851
4.25633
0.227292
4.21525
0.206474
4.17837
0.185336
4.14575
0.163813
4.11747
0.141868
4.09362
0.119528
4.07422
0.0968547
4.05932
0.0739232
4.04896
0.0507934
4.0432
0.0274485
4.04215
0.00373511
4.04589
-0.0203543
4.05446
-0.0445179
4.06807
-0.0697803
4.08685
-0.0958426
4.11098
-0.12264
-0.150125
16.847
-0.0222461
16.8287
0.109792
16.7889
0.237763
16.7295
0.355902
16.6517
0.465429
16.5575
0.56437
16.4483
0.654773
16.3255
0.736351
16.1903
0.810746
16.0438
0.878462
15.887
0.940152
15.7208
0.996325
15.5461
1.04658
15.3638
1.09228
15.1749
1.13142
14.9803
1.16647
14.781
1.19571
14.5775
1.22155
14.3703
1.24354
14.1598
1.26323
13.9463
1.27965
13.7303
1.2936
13.5125
1.30478
13.2933
1.31246
13.0733
1.31845
12.8528
1.32182
12.6321
1.32323
12.4114
1.32366
12.191
1.3223
11.9711
1.31913
11.752
1.31501
11.5338
1.30915
11.3168
1.30165
11.1013
1.29366
10.8871
1.28458
10.6746
1.27407
10.4641
1.26254
10.2557
1.24891
10.05
1.23272
9.84722
1.21557
9.64729
1.19814
9.45022
1.18104
9.25594
1.16542
9.06433
1.15036
8.87555
1.13452
8.68976
1.11735
8.50705
1.0983
8.3275
1.07808
8.15108
1.05818
7.97773
1.03938
7.80738
1.02164
7.64
1.00427
7.47575
0.986183
7.3149
0.966372
7.15781
0.944125
7.00476
0.92004
6.85566
0.895631
6.71035
0.871961
6.56876
0.849508
6.43082
0.828075
6.29653
0.806816
6.16592
0.784989
6.03902
0.762462
5.9158
0.739465
5.7963
0.716406
5.68052
0.693638
5.56843
0.671192
5.46005
0.648936
5.35537
0.626687
5.2544
0.604199
5.15723
0.581338
5.06391
0.558164
4.97448
0.534862
4.88893
0.51238
4.80689
0.491242
4.72883
0.467629
4.6549
0.443422
4.58512
0.41903
4.51948
0.394602
4.45798
0.370201
4.40059
0.345848
4.34729
0.321503
4.29809
0.297058
4.25296
0.272422
4.21194
0.247494
4.17509
0.222184
4.14248
0.196419
4.11419
0.170162
4.09026
0.143451
4.07074
0.116369
4.05567
0.0889906
4.04511
0.0613589
4.03912
0.0334361
4.03784
0.00501213
4.04138
-0.0238975
4.04978
-0.0529181
4.06323
-0.0832234
4.08186
-0.114478
4.10586
-0.146638
-0.179691
16.8457
-0.02603
16.8273
0.128215
16.7875
0.27758
16.7279
0.415463
16.6501
0.54323
16.5559
0.65865
16.4466
0.764076
16.3236
0.859268
16.1884
0.945988
16.0418
1.02506
15.885
1.097
15.7186
1.16265
15.5438
1.2214
15.3614
1.27471
15.1724
1.32043
14.9777
1.36113
14.7784
1.39504
14.5748
1.4251
14.3676
1.45075
14.157
1.47383
13.9433
1.49338
13.7271
1.50974
13.5091
1.52282
13.2897
1.53182
13.0697
1.53851
12.8491
1.54241
12.6282
1.54409
12.4075
1.54437
12.1871
1.54277
11.9671
1.53912
11.7479
1.53415
11.5297
1.52737
11.3126
1.51873
11.097
1.50924
10.8829
1.49872
10.6703
1.48662
10.4598
1.47305
10.2514
1.45729
10.0456
1.43855
9.84275
1.41842
9.64273
1.39816
9.44554
1.37823
9.25121
1.35975
9.05966
1.34192
8.871
1.32318
8.68533
1.30303
8.50266
1.28097
8.32308
1.25767
8.14656
1.2347
7.97313
1.21281
7.80277
1.19199
7.63548
1.17157
7.47138
1.15028
7.31075
1.127
7.15392
1.10096
7.00106
1.07291
6.85206
1.04463
6.70679
1.01723
6.56523
0.99107
6.42736
0.96594
6.29316
0.941021
6.16262
0.915531
6.03573
0.889351
5.91247
0.862726
5.79287
0.836
5.67698
0.809532
5.56477
0.783398
5.45626
0.75745
5.35145
0.731496
5.25036
0.705288
5.15305
0.678651
5.05959
0.651616
4.97005
0.624408
4.88443
0.597992
4.80233
0.573349
4.72424
0.545719
4.65029
0.517369
4.58052
0.488806
4.51491
0.460207
4.45346
0.431654
4.39613
0.403175
4.3429
0.374731
4.29374
0.346217
4.24864
0.317528
4.20761
0.288516
4.17074
0.259056
4.13809
0.229075
4.1097
0.198545
4.08564
0.167512
4.06594
0.13607
4.05063
0.104296
4.03979
0.0721979
4.03353
0.0396954
4.03202
0.00651781
4.03538
-0.0272563
4.04365
-0.0611878
4.05701
-0.0965876
4.0756
-0.133067
4.09957
-0.170601
-0.209191
16.8442
-0.0299232
16.8258
0.146701
16.7859
0.317483
16.7262
0.475132
16.6483
0.621133
16.5539
0.753034
16.4445
0.873474
16.3215
0.982293
16.1861
1.08132
16.0394
1.17177
15.8825
1.25395
15.7161
1.32909
15.5411
1.39635
15.3586
1.45724
15.1695
1.50956
14.9747
1.55589
14.7753
1.59441
14.5717
1.62873
14.3644
1.65807
14.1536
1.68454
13.9397
1.7073
13.7234
1.72607
13.5052
1.74101
13.2857
1.75136
13.0655
1.75868
12.8448
1.76308
12.6239
1.76506
12.4031
1.76517
12.1825
1.7633
11.9624
1.75923
11.7432
1.7534
11.5249
1.74567
11.3077
1.73592
11.0921
1.72487
10.8779
1.71286
10.6653
1.6992
10.4548
1.68356
10.2465
1.66564
10.0406
1.64442
9.8377
1.62133
9.63759
1.59827
9.44027
1.57555
9.24588
1.55415
9.05434
1.53345
8.86575
1.51178
8.68013
1.48865
8.49744
1.46365
8.31775
1.43735
8.14111
1.41134
7.96759
1.38634
7.79725
1.36233
7.63009
1.33872
7.46623
1.31414
7.30589
1.28734
7.14938
1.25747
6.99673
1.22556
6.84785
1.19351
6.70265
1.16243
6.56113
1.13259
6.42333
1.10374
6.2892
1.07515
6.15869
1.04604
6.03177
1.01626
5.90844
0.986055
5.78873
0.955709
5.67271
0.92556
5.56037
0.895735
5.45172
0.866098
5.34679
0.836431
5.24559
0.806485
5.14818
0.776063
5.05462
0.74517
4.96499
0.714035
4.87933
0.683651
4.79719
0.655492
4.71907
0.623843
4.6451
0.591337
4.5753
0.5586
4.50968
0.525827
4.44823
0.49311
4.3909
0.460502
4.33765
0.42798
4.28845
0.395422
4.24328
0.362695
4.20218
0.329618
4.16521
0.296027
4.13243
0.26185
4.10389
0.227086
4.07962
0.191784
4.05965
0.156035
4.04404
0.11991
4.03287
0.0833669
4.0263
0.0462645
4.02456
0.00824992
4.02782
-0.0305125
4.03608
-0.0694476
4.04949
-0.109998
4.06814
-0.151721
4.09215
-0.194609
-0.23866
16.8426
-0.0338577
16.824
0.165264
16.784
0.357483
16.7242
0.534922
16.6462
0.699152
16.5517
0.847539
16.4422
0.982989
16.319
1.10545
16.1835
1.21678
16.0367
1.31862
15.8796
1.41102
15.7131
1.49564
15.538
1.57141
15.3554
1.63984
15.1662
1.69877
14.9714
1.75073
14.7719
1.79389
14.5681
1.8325
14.3606
1.8656
14.1497
1.89543
13.9356
1.92144
13.719
1.94259
13.5007
1.95931
13.2811
1.97103
13.0608
1.97897
12.84
1.98381
12.619
1.98613
12.3981
1.98607
12.1774
1.98392
11.9572
1.9795
11.7378
1.97281
11.5193
1.96408
11.302
1.95324
11.0863
1.94058
10.8722
1.92697
10.6596
1.91176
10.4492
1.89403
10.2409
1.87389
10.0351
1.85027
9.83209
1.82431
9.6319
1.79846
9.43444
1.77301
9.23994
1.74865
9.04838
1.72501
8.85978
1.70038
8.67414
1.67429
8.49136
1.64644
8.31151
1.6172
8.13472
1.58812
7.96111
1.55995
7.79081
1.53263
7.62385
1.50568
7.46029
1.4777
7.30032
1.44731
7.14417
1.41362
6.99176
1.37798
6.84301
1.34226
6.69789
1.30755
6.55643
1.27405
6.41868
1.24149
6.28459
1.20924
6.15407
1.17657
6.0271
1.14324
5.90367
1.10948
5.78383
1.07555
5.66766
1.04173
5.55519
1.00821
5.44641
0.974872
5.34136
0.941478
5.24009
0.907762
5.14262
0.873526
5.04904
0.838757
4.95938
0.803688
4.87371
0.769326
4.79156
0.737644
4.7134
0.701998
4.63939
0.665349
4.56954
0.628452
4.50384
0.591523
4.4423
0.554653
4.38487
0.517927
4.3315
0.481358
4.28213
0.444784
4.2368
0.408025
4.19554
0.370884
4.15839
0.333175
4.12542
0.294822
4.09664
0.255858
4.07208
0.216341
4.05177
0.176343
4.03578
0.135908
4.02423
0.0949126
4.01743
0.0530611
4.01565
0.0100311
4.01895
-0.0338106
4.02731
-0.0778075
4.04084
-0.123535
4.05962
-0.170495
4.08369
-0.218688
-0.268101
16.8406
-0.0377419
16.822
0.183889
16.7819
0.397589
16.722
0.594843
16.6438
0.777302
16.5492
0.942184
16.4395
1.09265
16.3162
1.22878
16.1806
1.35241
16.0336
1.46565
15.8763
1.56824
15.7097
1.66231
15.5345
1.74655
15.3519
1.82248
15.1626
1.88804
14.9677
1.94566
14.7681
1.99351
14.5641
2.03649
14.3563
2.0734
14.1452
2.10656
13.9308
2.1358
13.7141
2.15928
13.4957
2.1777
13.276
2.1908
13.0556
2.19936
12.8348
2.20461
12.6136
2.20731
12.3926
2.2071
12.1718
2.20468
11.9513
2.19996
11.7317
2.19246
11.5131
2.18266
11.2957
2.1707
11.0798
2.15639
10.8657
2.14107
10.6532
2.12426
10.4429
2.10442
10.2347
2.082
10.029
2.05606
9.82594
2.02733
9.62566
1.99874
9.42804
1.97063
9.23339
1.9433
9.04176
1.91664
8.85308
1.88906
8.66733
1.86004
8.4844
1.82937
8.30434
1.79725
8.1274
1.76507
7.95373
1.73362
7.7835
1.70286
7.61679
1.67239
7.45359
1.6409
7.29403
1.60687
7.13827
1.56938
6.98611
1.53014
6.8375
1.49087
6.69247
1.45258
6.55107
1.41545
6.41335
1.37921
6.27927
1.34332
6.14871
1.30713
6.02164
1.27031
5.89809
1.23303
5.77812
1.19552
5.66179
1.15806
5.54918
1.12082
5.4403
1.08375
5.33517
1.0466
5.23386
1.00908
5.1364
0.970982
5.04285
0.932306
4.95325
0.893285
4.86762
0.854958
4.7855
0.81976
4.70732
0.780183
4.63323
0.739442
4.56325
0.698425
4.4974
0.657378
4.43566
0.61639
4.37802
0.575573
4.32438
0.534991
4.27474
0.494427
4.22913
0.453634
4.1876
0.412414
4.15019
0.370582
4.11694
0.32807
4.08786
0.284938
4.06294
0.24126
4.04222
0.197061
4.02589
0.152238
4.01422
0.10658
4.00743
0.0598493
4.00571
0.0117531
4.00911
-0.0372144
4.01761
-0.0863076
4.0313
-0.137218
4.05018
-0.189383
4.07431
-0.242809
-0.297477
16.8384
-0.0413982
16.8198
0.202456
16.7796
0.437778
16.7196
0.65491
16.6413
0.855596
16.5465
1.03699
16.4366
1.20247
16.3131
1.35229
16.1773
1.48824
16.03
1.61288
15.8726
1.72564
15.7059
1.8291
15.5307
1.92176
15.348
2.00512
15.1587
2.07731
14.9637
2.14067
14.7639
2.19332
14.5596
2.24076
14.3515
2.28155
14.1401
2.31799
13.9255
2.35038
13.7086
2.37614
13.4902
2.39617
13.2703
2.41065
13.0498
2.41984
12.829
2.42547
12.6077
2.42859
12.3865
2.42828
12.1656
2.4256
11.9449
2.42066
11.725
2.41236
11.5062
2.40145
11.2886
2.38831
11.0727
2.37232
10.8586
2.35515
10.6462
2.33666
10.4359
2.3147
10.228
2.28993
10.0223
2.26174
9.81923
2.2304
9.61884
2.19914
9.42104
2.16842
9.2262
2.13814
9.03443
2.10842
8.84561
2.07788
8.65969
2.04595
8.47657
2.0125
8.29629
1.97753
8.11919
1.94217
7.94549
1.90732
7.77537
1.87298
7.60893
1.83882
7.44614
1.80369
7.28703
1.76598
7.13166
1.72476
6.97976
1.68204
6.83128
1.63935
6.68633
1.59753
6.54498
1.5568
6.40726
1.51693
6.27314
1.47744
6.14252
1.43775
6.01534
1.39749
5.89166
1.3567
5.77155
1.31563
5.65508
1.27453
5.54234
1.23356
5.43337
1.19272
5.32821
1.15177
5.2269
1.11039
5.12951
1.06837
5.03607
1.02574
4.94659
0.982765
4.86104
0.940506
4.77901
0.901797
4.70082
0.858369
4.62662
0.813641
4.55646
0.768588
4.49035
0.723489
4.4283
0.678442
4.3703
0.633569
4.31628
0.589011
4.26623
0.544479
4.22022
0.499648
4.17832
0.454316
4.14056
0.408337
4.10697
0.361664
4.07754
0.314366
4.05231
0.266485
4.03141
0.217956
4.01505
0.168605
4.00341
0.11821
3.9967
0.0665591
3.99508
0.0133755
3.9986
-0.0407403
4.00724
-0.0949442
4.02104
-0.151022
4.03999
-0.208331
4.06408
-0.266896
-0.326715
16.8361
-0.0453909
16.8174
0.221143
16.7771
0.478089
16.7169
0.715134
16.6384
0.934048
16.5435
1.13197
16.4334
1.31248
16.3097
1.47604
16.1736
1.62431
16.0261
1.76037
15.8685
1.88324
15.7016
1.99602
15.5264
2.097
15.3438
2.18773
15.1545
2.26656
14.9594
2.33575
14.7594
2.39337
14.5548
2.44537
14.3462
2.49012
14.1344
2.52976
13.9196
2.56518
13.7026
2.59315
13.4841
2.6147
13.2642
2.63056
13.0436
2.64041
12.8227
2.64639
12.6013
2.64994
12.38
2.64961
12.1589
2.64671
11.9379
2.64159
11.7177
2.63255
11.4987
2.62046
11.281
2.60608
11.0649
2.58836
10.8508
2.56923
10.6386
2.54894
10.4284
2.52484
10.2206
2.4977
10.0151
2.46731
9.81194
2.43353
9.6114
2.39968
9.4134
2.36643
9.21832
2.33322
9.02636
2.30038
8.83735
2.26689
8.65122
2.23208
8.46789
2.19583
8.2874
2.15801
8.11017
2.1194
7.93648
2.08102
7.76649
2.04297
7.60035
2.00496
7.43798
1.96605
7.27933
1.92463
7.12431
1.87977
6.97265
1.8337
6.82428
1.78772
6.67938
1.74243
6.53806
1.69813
6.40033
1.65466
6.26615
1.61161
6.13544
1.56846
6.00814
1.52479
5.88432
1.48052
5.76408
1.43588
5.64749
1.39112
5.53464
1.34641
5.42562
1.30174
5.32046
1.25692
5.21922
1.21163
5.12196
1.16564
5.02868
1.11902
4.93937
1.07208
4.85392
1.02595
4.77197
0.983755
4.69377
0.936563
4.61945
0.887967
4.54905
0.838987
4.48261
0.789921
4.42017
0.740889
4.36172
0.692019
4.30722
0.643512
4.25669
0.595008
4.21022
0.546113
4.16792
0.496624
4.1298
0.446447
4.09591
0.395561
4.06625
0.34402
4.0409
0.291833
4.01998
0.238875
4.00366
0.184927
3.99211
0.129759
3.9855
0.0731712
3.98398
0.0148945
3.98761
-0.0443787
3.99636
-0.103688
4.01022
-0.164888
4.02914
-0.227247
4.05308
-0.290833
-0.355713
16.8337
-0.0496495
16.8148
0.239954
16.7744
0.518533
16.714
0.775529
16.6354
1.01267
16.5402
1.22715
16.43
1.4227
16.306
1.60003
16.1696
1.76067
16.0219
1.90813
15.864
2.04108
15.697
2.16308
15.5217
2.27228
15.3391
2.3703
15.1499
2.45577
14.9548
2.53091
14.7544
2.59368
14.5494
2.65038
14.3404
2.69916
14.1282
2.74193
13.9132
2.78023
13.696
2.8103
13.4774
2.83331
13.2575
2.85051
13.0368
2.86106
12.8158
2.86738
12.5944
2.87138
12.3729
2.87111
12.1516
2.86803
11.9304
2.86276
11.7099
2.85302
11.4907
2.83972
11.2727
2.82399
11.0566
2.80452
10.8425
2.78332
10.6303
2.7611
10.4203
2.73486
10.2127
2.70531
10.0072
2.67278
9.80402
2.63675
9.60329
2.60041
9.40504
2.56467
9.20968
2.52858
9.01749
2.49258
8.82827
2.45612
8.64192
2.41843
8.45839
2.37936
8.27774
2.33865
8.10042
2.29672
7.92677
2.25466
7.75695
2.21279
7.59109
2.17083
7.42914
2.128
7.27092
2.08285
7.11621
2.03449
6.96473
1.98518
6.81645
1.936
6.67157
1.88731
6.53024
1.83945
6.39247
1.79244
6.25822
1.74587
6.12741
1.69927
6.00001
1.65219
5.87606
1.60447
5.75569
1.55624
5.639
1.50781
5.52609
1.45933
5.41704
1.41079
5.31195
1.36202
5.21083
1.31274
5.11374
1.26274
5.02066
1.2121
4.93152
1.16121
4.84618
1.11129
4.76428
1.06565
4.68606
1.01479
4.61159
0.962442
4.54092
0.909655
4.47412
0.856718
4.41123
0.803782
4.35227
0.75098
4.29725
0.698535
4.24624
0.64601
4.19937
0.592988
4.15671
0.539279
4.11833
0.484834
4.08423
0.429661
4.05445
0.373794
4.02907
0.317212
4.00819
0.259753
3.99195
0.201171
3.98049
0.141217
3.97397
0.0796916
3.97254
0.0163204
3.97627
-0.048109
3.98507
-0.112493
3.99892
-0.178734
4.01768
-0.246009
4.04133
-0.314479
-0.38435
16.8311
-0.0541576
16.8121
0.258936
16.7715
0.559124
16.7109
0.836109
16.6321
1.09149
16.5367
1.32254
16.4262
1.53316
16.302
1.7243
16.1653
1.89735
16.0172
2.0562
15.8591
2.19918
15.6919
2.33031
15.5166
2.44757
15.3341
2.5528
15.1449
2.64492
14.9497
2.72612
14.7491
2.79428
14.5437
2.85582
14.3342
2.9087
14.1216
2.95454
13.9063
2.99554
13.6889
3.02762
13.4702
3.05201
13.2502
3.0705
13.0295
3.08179
12.8084
3.08847
12.5869
3.09289
12.3652
3.09276
12.1437
3.08957
11.9223
3.08416
11.7016
3.07374
11.4821
3.05922
11.264
3.04205
11.0478
3.02079
10.8337
2.99744
10.6216
2.97315
10.4117
2.94476
10.2042
2.91282
9.99877
2.87819
9.79541
2.84011
9.59442
2.8014
9.3959
2.76319
9.20024
2.72424
9.00779
2.68503
8.81835
2.64555
8.6318
2.60498
8.44812
2.56304
8.26737
2.5194
8.09
2.47409
7.91644
2.42823
7.7468
2.38243
7.5812
2.33642
7.41963
2.28957
7.26181
2.24067
7.10732
2.18897
6.95596
2.13655
6.80771
2.08425
6.66281
2.03221
6.52145
1.98081
6.38363
1.93025
6.24929
1.88021
6.11839
1.83017
5.9909
1.77969
5.86685
1.72851
5.74638
1.67671
5.62963
1.62457
5.51668
1.57228
5.40766
1.51981
5.30266
1.46701
5.20172
1.41368
5.10483
1.35963
5.01195
1.30498
4.92297
1.25019
4.83771
1.19656
4.75585
1.14751
4.67757
1.09307
4.60293
1.03708
4.53199
0.9806
4.46481
0.923892
4.40146
0.867133
4.34198
0.810462
4.28646
0.754054
4.23504
0.697425
4.18784
0.640192
4.14493
0.582187
4.10636
0.523403
4.07215
0.463869
4.04234
0.403605
4.01699
0.342562
3.99618
0.280562
3.98002
0.217331
3.96864
0.152594
3.9622
0.0861316
3.96085
0.0176653
3.96465
-0.0519049
3.97345
-0.121298
3.98716
-0.192443
4.00561
-0.264461
4.0288
-0.337674
-0.412505
16.8282
-0.0588315
16.8091
0.278065
16.7684
0.599874
16.7076
0.896891
16.6286
1.1705
16.5329
1.41817
16.4222
1.64388
16.2976
1.84886
16.1606
2.03437
16.0122
2.20459
15.8538
2.35758
15.6864
2.49772
15.5111
2.62291
15.3286
2.73526
15.1396
2.83399
14.9443
2.92136
14.7434
2.99518
14.5375
3.06169
14.3275
3.11874
14.1144
3.16759
13.8989
3.21111
13.6814
3.24512
13.4625
3.27084
13.2425
3.29056
13.0216
3.30263
12.8004
3.30966
12.5788
3.3145
12.357
3.31457
12.1353
3.31132
11.9137
3.30574
11.6928
3.29466
11.4731
3.27891
11.2549
3.26022
11.0385
3.23715
10.8244
3.21162
10.6124
3.18514
10.4025
3.15461
10.195
3.12031
9.98961
3.08363
9.78604
3.04368
9.58474
3.0027
9.38591
2.96202
9.18993
2.92022
8.99722
2.87774
8.8076
2.83516
8.6209
2.79169
8.43713
2.74681
8.25636
2.70017
8.07901
2.65144
7.90555
2.60169
7.7361
2.55188
7.57074
2.50178
7.40948
2.45084
7.25197
2.39818
7.09762
2.34332
6.94628
2.28789
6.79802
2.23251
6.65306
2.17718
6.51162
2.12225
6.37373
2.06814
6.23932
2.01463
6.10834
1.96115
5.98078
1.90724
5.85667
1.85262
5.73614
1.79724
5.61936
1.74135
5.50644
1.6852
5.39749
1.62876
5.29263
1.57187
5.19189
1.51442
5.0952
1.45632
5.00249
1.39769
4.91364
1.33904
4.82841
1.28179
4.74656
1.22936
4.6682
1.17144
4.59338
1.1119
4.52217
1.05181
4.45463
0.991429
4.39084
0.93092
4.33089
0.87042
4.27495
0.809992
4.22322
0.749158
4.17579
0.68762
4.13272
0.625251
4.09406
0.562066
4.05982
0.498109
4.03003
0.433392
4.00474
0.367851
3.98401
0.301293
3.96793
0.233414
3.95662
0.163897
3.95026
0.0924963
3.94898
0.0189402
3.9528
-0.0557223
3.96149
-0.129996
3.9749
-0.205847
3.99285
-0.282415
4.01543
-0.360255
-0.44007
16.8246
-0.0629239
16.8059
0.296741
16.765
0.640747
16.704
0.957891
16.6248
1.24974
16.5289
1.51405
16.4179
1.75487
16.293
1.97373
16.1557
2.17176
16.0069
2.35334
15.8482
2.51629
15.6806
2.66536
15.5052
2.79831
15.3227
2.91769
15.1337
3.02301
14.9384
3.11665
14.7373
3.19634
14.531
3.26799
14.3204
3.32928
14.1069
3.38112
13.891
3.42699
13.6733
3.46282
13.4543
3.48985
13.2341
3.51073
13.0132
3.5236
12.7918
3.531
12.5701
3.53621
12.3482
3.53653
12.1263
3.53324
11.9046
3.52744
11.6835
3.51571
11.4637
3.49875
11.2454
3.47848
11.0289
3.4536
10.8147
3.42589
10.6027
3.39711
10.3929
3.36445
10.1853
3.32789
9.97971
3.28921
9.77586
3.24753
9.57417
3.20438
9.37501
3.16119
9.17873
3.1165
8.98577
3.0707
8.79603
3.02491
8.60925
2.97847
8.42546
2.9306
8.24476
2.88087
8.06749
2.82871
7.89414
2.77504
7.72488
2.72114
7.55973
2.66693
7.39869
2.61188
7.24138
2.5555
7.08706
2.49764
6.93566
2.43929
6.78732
2.38085
6.64225
2.32226
6.50069
2.26381
6.36272
2.20611
6.22825
2.1491
6.09722
2.09218
5.96964
2.03483
5.84552
1.97674
5.72498
1.91778
5.60821
1.85812
5.49536
1.79805
5.38654
1.73758
5.28185
1.67657
5.1813
1.61496
5.08481
1.55281
4.99223
1.49026
4.90343
1.42784
4.8182
1.36702
4.73634
1.31122
4.65786
1.24991
4.58287
1.18689
4.5114
1.12328
4.44355
1.05929
4.37938
0.995082
4.31904
0.930761
4.26281
0.866228
4.21088
0.80109
4.16333
0.73517
4.1202
0.668381
4.08152
0.600746
4.04731
0.53232
4.01758
0.463114
3.99238
0.393058
3.97173
0.321941
3.95572
0.249419
3.94449
0.175124
3.9382
0.0987856
3.93697
0.0201716
3.94071
-0.0594667
3.94911
-0.138398
3.96197
-0.218709
3.97922
-0.29966
4.00107
-0.382107
-0.46698
16.8215
-0.0676385
16.8025
0.315666
16.7615
0.681808
16.7002
1.01913
16.6208
1.32921
16.5246
1.61021
16.4133
1.86615
16.2881
2.09892
16.1504
2.30951
16.0013
2.50244
15.8422
2.67534
15.6743
2.83325
15.4988
2.97382
15.3164
3.10014
15.1274
3.21201
14.9321
3.31197
14.7306
3.39775
14.524
3.47465
14.313
3.54026
14.099
3.5951
13.8828
3.64319
13.6649
3.68076
13.4456
3.7091
13.2253
3.73106
13.0042
3.74473
12.7826
3.75253
12.5608
3.75804
12.3387
3.75861
12.1167
3.7553
11.8949
3.7492
11.6738
3.7368
11.4539
3.71869
11.2355
3.6968
11.019
3.67012
10.8046
3.64026
10.5926
3.60914
10.3827
3.57438
10.1749
3.53568
9.96904
3.49506
9.76482
3.45175
9.56269
3.40651
9.36318
3.3607
9.16663
3.31305
8.97347
3.26387
8.78365
3.21474
8.59688
3.16524
8.41317
3.11431
8.2326
3.06143
8.05547
3.00584
7.88225
2.94825
7.71316
2.89024
7.54816
2.83193
7.38725
2.7728
7.23
2.71274
7.07561
2.65202
6.92406
2.59084
6.77557
2.52934
6.63034
2.46748
6.48862
2.40553
6.35055
2.34417
6.21605
2.2836
6.08501
2.22322
5.95744
2.1624
5.83337
2.10081
5.71289
2.03826
5.59619
1.97482
5.48347
1.91077
5.37482
1.84623
5.27031
1.78108
5.16995
1.71532
5.07361
1.64916
4.9811
1.58277
4.8923
1.51664
4.80702
1.4523
4.72512
1.39313
4.64652
1.32851
4.57134
1.26207
4.49965
1.19497
4.43153
1.12741
4.36709
1.05953
4.3065
0.991348
4.25011
0.922617
4.1981
0.853099
4.15054
0.782737
4.10743
0.711488
4.0688
0.639373
4.03467
0.566448
4.00505
0.492739
3.97994
0.41817
3.95937
0.342501
3.94345
0.26534
3.9323
0.18627
3.92607
0.105013
3.92481
0.0214399
3.92826
-0.0629244
3.936
-0.146138
3.94799
-0.230703
3.96442
-0.316085
3.98554
-0.403227
-0.493241
16.8182
-0.0729159
16.799
0.334848
16.7577
0.723075
16.6962
1.08062
16.6165
1.40894
16.52
1.70666
16.4085
1.97773
16.283
2.22443
16.1448
2.44764
15.9954
2.65191
15.836
2.83475
15.6678
3.00145
15.4921
3.14951
15.3095
3.28267
15.1205
3.40104
14.9251
3.50734
14.7235
3.59936
14.5166
3.68162
14.3052
3.75164
14.0908
3.80953
13.8742
3.85973
13.656
3.89898
13.4365
3.92863
13.2159
3.95161
12.9946
3.96608
12.7728
3.9743
12.5508
3.98005
12.3286
3.9808
12.1064
3.97745
11.8847
3.97095
11.6636
3.95786
11.4437
3.93864
11.2253
3.91515
11.0088
3.88671
10.7942
3.85478
10.5821
3.8213
10.372
3.78449
10.1638
3.7438
9.95759
3.70132
9.7529
3.65644
9.5503
3.60911
9.35043
3.56057
9.15366
3.50982
8.96035
3.45718
8.77051
3.40457
8.58385
3.3519
8.40028
3.29787
8.21992
3.24179
8.04298
3.18279
7.86989
3.12133
7.70093
3.0592
7.53603
2.99682
7.37513
2.9337
7.2178
2.87007
7.06324
2.80658
6.91145
2.74264
6.76272
2.67807
6.61729
2.61292
6.47537
2.54745
6.33718
2.48237
6.20266
2.41812
6.07168
2.3542
5.94419
2.28989
5.82023
2.22477
5.69988
2.15862
5.58332
2.09138
5.47078
2.02331
5.36233
1.95467
5.25801
1.8854
5.1578
1.81554
5.06155
1.74541
4.96906
1.67526
4.8802
1.60551
4.79483
1.53766
4.71287
1.47508
4.63413
1.40725
4.55877
1.33743
4.48689
1.26685
4.41858
1.19572
4.35397
1.12414
4.2933
1.05202
4.23691
0.979005