# vtk DataFile Version 2.0
track0
ASCII
DATASET POLYDATA
POINTS 6430 float
-0.0205 0.001 1e-05
-0.0204727 0.00100011 1e-05
-0.0204454 0.00100021 1e-05
-0.0204181 0.00100032 1e-05
-0.0203908 0.00100042 1e-05
-0.0203635 0.00100053 1e-05
-0.0200299 0.00100181 1e-05
-0.0196963 0.00100312 1e-05
-0.0193627 0.00100443 1e-05
-0.0190291 0.00100573 1e-05
-0.0186954 0.00100701 1e-05
-0.018369 0.00100821 1e-05
-0.0180425 0.00100944 1e-05
-0.017716 0.00101066 1e-05
-0.0173896 0.00101188 1e-05
-0.0170631 0.00101307 1e-05
-0.0167436 0.00101419 1e-05
-0.0164242 0.00101534 1e-05
-0.0161047 0.00101648 1e-05
-0.0157852 0.00101761 1e-05
-0.0154657 0.00101873 1e-05
-0.0151531 0.00101977 1e-05
-0.0148405 0.00102085 1e-05
-0.0145279 0.00102191 1e-05
-0.0142152 0.00102297 1e-05
-0.0139026 0.00102401 1e-05
-0.0135967 0.00102499 1e-05
-0.0132908 0.00102599 1e-05
-0.0129848 0.00102698 1e-05
-0.0126789 0.00102797 1e-05
-0.012373 0.00102894 1e-05
-0.0120736 0.00102985 1e-05
-0.0117742 0.00103078 1e-05
-0.0114749 0.00103171 1e-05
-0.0111755 0.00103263 1e-05
-0.0108761 0.00103354 1e-05
-0.0105832 0.00103438 1e-05
-0.0102902 0.00103524 1e-05
-0.00999724 0.00103611 1e-05
-0.00970429 0.00103697 1e-05
-0.00941133 0.00103781 1e-05
-0.00912465 0.00103859 1e-05
-0.00883797 0.00103939 1e-05
-0.00855129 0.00104019 1e-05
-0.00826461 0.00104099 1e-05
-0.00797793 0.00104177 1e-05
-0.00769739 0.00104249 1e-05
-0.00741686 0.00104323 1e-05
-0.00713632 0.00104398 1e-05
-0.00685578 0.00104471 1e-05
-0.00657525 0.00104543 1e-05
-0.00630072 0.00104609 1e-05
-0.0060262 0.00104677 1e-05
-0.00575167 0.00104746 1e-05
-0.00547714 0.00104814 1e-05
-0.00520262 0.00104879 1e-05
-0.00493398 0.0010494 1e-05
-0.00466533 0.00105002 1e-05
-0.00439669 0.00105064 1e-05
-0.00412805 0.00105126 1e-05
-0.0038594 0.00105186 1e-05
-0.00359652 0.0010524 1e-05
-0.00333363 0.00105297 1e-05
-0.00307074 0.00105354 1e-05
-0.00280786 0.00105411 1e-05
-0.00254497 0.00105465 1e-05
-0.00228772 0.00105514 1e-05
-0.00203046 0.00105564 1e-05
-0.00177321 0.00105614 1e-05
-0.00151596 0.00105662 1e-05
-0.0012587 0.00105707 1e-05
-0.00100696 0.00105748 1e-05
-0.000755223 0.00105794 1e-05
-0.000503482 0.00105834 1e-05
-0.000251741 0.00105861 1e-05
0 0.00105871 1e-05
0.000329256 0.00105853 1e-05
0.000658511 0.00105851 1e-05
0.000987767 0.00105842 1e-05
0.00131702 0.00105811 1e-05
0.00164628 0.00105749 1e-05
0.00197921 0.00105642 1e-05
0.00231214 0.00105586 1e-05
0.00264507 0.00105544 1e-05
0.002978 0.00105494 1e-05
0.00331093 0.00105415 1e-05
0.00364757 0.0010527 1e-05
0.00398422 0.00105191 1e-05
0.00432087 0.00105131 1e-05
0.00465751 0.00105067 1e-05
0.00499415 0.00104974 1e-05
0.00533455 0.00104802 1e-05
0.00567496 0.00104694 1e-05
0.00601536 0.00104606 1e-05
0.00635577 0.00104512 1e-05
0.00669616 0.00104391 1e-05
0.00704036 0.00104188 1e-05
0.00738456 0.00104044 1e-05
0.00772877 0.00103914 1e-05
0.00807297 0.00103779 1e-05
0.00841716 0.00103619 1e-05
0.0087652 0.00103381 1e-05
0.00911324 0.00103193 1e-05
0.00946129 0.00103013 1e-05
0.00980933 0.00102825 1e-05
0.0101574 0.00102618 1e-05
0.0105093 0.0010234 1e-05
0.0108612 0.00102101 1e-05
0.0112131 0.00101863 1e-05
0.0115651 0.00101617 1e-05
0.011917 0.00101355 1e-05
0.0122728 0.00101032 1e-05
0.0126287 0.00100738 1e-05
0.0129845 0.00100439 1e-05
0.0133404 0.00100131 1e-05
0.0136962 0.000998114 1e-05
0.0140561 0.000994408 1e-05
0.0144159 0.00099089 1e-05
0.0147757 0.000987286 1e-05
0.0151355 0.000983592 1e-05
0.0154954 0.000979807 1e-05
0.0158592 0.000975612 1e-05
0.016223 0.000971506 1e-05
0.0165869 0.000967314 1e-05
0.0169507 0.000963035 1e-05
0.0173145 0.000958667 1e-05
0.0176824 0.000953994 1e-05
0.0180503 0.000949332 1e-05
0.0184182 0.000944592 1e-05
0.0187861 0.000939771 1e-05
0.019154 0.00093487 1e-05
0.019526 0.000929741 1e-05
0.019898 0.000924573 1e-05
0.02027 0.000919335 1e-05
0.020642 0.000914026 1e-05
0.0210141 0.000908644 1e-05
0.0213902 0.000903093 1e-05
0.0217664 0.000897473 1e-05
0.0221425 0.000891792 1e-05
0.0225187 0.000886048 1e-05
0.0228948 0.000880241 1e-05
0.0232752 0.0008743 1e-05
0.0236555 0.000868282 1e-05
0.0240359 0.00086221 1e-05
0.0244162 0.000856083 1e-05
0.0247966 0.000849901 1e-05
0.0251386 0.000844297 1e-05
0.0254806 0.000838638 1e-05
0.0258226 0.000832941 1e-05
0.0261646 0.000827205 1e-05
0.02648 0.00082188 1e-05
0.0265279 0.000821066 1e-05
0.0265758 0.000820251 1e-05
0.0266238 0.000819436 1e-05
0.0266717 0.000818619 1e-05
0.0267196 0.000817802 1e-05
0.0271085 0.00081117 1e-05
0.0274973 0.000804487 1e-05
0.0278862 0.000797757 1e-05
0.0282751 0.000790981 1e-05
0.028664 0.000784158 1e-05
0.0290572 0.000777273 1e-05
0.0294505 0.000770297 1e-05
0.0298437 0.000763275 1e-05
0.0302369 0.000756207 1e-05
0.0306301 0.000749092 1e-05
0.0310278 0.000741955 1e-05
0.0314254 0.000734695 1e-05
0.031823 0.000727386 1e-05
0.0322206 0.00072003 1e-05
0.0326182 0.000712623 1e-05
0.0330203 0.00070522 1e-05
0.0334223 0.000697666 1e-05
0.0338244 0.00069006 1e-05
0.0342264 0.000682399 1e-05
0.0346285 0.000674684 1e-05
0.035035 0.000666987 1e-05
0.0354416 0.000659113 1e-05
0.0358481 0.000651179 1e-05
0.0362546 0.000643183 1e-05
0.0366612 0.000635138 1e-05
0.0370722 0.000627104 1e-05
0.0374833 0.000618889 1e-05
0.0378944 0.000610582 1e-05
0.0383055 0.000602202 1e-05
0.0387166 0.000593796 1e-05
0.0391322 0.000585369 1e-05
0.0395479 0.000576759 1e-05
0.0399635 0.000568018 1e-05
0.0403792 0.000559193 1e-05
0.0407949 0.000550356 1e-05
0.0412152 0.000541467 1e-05
0.0416355 0.000532388 1e-05
0.0420558 0.000523142 1e-05
0.042476 0.000513796 1e-05
0.0428964 0.000504448 1e-05
0.0433214 0.000495016 1e-05
0.0437463 0.000485385 1e-05
0.0441713 0.000475553 1e-05
0.0445963 0.000465611 1e-05
0.0450213 0.000455663 1e-05
0.0454511 0.000445598 1e-05
0.0458808 0.000435321 1e-05
0.0463105 0.000424832 1e-05
0.0467402 0.000414218 1e-05
0.04717 0.000403571 1e-05
0.0476045 0.000392773 1e-05
0.048039 0.00038175 1e-05
0.0484736 0.0003705 1e-05
0.0489081 0.00035911 1e-05
0.0493426 0.00034766 1e-05
0.049782 0.000336021 1e-05
0.0502214 0.000324142 1e-05
0.0506607 0.000312024 1e-05
0.0511001 0.000299755 1e-05
0.0515395 0.000287389 1e-05
0.0519838 0.000274796 1e-05
0.0524281 0.000261947 1e-05
0.0528723 0.000248871 1e-05
0.0533166 0.000235622 1e-05
0.0537609 0.000222223 1e-05
0.0542102 0.000208556 1e-05
0.0546594 0.000194615 1e-05
0.0551086 0.000180458 1e-05
0.0555578 0.000166102 1e-05
0.0560071 0.000151547 1e-05
0.0564614 0.000136681 1e-05
0.0569156 0.000121533 1e-05
0.0573698 0.000106163 1e-05
0.0578241 9.05705e-05 1e-05
0.0582784 7.47519e-05 1e-05
0.0587023 5.98015e-05 1e-05
0.0591263 4.46159e-05 1e-05
0.0595502 2.92196e-05 1e-05
0.0599742 1.36119e-05 1e-05
0.0603389 0 1e-05
0.0603861 -1.78206e-06 1e-05
0.0604333 -3.5667e-06 1e-05
0.0604806 -5.35391e-06 1e-05
0.0605278 -7.14372e-06 1e-05
0.060575 -8.93614e-06 1e-05
0.0610394 -2.65926e-05 1e-05
0.0615038 -4.45184e-05 1e-05
0.0619683 -6.27112e-05 1e-05
0.0624327 -8.11717e-05 1e-05
0.0628972 -9.99049e-05 1e-05
0.0633668 -0.000119081 1e-05
0.0638364 -0.000138581 1e-05
0.064306 -0.000158372 1e-05
0.0647756 -0.000178457 1e-05
0.0652453 -0.000198842 1e-05
0.0657202 -0.000219685 1e-05
0.0661951 -0.000240896 1e-05
0.0666699 -0.00026243 1e-05
0.0671447 -0.000284284 1e-05
0.0676197 -0.000306442 1e-05
0.0680998 -0.000329101 1e-05
0.06858 -0.00035215 1e-05
0.0690601 -0.000375574 1e-05
0.0695402 -0.000399346 1e-05
0.0700205 -0.000423421 1e-05
0.070506 -0.000448052 1e-05
0.0709916 -0.000473094 1e-05
0.071477 -0.000498548 1e-05
0.0719625 -0.000524368 1e-05
0.0724481 -0.000550519 1e-05
0.0729391 -0.000577281 1e-05
0.07343 -0.000604477 1e-05
0.0739209 -0.000632108 1e-05
0.0744118 -0.000660126 1e-05
0.0749029 -0.000688515 1e-05
0.0753993 -0.000717573 1e-05
0.0758957 -0.00074709 1e-05
0.0763921 -0.000777038 1e-05
0.0768884 -0.000807401 1e-05
0.077385 -0.000838194 1e-05
0.0778869 -0.00086972 1e-05
0.0783889 -0.000901718 1e-05
0.0788908 -0.000934158 1e-05
0.0793927 -0.000967042 1e-05
0.0798948 -0.00100039 1e-05
0.079963 -0.00100498 1e-05
0.0800311 -0.00100958 1e-05
0.0800993 -0.00101419 1e-05
0.0801675 -0.0010188 1e-05
0.0802344 -0.00102334 1e-05
0.080674 -0.00105321 1e-05
0.0811136 -0.00108343 1e-05
0.0815532 -0.001114 1e-05
0.0819928 -0.00114492 1e-05
0.0824326 -0.00117621 1e-05
0.0829458 -0.00121311 1e-05
0.083459 -0.00125053 1e-05
0.0839722 -0.00128845 1e-05
0.0844853 -0.00132686 1e-05
0.0849987 -0.00136579 1e-05
0.0855177 -0.00140558 1e-05
0.0860366 -0.00144593 1e-05
0.0865555 -0.00148685 1e-05
0.0870743 -0.00152829 1e-05
0.0875935 -0.00157023 1e-05
0.0881183 -0.00161311 1e-05
0.088643 -0.00165657 1e-05
0.0891676 -0.00170064 1e-05
0.0896922 -0.00174526 1e-05
0.0902172 -0.00179042 1e-05
0.0907478 -0.00183657 1e-05
0.0912784 -0.00188336 1e-05
0.0918089 -0.00193073 1e-05
0.0923393 -0.00197867 1e-05
0.0928702 -0.00202724 1e-05
0.0931109 -0.00204951 1e-05
0.0933515 -0.00207191 1e-05
0.0935921 -0.00209443 1e-05
0.0938327 -0.00211707 1e-05
0.09406 -0.00213858 1e-05
0.0943586 -0.00216697 1e-05
0.0946571 -0.00219555 1e-05
0.0949557 -0.00222431 1e-05
0.0952542 -0.00225326 1e-05
0.0955528 -0.00228241 1e-05
0.0960954 -0.00233567 1e-05
0.0966378 -0.00238958 1e-05
0.0971802 -0.00244412 1e-05
0.0977225 -0.00249928 1e-05
0.0982654 -0.00255512 1e-05
0.098814 -0.00261212 1e-05
0.0993624 -0.00266981 1e-05
0.0999109 -0.00272821 1e-05
0.100459 -0.00278725 1e-05
0.101008 -0.00284698 1e-05
0.101563 -0.00290794 1e-05
0.102117 -0.00296964 1e-05
0.102672 -0.00303205 1e-05
0.103226 -0.00309513 1e-05
0.103782 -0.00315898 1e-05
0.104117 -0.00319798 1e-05
0.104453 -0.00323725 1e-05
0.104788 -0.00327678 1e-05
0.105124 -0.00331656 1e-05
0.105437 -0.00335397 1e-05
0.105667 -0.00338155 1e-05
0.105897 -0.00340925 1e-05
0.106127 -0.00343706 1e-05
0.106356 -0.00346499 1e-05
0.106586 -0.00349306 1e-05
0.107153 -0.0035626 1e-05
0.10772 -0.00363289 1e-05
0.108287 -0.0037039 1e-05
0.108854 -0.00377564 1e-05
0.109422 -0.0038482 1e-05
0.109995 -0.00392219 1e-05
0.110568 -0.00399698 1e-05
0.111142 -0.00407258 1e-05
0.111715 -0.00414894 1e-05
0.112289 -0.00422614 1e-05
[...]
POINT_DATA 6430
 FIELD attributes 1
U 3 6430 float
6.81883 	0.0266731 	0 6.80785 	0.0265194 	0 6.79687 	0.0263657 	0 6.78589 	0.026212 	0 6.7749 	0.0260583 	0 6.76392 	0.0259046 	0 6.89478 	0.0272266 	0 6.89908 	0.0270774 	0 6.89461 	0.0268263 	0 6.87858 	0.026443 	0 6.74114 	0.0246711 	0 6.87207 	0.025891 	0 6.88174 	0.0257985 	0 6.87749 	0.0255555 	0 6.85687 	0.0251381 	0 6.71952 	0.0234776 	0 6.85018 	0.0246216 	0 6.8648 	0.0245781 	0 6.86077 	0.0243438 	0 6.83591 	0.0238992 	0 6.69899 	0.0223235 	0 6.8291 	0.0234101 	0 6.84826 	0.0234095 	0 6.84444 	0.0231837 	0 6.81569 	0.0227159 	0 6.67953 	0.0212057 	0 6.80883 	0.0222471 	0 6.83213 	0.0222841 	0 6.8285 	0.0220658 	0 6.79623 	0.0215774 	0 6.66107 	0.0201182 	0 6.78935 	0.0211222 	0 6.8164 	0.0211915 	0 6.81297 	0.0209794 	0 6.77753 	0.0204714 	0 6.64358 	0.0190525 	0 6.77067 	0.020023 	0 6.80108 	0.0201194 	0 6.79784 	0.0199116 	0 6.75958 	0.0193845 	0 6.62704 	0.017998 	0 6.75278 	0.0189364 	0 6.78619 	0.019054 	0 6.78314 	0.0188474 	0 6.7424 	0.0183003 	0 6.61142 	0.0169383 	0 6.73568 	0.0178417 	0 6.77175 	0.0179749 	0 6.76888 	0.0177681 	0 6.72599 	0.017203 	0 6.59672 	0.0158647 	0 6.71941 	0.0167366 	0 6.75778 	0.0168774 	0 6.75508 	0.016662 	0 6.71035 	0.0160689 	0 6.58288 	0.0147326 	0 6.70389 	0.0155444 	0 6.74427 	0.0156875 	0 6.74181 	0.0154754 	0 6.69563 	0.0148825 	0 6.57016 	0.0135992 	0 6.68946 	0.0144512 	0 6.73144 	0.0146424 	0 6.72904 	0.0144541 	0 6.68153 	0.0138262 	0 6.55793 	0.0124569 	0 6.67558 	0.0130104 	0 6.71932 	0.01296 	0 6.71758 	0.0125381 	0 6.66964 	0.0117971 	0 6.5486 	0.0105515 	0 6.665 	0.0122382 	0 6.70893 	0.0107335 	0 6.70549 	0.00714608 	0 6.6546 	0.00255591 	0 6.53255 	-0.00353738 	0 6.64603 	-0.000392322 	0 6.68612 	-0.00182358 	0 6.67712 	-0.00630956 	0 6.62126 	-0.0124079 	0 6.49479 	-0.0209363 	0 6.60651 	-0.0110627 	0 6.64206 	-0.00830109 	0 6.62961 	-0.0100089 	0 6.57266 	-0.0156531 	0 6.44291 	-0.0277303 	0 6.55574 	-0.0154605 	0 6.58775 	-0.0115791 	0 6.57354 	-0.0124825 	0 6.51707 	-0.0181071 	0 6.38347 	-0.0323296 	0 6.49652 	-0.0204421 	0 6.5237 	-0.0170165 	0 6.50749 	-0.0178556 	0 6.45244 	-0.0230043 	0 6.31548 	-0.0372207 	0 6.42708 	-0.0268114 	0 6.44808 	-0.024378 	0 6.43046 	-0.0253387 	0 6.37917 	-0.0296482 	0 6.24097 	-0.0425949 	0 6.34892 	-0.0342517 	0 6.36231 	-0.0330292 	0 6.34399 	-0.03419 	0 6.29924 	-0.0375613 	0 6.1627 	-0.0486132 	0 6.26412 	-0.0425058 	0 6.26827 	-0.0424192 	0 6.24962 	-0.0437414 	0 6.21374 	-0.0462181 	0 6.08205 	-0.0551326 	0 6.17392 	-0.0510802 	0 6.1677 	-0.0518463 	0 6.14888 	-0.0532289 	0 6.12336 	-0.0549573 	0 5.99963 	-0.0617872 	0 6.07946 	-0.0594506 	0 6.06278 	-0.0607096 	0 6.04395 	-0.0620476 	0 6.02494 	-0.0633915 	0 5.91599 	-0.0682053 	0 5.97465 	-0.0674195 	0 5.95612 	-0.0686244 	0 5.93743 	-0.0698339 	0 5.91857 	-0.0710482 	0 5.83171 	-0.0740855 	0 5.8687 	-0.0743575 	0 5.85046 	-0.0753862 	0 5.83208 	-0.0764186 	0 5.81354 	-0.0774548 	0 5.74761 	-0.0792378 	0 5.76604 	-0.0801015 	0 5.74827 	-0.0809426 	0 5.73038 	-0.0817865 	0 5.71237 	-0.0826333 	0 5.66465 	-0.0836018 	0 5.66865 	-0.0846902 	0 5.65154 	-0.0853605 	0 5.63432 	-0.0860328 	0 5.61701 	-0.0867072 	0 5.58391 	-0.087225 	0 5.57788 	-0.0882544 	0 5.56159 	-0.0887876 	0 5.54522 	-0.0893224 	0 5.52877 	-0.0898586 	0 5.50649 	-0.0902292 	0 5.4962 	-0.0909372 	0 5.48256 	-0.0913269 	0 5.46888 	-0.0917175 	0 5.45513 	-0.092109 	0 5.44241 	-0.0924708 	0 5.44043 	-0.0925266 	0 5.43845 	-0.0925825 	0 5.43647 	-0.0926383 	0 5.43449 	-0.0926942 	0 5.43263 	-0.0926446 	0 5.41829 	-0.0931185 	0 5.40368 	-0.0935098 	0 5.38899 	-0.0939018 	0 5.37424 	-0.0942947 	0 5.3604 	-0.093858 	0 5.34879 	-0.0948886 	0 5.3352 	-0.0952694 	0 5.32155 	-0.0956509 	0 5.30784 	-0.096033 	0 5.29558 	-0.0950605 	0 5.28657 	-0.0965283 	0 5.27396 	-0.0969379 	0 5.2613 	-0.0973479 	0 5.24858 	-0.0977583 	0 5.23762 	-0.0964482 	0 5.23102 	-0.0982763 	0 5.21933 	-0.0987495 	0 5.20757 	-0.0992231 	0 5.19575 	-0.0996969 	0 5.18582 	-0.0981943 	0 5.18148 	-0.100346 	0 5.17058 	-0.100914 	0 5.15961 	-0.101482 	0 5.14872 	-0.101884 	0 5.13942 	-0.100452 	0 5.13592 	-0.102632 	0 5.12699 	-0.103611 	0 5.11669 	-0.104301 	0 5.10673 	-0.104426 	0 5.09765 	-0.103353 	0 5.09453 	-0.10553 	0 5.08783 	-0.106985 	0 5.07807 	-0.10782 	0 5.06871 	-0.107757 	0 5.05972 	-0.107011 	0 5.05691 	-0.109234 	0 5.05235 	-0.111147 	0 5.043 	-0.112146 	0 5.03391 	-0.111954 	0 5.02489 	-0.111514 	0 5.0223 	-0.113818 	0 5.01951 	-0.11612 	0 5.01077 	-0.11722 	0 5.00162 	-0.117075 	0 4.99246 	-0.11693 	0 4.99 	-0.119334 	0 4.98733 	-0.121737 	0 4.98058 	-0.123015 	0 4.97122 	-0.123158 	0 4.96183 	-0.1233 	0 4.95938 	-0.125818 	0 4.95673 	-0.128333 	0 4.95171 	-0.129796 	0 4.94206 	-0.130222 	0 4.93236 	-0.130649 	0 4.92983 	-0.133286 	0 4.92705 	-0.135894 	0 4.92294 	-0.137475 	0 4.91356 	-0.138277 	0 4.90347 	-0.138982 	0 4.90075 	-0.141743 	0 4.89724 	-0.144134 	0 4.89262 	-0.145916 	0 4.88518 	-0.147318 	0 4.87463 	-0.148294 	0 4.87161 	-0.151181 	0 4.86703 	-0.153387 	0 4.86182 	-0.155366 	0 4.85638 	-0.157333 	0 4.8453 	-0.158571 	0 4.84157 	-0.161457 	0 4.83588 	-0.163631 	0 4.83001 	-0.165801 	0 4.82396 	-0.167968 	0 4.81498 	-0.169793 	0 4.81021 	-0.172297 	0 4.80431 	-0.174476 	0 4.79823 	-0.176651 	0 4.79198 	-0.178823 	0 4.78646 	-0.180689 	0 4.78601 	-0.180934 	0 4.78556 	-0.181179 	0 4.78511 	-0.181424 	0 4.78465 	-0.181669 	0 4.78406 	-0.181872 	0 4.78006 	-0.184496 	0 4.77559 	-0.187073 	0 4.77096 	-0.189646 	0 4.76615 	-0.192215 	0 4.75953 	-0.194348 	0 4.7579 	-0.197557 	0 4.75274 	-0.200307 	0 4.7474 	-0.203052 	0 4.74189 	-0.205794 	0 4.73265 	-0.207721 	0 4.73315 	-0.211429 	0 4.72775 	-0.214406 	0 4.72166 	-0.217314 	0 4.71387 	-0.219911 	0 4.70311 	-0.221939 	0 4.70281 	-0.22575 	0 4.70033 	-0.229321 	0 4.69342 	-0.232379 	0 4.68243 	-0.234722 	0 4.67059 	-0.236938 	0 4.66942 	-0.240845 	0 4.66801 	-0.244745 	0 4.66055 	-0.247878 	0 4.64778 	-0.250268 	0 4.63482 	-0.252653 	0 4.63271 	-0.256645 	0 4.63035 	-0.26063 	0 4.62293 	-0.263866 	0 4.60964 	-0.266472 	0 4.59551 	-0.269005 	0 4.59241 	-0.27307 	0 4.58608 	-0.276702 	0 4.57724 	-0.280001 	0 4.56776 	-0.283252 	0 4.55244 	-0.285911 	0 4.5471 	-0.289877 	0 4.53725 	-0.293261 	0 4.52714 	-0.296635 	0 4.51677 	-0.300002 	0 4.50534 	-0.303282 	0 4.50442 	-0.303814 	0 4.50295 	-0.304276 	0 4.50148 	-0.304739 	0 4.5 	-0.305202 	0 4.49855 	-0.305655 	0 4.49038 	-0.30867 	0 4.48203 	-0.311679 	0 4.4735 	-0.314682 	0 4.46478 	-0.317678 	0 4.45573 	-0.320297 	0 4.44691 	-0.324275 	0 4.43616 	-0.327792 	0 4.42515 	-0.331301 	0 4.41373 	-0.334608 	0 4.40171 	-0.337472 	0 4.3921 	-0.34155 	0 4.38192 	-0.345549 	0 4.36956 	-0.349034 	0 4.35623 	-0.351923 	0 4.34265 	-0.354806 	0 4.33183 	-0.358865 	0 4.3207 	-0.362913 	0 4.3084 	-0.366405 	0 4.29359 	-0.369312 	0 4.27841 	-0.372187 	0 4.26631 	-0.376206 	0 4.25302 	-0.379767 	0 4.23907 	-0.38313 	0 4.22484 	-0.386482 	0 4.20884 	-0.389507 	0 4.20275 	-0.391255 	0 4.19601 	-0.392741 	0 4.1892 	-0.394225 	0 4.18233 	-0.395706 	0 4.17578 	-0.397104 	0 4.16829 	-0.398986 	0 4.16071 	-0.400865 	0 4.15304 	-0.402741 	0 4.14529 	-0.404613 	0 4.13729 	-0.406183 	0 4.12416 	-0.409891 	0 4.10956 	-0.413203 	0 4.09468 	-0.416503 	0 4.07928 	-0.419546 	0 4.06323 	-0.4222 	0 4.04914 	-0.425918 	0 4.03472 	-0.429622 	0 4.01844 	-0.432716 	0 4.00091 	-0.435254 	0 3.98309 	-0.437784 	0 3.96757 	-0.441364 	0 3.95136 	-0.444711 	0 3.93412 	-0.447605 	0 3.91643 	-0.450442 	0 3.89678 	-0.452821 	0 3.8866 	-0.454864 	0 3.87556 	-0.456523 	0 3.86437 	-0.458152 	0 3.85307 	-0.459777 	0 3.84239 	-0.46129 	0 3.83552 	-0.462457 	0 3.8286 	-0.463621 	0 3.82163 	-0.464783 	0 3.8146 	-0.465938 	0 3.80737 	-0.466831 	0 3.79076 	-0.469879 	0 3.77294 	-0.472557 	0 3.75482 	-0.475222 	0 3.73612 	-0.477561 	0 3.71675 	-0.479532 	0 3.69904 	-0.482506 	0 3.68101 	-0.485465 	0 3.6616 	-0.487821 	0 3.64067 	-0.489555 	0 3.61941 	-0.491278 	0 3.60015 	-0.494008 	0 3.57981 	-0.496228 	0 3.55881 	-0.498202 	0 3.53749 	-0.500159 	0 3.5154 	-0.501966 	0 3.51287 	-0.502263 	0 3.51022 	-0.502488 	0 3.50753 	-0.502694 	0 3.50484 	-0.5029 	0 3.50217 	-0.503103 	0 3.48493 	-0.504788 	0 3.46747 	-0.506461 	0 3.44979 	-0.508123 	0 3.43181 	-0.509684 	0 3.41318 	-0.510685 	0 3.39329 	-0.51282 	0 3.37295 	-0.514879 	0 3.35112 	-0.516335 	0 3.32841 	-0.517151 	0 3.30537 	-0.517955 	0 3.2839 	-0.51977 	0 3.26175 	-0.521255 	0 3.23872 	-0.52224 	0 3.21538 	-0.523207 	0 3.19077 	-0.5238 	0 3.18447 	-0.524202 	0 3.17792 	-0.524441 	0 3.17127 	-0.524616 	0 3.1646 	-0.524789 	0 3.15806 	-0.524957 	0 3.14229 	-0.525611 	0 3.12637 	-0.526257 	0 3.11029 	-0.526894 	0 3.09401 	-0.527392 	0 3.07733 	-0.527419 	0 3.05546 	-0.528498 	0 3.03304 	-0.529441 	0 3.00948 	-0.529837 	0 2.98517 	-0.529489 	0 2.96055 	-0.529124 	0 2.93713 	-0.529825 	0 2.9131 	-0.530123 	0 2.88836 	-0.529901 	0 2.86333 	-0.529659 	0 2.83738 	-0.529128 	0 2.83297 	-0.529182 	0 2.82845 	-0.529132 	0 2.82388 	-0.529024 	0 2.8193 	-0.528916 	0 2.81477 	-0.528808 	0 2.79583 	-0.528561 	0 2.77672 	-0.528303 	0 2.75742 	-0.528034 	0 2.73792 	-0.527536 	0 2.71815 	-0.526481 	0 2.69476 	-0.52634 	0 2.67106 	-0.526179 	0 2.64636 	-0.52522 	0 2.62108 	-0.523518 	0 2.59549 	-0.521796 	0 2.57241 	-0.521285 	0 2.54887 	-0.520172 	0 2.52498 	-0.518707 	0 2.50085 	-0.517224 	0 2.47817 	-0.515827 	0 2.47624 	-0.515722 	0 2.47431 	-0.515616 	0 2.47237 	-0.515511 	0 2.47045 	-0.515379 	0 2.46856 	-0.515189 	0 2.44522 	-0.513715 	0 2.42153 	-0.51209 	0 2.39761 	-0.510449 	0 2.37362 	-0.508329 	0 2.34958 	-0.505608 	0 2.32553 	-0.504175 	0 2.30119 	-0.50272 	0 2.27684 	-0.500378 	0 2.25182 	-0.497357 	0 2.22641 	-0.494197 	0 2.21224 	-0.493167 	0 2.19804 	-0.49177 	0 2.18383 	-0.490116 	0 2.16955 	-0.488456 	0 2.1557 	-0.486849 	0 2.14576 	-0.485707 	0 2.13579 	-0.484562 	0 2.12577 	-0.483414 	0 2.1159 	-0.48209 	0 2.10632 	-0.480436 	0 2.08373 	-0.478133 	0 2.06072 	-0.475384 	0 2.03743 	-0.472429 	0 2.01499 	-0.468358 	0 1.99245 	-0.464225 	0 1.96912 	-0.461565 	0 1.94592 	-0.458479 	0 1.92319 	-0.454624 	0 1.90033 	-0.450758 	0 1.87708 	-0.446534 	0 1.8731 	-0.446037 	0 1.8692 	-0.445431 	0 1.86537 	-0.444741 	0 1.86153 	-0.444051 	0 1.85771 	-0.443366 	0 1.84087 	-0.440221 	0 1.82397 	-0.437071 	0 1.80701 	-0.433915 	0 1.79056 	-0.4304 	0 1.77516 	-0.426215 	0 1.75474 	-0.42285 	0 1.7342 	-0.419471 	0 1.71447 	-0.415131 	0 1.69569 	-0.409846 	0 1.67694 	-0.404559 	0 1.65998 	-0.401577 	0 1.64388 	-0.397963 	0 1.62834 	-0.39397 	0 1.61281 	-0.389978 	0 1.59746 	-0.38603 	0 1.59466 	-0.385256 	0 1.59187 	-0.384483 	0 1.58908 	-0.383709 	0 1.58644 	-0.382868 	0 1.58417 	-0.381866 	0 1.56805 	-0.377621 	0 1.55219 	-0.373018 	0 1.5364 	-0.368422 	0 1.52217 	-0.363147 	0 1.50943 	-0.357286 	0 1.4937 	-0.353351 	0 1.47799 	-0.349418 	0 1.46453 	-0.344434 	0 1.45203 	-0.338605 	0 1.43985 	-0.332677 	0 1.42955 	-0.32993 	0 1.42055 	-0.326569 	0 1.41213 	-0.322974 	0 1.40381 	-0.319392 	0 1.39535 	-0.315715 	0 1.39246 	-0.314251 	0 1.38959 	-0.31279 	0 1.38674 	-0.311332 	0 1.38411 	-0.309803 	0 1.38235 	-0.30795 	0 1.37268 	-0.303725 	0 1.36375 	-0.298915 	0 1.35505 	-0.294136 	0 1.34836 	-0.288703 	0 1.34355 	-0.282748 	0 1.33502 	-0.278933 	0 1.32666 	-0.275144 	0 1.32072 	-0.270375 	0 1.31672 	-0.264497 	0 1.31316 	-0.258703 	0 1.30612 	-0.255041 	0 1.3016 	-0.250473 	0 1.29802 	-0.245697 	0 1.29479 	-0.240977 	0 1.29211 	-0.236087 	0 1.2913 	-0.235572 	0 1.29089 	-0.234897 	0 1.2905 	-0.234216 	0 1.29012 	-0.233537 	0 1.28974 	-0.232844 	0 1.28902 	-0.229178 	0 1.28852 	-0.22555 	0 1.28826 	-0.221959 	0 1.28823 	-0.218406 	0 1.29006 	-0.214844 	0 1.29012 	-0.211103 	0 1.29067 	-0.207153 	0 1.29159 	-0.203161 	0 1.29409 	-0.199137 	0 1.29745 	-0.195151 	0 1.29899 	-0.191724 	0 1.30081 	-0.188344 	0 1.30381 	-0.184751 	0 1.3079 	-0.180913 	0 1.31231 	-0.177145 	0 1.31522 	-0.174023 	0 1.31884 	-0.170885 	0 1.32362 	-0.167672 	0 1.32868 	-0.164364 	0 1.334 	-0.160815 	0 1.33822 	-0.157968 	0 1.34373 	-0.154974 	0 1.3495 	-0.152025 	0 1.35553 	-0.149118 	0 1.36175 	-0.146093 	0 1.36398 	-0.145031 	0 1.36649 	-0.143919 	0 1.36904 	-0.142813 	0 1.37162 	-0.141714 	0 1.37449 	-0.140518 	0 1.37889 	-0.138997 	0 1.38335 	-0.137489 	0 1.3879 	-0.135992 	0 1.39251 	-0.134508 	0 1.39414 	-0.133278 	0 1.40517 	-0.13074 	0 1.413 	-0.128335 	0 1.42103 	-0.125961 	0 1.42926 	-0.123618 	0 1.42958 	-0.12189 	0 1.44597 	-0.119452 	0 1.45498 	-0.117221 	0 1.46348 	-0.115034 	0 1.46878 	-0.113096 	0 1.46807 	-0.111583 	0 1.48516 	-0.109352 	0 1.49949 	-0.107205 	0 1.50835 	-0.105189 	0 1.50957 	-0.103661 	0 1.50896 	-0.102265 	0 1.52663 	-0.10022 	0 1.54452 	-0.0982038 	0 1.55294 	-0.096436 	0 1.55226 	-0.0951347 	0 1.55166 	-0.0938453 	0 1.56983 	-0.0919708 	0 1.58819 	-0.0901204 	0 1.59709 	-0.0886322 	0 1.59635 	-0.0874314 	0 1.59568 	-0.0862406 	0 1.61426 	-0.0845202 	0 1.63301 	-0.0828207 	0 1.64227 	-0.0815831 	0 1.6414 	-0.0804751 	0 1.64059 	-0.0793757 	0 1.65952 	-0.0777954 	0 1.67602 	-0.0763422 	0 1.68471 	-0.0752398 	0 1.68705 	-0.074193 	0 1.68605 	-0.0731787 	0 1.70526 	-0.0717264 	0 1.71888 	-0.0705121 	0 1.72761 	-0.0695032 	0 1.73299 	-0.0685227 	0 1.73176 	-0.0675881 	0 1.75121 	-0.0662533 	0 1.76204 	-0.0652438 	0 1.77078 	-0.064321 	0 1.77901 	-0.0634087 	0 1.7775 	-0.0625496 	0 1.79666 	-0.06134 	0 1.80529 	-0.0604903 	0 1.814 	-0.0596474 	0 1.82278 	-0.0588111 	0 1.82311 	-0.0580155 	0 1.83988 	-0.0569839 	0 1.84847 	-0.0562102 	0 1.85712 	-0.0554425 	0 1.86584 	-0.0546805 	0 1.86845 	-0.0539468 	0 1.88291 	-0.0530732 	0 1.89145 	-0.0523724 	0 1.90004 	-0.0516766 	0 1.90869 	-0.0509859 	0 1.91345 	-0.0503144 	0 1.92571 	-0.0495841 	0 1.93418 	-0.0489568 	0 1.9427 	-0.0483338 	0 1.95127 	-0.0477151 	0 1.95808 	-0.0471081 	0 1.96704 	-0.0465917 	0 1.97427 	-0.0461188 	0 1.98154 	-0.0456487 	0 1.98884 	-0.0451811 	0 1.99728 	-0.0446461 	0 1.99831 	-0.0445849 	0 1.99934 	-0.0445238 	0 2.00037 	-0.0444627 	0 2.0014 	-0.0444017 	0 1.99673 	-0.0442996 	0 2.01095 	-0.043901 	0 2.01951 	-0.0434617 	0 2.0281 	-0.0430252 	0 2.03673 	-0.0425914 	0 1.99006 	-0.0417904 	0 2.05408 	-0.0418572 	0 2.06291 	-0.0415441 	0 2.07177 	-0.0412331 	0 2.08065 	-0.0409243 	0 1.98398 	-0.0399461 	0 2.09826 	-0.0405034 	0 2.10633 	-0.0404089 	0 2.11442 	-0.0403154 	0 2.12252 	-0.0402229 	0 1.97264 	-0.0391442 	0 2.13884 	-0.0405051 	0 2.14986 	-0.0413125 	0 2.16086 	-0.042117 	0 2.17182 	-0.0429187 	0 1.97112 	-0.0423902 	0 2.1998 	-0.0452154 	0 2.20669 	-0.0459329 	0 2.21356 	-0.0466481 	0 2.2204 	-0.0473611 	0 2.09892 	-0.0474154 	0