# vtk DataFile Version 2.0
track0
ASCII
DATASET POLYDATA
POINTS 6430 float
-0.0205 0.001 1e-05
-0.0204727 0.00100011 1e-05
-0.0204454 0.00100021 1e-05
-0.0204181 0.00100032 1e-05
-0.0203908 0.00100042 1e-05
-0.0203635 0.00100053 1e-05
-0.0200299 0.00100181 1e-05
-0.0196963 0.00100312 1e-05
-0.0193627 0.00100443 1e-05
-0.0190291 0.00100573 1e-05
-0.0186954 0.00100701 1e-05
-0.018369 0.00100821 1e-05
-0.0180425 0.00100944 1e-05
-0.017716 0.00101066 1e-05
-0.0173896 0.00101188 1e-05
-0.0170631 0.00101307 1e-05
-0.0167436 0.00101419 1e-05
-0.0164242 0.00101534 1e-05
-0.0161047 0.00101648 1e-05
-0.0157852 0.00101761 1e-05
-0.0154657 0.00101873 1e-05
-0.0151531 0.00101977 1e-05
-0.0148405 0.00102085 1e-05
-0.0145279 0.00102191 1e-05
-0.0142152 0.00102297 1e-05
-0.0139026 0.00102401 1e-05
-0.0135967 0.00102499 1e-05
-0.0132908 0.00102599 1e-05
-0.0129848 0.00102698 1e-05
-0.0126789 0.00102797 1e-05
-0.012373 0.00102894 1e-05
-0.0120736 0.00102985 1e-05
-0.0117742 0.00103078 1e-05
-0.0114749 0.00103171 1e-05
-0.0111755 0.00103263 1e-05
-0.0108761 0.00103354 1e-05
-0.0105832 0.00103438 1e-05
-0.0102902 0.00103524 1e-05
-0.00999724 0.00103611 1e-05
-0.00970429 0.00103697 1e-05
-0.00941133 0.00103781 1e-05
-0.00912465 0.00103859 1e-05
-0.00883797 0.00103939 1e-05
-0.00855129 0.00104019 1e-05
-0.00826461 0.00104099 1e-05
-0.00797793 0.00104177 1e-05
-0.00769739 0.00104249 1e-05
-0.00741686 0.00104323 1e-05
-0.00713632 0.00104398 1e-05
-0.00685578 0.00104471 1e-05
-0.00657525 0.00104543 1e-05
-0.00630072 0.00104609 1e-05
-0.0060262 0.00104677 1e-05
-0.00575167 0.00104746 1e-05
-0.00547714 0.00104814 1e-05
-0.00520262 0.00104879 1e-05
-0.00493398 0.0010494 1e-05
-0.00466533 0.00105002 1e-05
-0.00439669 0.00105064 1e-05
-0.00412805 0.00105126 1e-05
-0.0038594 0.00105186 1e-05
-0.00359652 0.0010524 1e-05
-0.00333363 0.00105297 1e-05
-0.00307074 0.00105354 1e-05
-0.00280786 0.00105411 1e-05
-0.00254497 0.00105465 1e-05
-0.00228772 0.00105514 1e-05
-0.00203046 0.00105564 1e-05
-0.00177321 0.00105614 1e-05
-0.00151596 0.00105662 1e-05
-0.0012587 0.00105707 1e-05
-0.00100696 0.00105748 1e-05
-0.000755223 0.00105794 1e-05
-0.000503482 0.00105834 1e-05
-0.000251741 0.00105861 1e-05
0 0.00105871 1e-05
0.000329256 0.00105853 1e-05
0.000658511 0.00105851 1e-05
0.000987767 0.00105842 1e-05
0.00131702 0.00105811 1e-05
0.00164628 0.00105749 1e-05
0.00197921 0.00105642 1e-05
0.00231214 0.00105586 1e-05
0.00264507 0.00105544 1e-05
0.002978 0.00105494 1e-05
0.00331093 0.00105415 1e-05
0.00364757 0.0010527 1e-05
0.00398422 0.00105191 1e-05
0.00432087 0.00105131 1e-05
0.00465751 0.00105067 1e-05
0.00499415 0.00104974 1e-05
0.00533455 0.00104802 1e-05
0.00567496 0.00104694 1e-05
0.00601536 0.00104606 1e-05
0.00635577 0.00104512 1e-05
0.00669616 0.00104391 1e-05
0.00704036 0.00104188 1e-05
0.00738456 0.00104044 1e-05
0.00772877 0.00103914 1e-05
0.00807297 0.00103779 1e-05
0.00841716 0.00103619 1e-05
0.0087652 0.00103381 1e-05
0.00911324 0.00103193 1e-05
0.00946129 0.00103013 1e-05
0.00980933 0.00102825 1e-05
0.0101574 0.00102618 1e-05
0.0105093 0.0010234 1e-05
0.0108612 0.00102101 1e-05
0.0112131 0.00101863 1e-05
0.0115651 0.00101617 1e-05
0.011917 0.00101355 1e-05
0.0122728 0.00101032 1e-05
0.0126287 0.00100738 1e-05
0.0129845 0.00100439 1e-05
0.0133404 0.00100131 1e-05
0.0136962 0.000998114 1e-05
0.0140561 0.000994408 1e-05
0.0144159 0.00099089 1e-05
0.0147757 0.000987286 1e-05
0.0151355 0.000983592 1e-05
0.0154954 0.000979807 1e-05
0.0158592 0.000975612 1e-05
0.016223 0.000971506 1e-05
0.0165869 0.000967314 1e-05
0.0169507 0.000963035 1e-05
0.0173145 0.000958667 1e-05
0.0176824 0.000953994 1e-05
0.0180503 0.000949332 1e-05
0.0184182 0.000944592 1e-05
0.0187861 0.000939771 1e-05
0.019154 0.00093487 1e-05
0.019526 0.000929741 1e-05
0.019898 0.000924573 1e-05
0.02027 0.000919335 1e-05
0.020642 0.000914026 1e-05
0.0210141 0.000908644 1e-05
0.0213902 0.000903093 1e-05
0.0217664 0.000897473 1e-05
0.0221425 0.000891792 1e-05
0.0225187 0.000886048 1e-05
0.0228948 0.000880241 1e-05
0.0232752 0.0008743 1e-05
0.0236555 0.000868282 1e-05
0.0240359 0.00086221 1e-05
0.0244162 0.000856083 1e-05
0.0247966 0.000849901 1e-05
0.0251386 0.000844297 1e-05
0.0254806 0.000838638 1e-05
0.0258226 0.000832941 1e-05
0.0261646 0.000827205 1e-05
0.02648 0.00082188 1e-05
0.0265279 0.000821066 1e-05
0.0265758 0.000820251 1e-05
0.0266238 0.000819436 1e-05
0.0266717 0.000818619 1e-05
0.0267196 0.000817802 1e-05
0.0271085 0.00081117 1e-05
0.0274973 0.000804487 1e-05
0.0278862 0.000797757 1e-05
0.0282751 0.000790981 1e-05
0.028664 0.000784158 1e-05
0.0290572 0.000777273 1e-05
0.0294505 0.000770297 1e-05
0.0298437 0.000763275 1e-05
0.0302369 0.000756207 1e-05
0.0306301 0.000749092 1e-05
0.0310278 0.000741955 1e-05
0.0314254 0.000734695 1e-05
0.031823 0.000727386 1e-05
0.0322206 0.00072003 1e-05
0.0326182 0.000712623 1e-05
0.0330203 0.00070522 1e-05
0.0334223 0.000697666 1e-05
0.0338244 0.00069006 1e-05
0.0342264 0.000682399 1e-05
0.0346285 0.000674684 1e-05
0.035035 0.000666987 1e-05
0.0354416 0.000659113 1e-05
0.0358481 0.000651179 1e-05
0.0362546 0.000643183 1e-05
0.0366612 0.000635138 1e-05
0.0370722 0.000627104 1e-05
0.0374833 0.000618889 1e-05
0.0378944 0.000610582 1e-05
0.0383055 0.000602202 1e-05
0.0387166 0.000593796 1e-05
0.0391322 0.000585369 1e-05
0.0395479 0.000576759 1e-05
0.0399635 0.000568018 1e-05
0.0403792 0.000559193 1e-05
0.0407949 0.000550356 1e-05
0.0412152 0.000541467 1e-05
0.0416355 0.000532388 1e-05
0.0420558 0.000523142 1e-05
0.042476 0.000513796 1e-05
0.0428964 0.000504448 1e-05
0.0433214 0.000495016 1e-05
0.0437463 0.000485385 1e-05
0.0441713 0.000475553 1e-05
0.0445963 0.000465611 1e-05
0.0450213 0.000455663 1e-05
0.0454511 0.000445598 1e-05
0.0458808 0.000435321 1e-05
0.0463105 0.000424832 1e-05
0.0467402 0.000414218 1e-05
0.04717 0.000403571 1e-05
0.0476045 0.000392773 1e-05
0.048039 0.00038175 1e-05
0.0484736 0.0003705 1e-05
0.0489081 0.00035911 1e-05
0.0493426 0.00034766 1e-05
0.049782 0.000336021 1e-05
0.0502214 0.000324142 1e-05
0.0506607 0.000312024 1e-05
0.0511001 0.000299755 1e-05
0.0515395 0.000287389 1e-05
0.0519838 0.000274796 1e-05
0.0524281 0.000261947 1e-05
0.0528723 0.000248871 1e-05
0.0533166 0.000235622 1e-05
0.0537609 0.000222223 1e-05
0.0542102 0.000208556 1e-05
0.0546594 0.000194615 1e-05
0.0551086 0.000180458 1e-05
0.0555578 0.000166102 1e-05
0.0560071 0.000151547 1e-05
0.0564614 0.000136681 1e-05
0.0569156 0.000121533 1e-05
0.0573698 0.000106163 1e-05
0.0578241 9.05705e-05 1e-05
0.0582784 7.47519e-05 1e-05
0.0587023 5.98015e-05 1e-05
0.0591263 4.46159e-05 1e-05
0.0595502 2.92196e-05 1e-05
0.0599742 1.36119e-05 1e-05
0.0603389 0 1e-05
0.0603861 -1.78206e-06 1e-05
0.0604333 -3.5667e-06 1e-05
0.0604806 -5.35391e-06 1e-05
0.0605278 -7.14372e-06 1e-05
0.060575 -8.93614e-06 1e-05
0.0610394 -2.65926e-05 1e-05
0.0615038 -4.45184e-05 1e-05
0.0619683 -6.27112e-05 1e-05
0.0624327 -8.11717e-05 1e-05
0.0628972 -9.99049e-05 1e-05
0.0633668 -0.000119081 1e-05
0.0638364 -0.000138581 1e-05
0.064306 -0.000158372 1e-05
0.0647756 -0.000178457 1e-05
0.0652453 -0.000198842 1e-05
0.0657202 -0.000219685 1e-05
0.0661951 -0.000240896 1e-05
0.0666699 -0.00026243 1e-05
0.0671447 -0.000284284 1e-05
0.0676197 -0.000306442 1e-05
0.0680998 -0.000329101 1e-05
0.06858 -0.00035215 1e-05
0.0690601 -0.000375574 1e-05
0.0695402 -0.000399346 1e-05
0.0700205 -0.000423421 1e-05
0.070506 -0.000448052 1e-05
0.0709916 -0.000473094 1e-05
0.071477 -0.000498548 1e-05
0.0719625 -0.000524368 1e-05
0.0724481 -0.000550519 1e-05
0.0729391 -0.000577281 1e-05
0.07343 -0.000604477 1e-05
0.0739209 -0.000632108 1e-05
0.0744118 -0.000660126 1e-05
0.0749029 -0.000688515 1e-05
0.0753993 -0.000717573 1e-05
0.0758957 -0.00074709 1e-05
0.0763921 -0.000777038 1e-05
0.0768884 -0.000807401 1e-05
0.077385 -0.000838194 1e-05
0.0778869 -0.00086972 1e-05
0.0783889 -0.000901718 1e-05
0.0788908 -0.000934158 1e-05
0.0793927 -0.000967042 1e-05
0.0798948 -0.00100039 1e-05
0.079963 -0.00100498 1e-05
0.0800311 -0.00100958 1e-05
0.0800993 -0.00101419 1e-05
0.0801675 -0.0010188 1e-05
0.0802344 -0.00102334 1e-05
0.080674 -0.00105321 1e-05
0.0811136 -0.00108343 1e-05
0.0815532 -0.001114 1e-05
0.0819928 -0.00114492 1e-05
0.0824326 -0.00117621 1e-05
0.0829458 -0.00121311 1e-05
0.083459 -0.00125053 1e-05
0.0839722 -0.00128845 1e-05
0.0844853 -0.00132686 1e-05
0.0849987 -0.00136579 1e-05
0.0855177 -0.00140558 1e-05
0.0860366 -0.00144593 1e-05
0.0865555 -0.00148685 1e-05
0.0870743 -0.00152829 1e-05
0.0875935 -0.00157023 1e-05
0.0881183 -0.00161311 1e-05
0.088643 -0.00165657 1e-05
0.0891676 -0.00170064 1e-05
0.0896922 -0.00174526 1e-05
0.0902172 -0.00179042 1e-05
0.0907478 -0.00183657 1e-05
0.0912784 -0.00188336 1e-05
0.0918089 -0.00193073 1e-05
0.0923393 -0.00197867 1e-05
0.0928702 -0.00202724 1e-05
0.0931109 -0.00204951 1e-05
0.0933515 -0.00207191 1e-05
0.0935921 -0.00209443 1e-05
0.0938327 -0.00211707 1e-05
0.09406 -0.00213858 1e-05
0.0943586 -0.00216697 1e-05
0.0946571 -0.00219555 1e-05
0.0949557 -0.00222431 1e-05
0.0952542 -0.00225326 1e-05
0.0955528 -0.00228241 1e-05
0.0960954 -0.00233567 1e-05
0.0966378 -0.00238958 1e-05
0.0971802 -0.00244412 1e-05
0.0977225 -0.00249928 1e-05
0.0982654 -0.00255512 1e-05
0.098814 -0.00261212 1e-05
0.0993624 -0.00266981 1e-05
0.0999109 -0.00272821 1e-05
0.100459 -0.00278725 1e-05
0.101008 -0.00284698 1e-05
0.101563 -0.00290794 1e-05
0.102117 -0.00296964 1e-05
0.102672 -0.00303205 1e-05
0.103226 -0.00309513 1e-05
0.103782 -0.00315898 1e-05
0.104117 -0.00319798 1e-05
0.104453 -0.00323725 1e-05
0.104788 -0.00327678 1e-05
0.105124 -0.00331656 1e-05
0.105437 -0.00335397 1e-05
0.105667 -0.00338155 1e-05
0.105897 -0.00340925 1e-05
0.106127 -0.00343706 1e-05
0.106356 -0.00346499 1e-05
0.106586 -0.00349306 1e-05
0.107153 -0.0035626 1e-05
0.10772 -0.00363289 1e-05
0.108287 -0.0037039 1e-05
0.108854 -0.00377564 1e-05
0.109422 -0.0038482 1e-05
0.109995 -0.00392219 1e-05
0.110568 -0.00399698 1e-05
0.111142 -0.00407258 1e-05
0.111715 -0.00414894 1e-05
0.112289 -0.00422614 1e-05
[...]
POINT_DATA 6430
 FIELD attributes 2
p 1 6430 float
-9.87145 -9.87184 -9.87222 -9.8726 -9.87298 -9.87336 -9.87708 -9.88128 -9.8855 -9.88977 -9.89453 -9.89817 -9.9023 -9.90648 -9.91073 -9.91548 -9.91907 -9.92316 -9.92732 -9.93158 -9.93632 -9.93991 -9.94399 -9.94816 -9.95244 -9.95719 -9.96083 -9.96492 -9.96913 -9.97347 -9.97825 -9.98196 -9.98611 -9.99039 -9.99481 -9.99966 -10.0035 -10.0077 -10.0121 -10.0166 -10.0216 -10.0255 -10.0299 -10.0345 -10.0392 -10.0443 -10.0484 -10.053 -10.0577 -10.0626 -10.0679 -10.0723 -10.0771 -10.0821 -10.0874 -10.0929 -10.0977 -10.1028 -10.1082 -10.1137 -10.1195 -10.1247 -10.1305 -10.1366 -10.1429 -10.1496 -10.1562 -10.1625 -10.1687 -10.175 -10.1815 -10.1915 -10.2019 -10.2123 -10.2223 -10.2316 -10.2484 -10.2566 -10.2591 -10.257 -10.248 -10.2548 -10.2566 -10.2553 -10.2521 -10.2457 -10.2633 -10.2745 -10.2821 -10.2846 -10.2778 -10.2924 -10.3004 -10.3051 -10.3057 -10.2976 -10.304 -10.3068 -10.3081 -10.3076 -10.3024 -10.3038 -10.3045 -10.305 -10.3051 -10.3039 -10.3022 -10.3021 -10.3022 -10.3026 -10.3041 -10.3 -10.2993 -10.299 -10.2989 -10.3022 -10.2966 -10.2959 -10.2953 -10.2948 -10.2989 -10.2933 -10.2927 -10.2921 -10.2916 -10.2956 -10.2909 -10.2907 -10.2904 -10.2901 -10.2936 -10.2905 -10.2907 -10.291 -10.2912 -10.2941 -10.2929 -10.2939 -10.2949 -10.2959 -10.2984 -10.2991 -10.301 -10.303 -10.3049 -10.3074 -10.3096 -10.3123 -10.3149 -10.3176 -10.32 -10.3204 -10.3207 -10.3211 -10.3215 -10.3218 -10.3259 -10.3299 -10.334 -10.338 -10.3421 -10.3471 -10.3522 -10.3574 -10.3626 -10.3679 -10.3737 -10.3799 -10.3861 -10.3923 -10.3989 -10.4055 -10.4126 -10.4197 -10.4268 -10.4346 -10.4417 -10.4496 -10.4574 -10.4653 -10.4739 -10.4817 -10.49 -10.4984 -10.507 -10.516 -10.5243 -10.5328 -10.5415 -10.5505 -10.5598 -10.5684 -10.577 -10.5858 -10.5949 -10.6041 -10.6127 -10.6213 -10.6299 -10.6389 -10.6478 -10.6562 -10.6646 -10.6729 -10.6814 -10.6898 -10.6977 -10.7057 -10.7136 -10.7213 -10.7291 -10.7364 -10.7437 -10.7509 -10.7578 -10.7647 -10.7711 -10.7775 -10.7838 -10.7898 -10.7957 -10.8011 -10.8063 -10.8115 -10.8166 -10.8213 -10.8254 -10.8293 -10.8331 -10.837 -10.8406 -10.843 -10.8452 -10.8474 -10.8496 -10.8515 -10.8518 -10.852 -10.8523 -10.8525 -10.8527 -10.8535 -10.8543 -10.8551 -10.8559 -10.8565 -10.8559 -10.8549 -10.854 -10.8531 -10.8517 -10.8495 -10.8467 -10.8439 -10.8409 -10.8375 -10.8333 -10.8289 -10.8241 -10.8187 -10.8132 -10.8069 -10.8006 -10.7936 -10.7859 -10.7782 -10.7696 -10.7611 -10.7518 -10.7419 -10.7318 -10.7209 -10.7095 -10.6977 -10.6859 -10.6734 -10.6598 -10.6455 -10.6312 -10.6169 -10.6025 -10.6004 -10.5981 -10.5958 -10.5935 -10.5913 -10.5768 -10.5624 -10.548 -10.5337 -10.5184 -10.5 -10.4806 -10.4614 -10.4416 -10.4208 -10.3998 -10.3787 -10.3566 -10.333 -10.3094 -10.2856 -10.2619 -10.2367 -10.2103 -10.1839 -10.1573 -10.1296 -10.1013 -10.0731 -10.0442 -10.031 -10.017 -10.003 -9.98906 -9.97587 -9.95881 -9.94175 -9.92471 -9.90768 -9.8897 -9.85696 -9.82344 -9.78997 -9.75576 -9.72035 -9.68501 -9.64971 -9.61302 -9.57485 -9.53666 -9.49851 -9.45976 -9.41974 -9.37968 -9.33878 -9.31432 -9.2888 -9.26323 -9.23767 -9.21378 -9.1965 -9.17922 -9.16195 -9.14466 -9.12653 -9.08229 -9.03744 -8.99264 -8.94693 -8.90009 -8.85353 -8.807 -8.75912 -8.70995 -8.66073 -8.61174 -8.56154 -8.51079 -8.46006 -8.4091 -8.40291 -8.39656 -8.39017 -8.38377 -8.37746 -8.33127 -8.28511 -8.23898 -8.19264 -8.14481 -8.09089 -8.03694 -7.98223 -7.92612 -7.86992 -7.81413 -7.75777 -7.7005 -7.64327 -7.58563 -7.56997 -7.55405 -7.53802 -7.522 -7.50639 -7.46377 -7.42117 -7.37859 -7.33578 -7.29203 -7.23259 -7.17312 -7.11325 -7.0523 -6.99121 -6.93067 -6.8697 -6.80816 -6.74664 -6.6849 -6.67409 -6.66319 -6.65224 -6.64129 -6.6305 -6.57926 -6.52804 -6.47683 -6.42541 -6.37331 -6.3108 -6.24832 -6.18557 -6.12239 -6.05905 -6.00071 -5.94212 -5.8834 -5.8247 -5.77006 -5.7648 -5.75954 -5.75428 -5.74901 -5.7437 -5.68057 -5.61749 -5.55443 -5.49123 -5.42767 -5.36488 -5.30211 -5.2393 -5.17666 -5.11388 -5.079 -5.04419 -5.00942 -4.97465 -4.94112 -4.91352 -4.88592 -4.85833 -4.83073 -4.8031 -4.74152 -4.68016 -4.61892 -4.5579 -4.49674 -4.43643 -4.3763 -4.31647 -4.25665 -4.19691 -4.18718 -4.17751 -4.1679 -4.15828 -4.14874 -4.09962 -4.0505 -4.00139 -3.95241 -3.90363 -3.8462 -3.78878 -3.73192 -3.67558 -3.61917 -3.57331 -3.52787 -3.48269 -3.4375 -3.39281 -3.3831 -3.3734 -3.3637 -3.35402 -3.34441 -3.29104 -3.23786 -3.18467 -3.13184 -3.07937 -3.0281 -2.97683 -2.92622 -2.87612 -2.82615 -2.79247 -2.75922 -2.72616 -2.69308 -2.659 -2.64411 -2.62923 -2.61434 -2.59943 -2.58441 -2.53845 -2.49235 -2.44624 -2.39992 -2.35361 -2.3103 -2.26698 -2.22345 -2.17969 -2.1361 -2.09536 -2.0545 -2.0136 -1.97272 -1.932 -1.92637 -1.92072 -1.91508 -1.90944 -1.90368 -1.87075 -1.83784 -1.80494 -1.77205 -1.73663 -1.70295 -1.66761 -1.63169 -1.59367 -1.55495 -1.52382 -1.49273 -1.45921 -1.42325 -1.38747 -1.3588 -1.32935 -1.29827 -1.26657 -1.23359 -1.20714 -1.17861 -1.15012 -1.12167 -1.09264 -1.08267 -1.07218 -1.06169 -1.05121 -1.03974 -1.02428 -1.00883 -0.993393 -0.977969 -0.962709 -0.938857 -0.914914 -0.891006 -0.867132 -0.843592 -0.822113 -0.800336 -0.778559 -0.756885 -0.735408 -0.715962 -0.696406 -0.676603 -0.656935 -0.637339 -0.619765 -0.602223 -0.584331 -0.566447 -0.548597 -0.532741 -0.516912 -0.500925 -0.484663 -0.468427 -0.454146 -0.439889 -0.425638 -0.410873 -0.396128 -0.383288 -0.370458 -0.357607 -0.34441 -0.331041 -0.319523 -0.307981 -0.296415 -0.28467 -0.272571 -0.262267 -0.251895 -0.241513 -0.231108 -0.220185 -0.210993 -0.201698 -0.192411 -0.183132 -0.173413 -0.165229 -0.156956 -0.148691 -0.140432 -0.131866 -0.124624 -0.117315 -0.110011 -0.102714 -0.0952288 -0.0888917 -0.0825164 -0.076146 -0.0697805 -0.063337 -0.058664 -0.0539711 -0.0492812 -0.0445943 -0.039203 -0.0385648 -0.0379266 -0.0372885 -0.0366505 -0.0360916 -0.0315542 -0.0270953 -0.0226399 -0.0181877 -0.014472 -0.0102552 -0.00665424 -0.00305569 0.000540468 0.00293365 0.00595774 0.00743034 0.00890153 0.0103713 0.00946557 0.0119022 0.0146522 0.0174031 0.020155 0.0227906 0.0253514 0.0214334 0.0175204 0.0136123 0.00313435
-9.86459 -9.86492 -9.86526 -9.8656 -9.86594 -9.86628 -9.87035 -9.87446 -9.87858 -9.88272 -9.88687 -9.89092 -9.895 -9.89908 -9.90317 -9.90725 -9.9113 -9.91536 -9.91943 -9.92349 -9.92752 -9.93159 -9.93566 -9.93973 -9.94377 -9.94779 -9.95189 -9.95599 -9.96008 -9.96414 -9.96816 -9.97231 -9.97645 -9.98059 -9.98469 -9.98874 -9.99296 -9.99717 -10.0014 -10.0055 -10.0096 -10.0139 -10.0182 -10.0226 -10.0268 -10.031 -10.0354 -10.0398 -10.0443 -10.0486 -10.0529 -10.0574 -10.062 -10.0666 -10.0711 -10.0755 -10.0802 -10.0849 -10.0897 -10.0943 -10.0989 -10.1037 -10.1086 -10.1135 -10.1183 -10.123 -10.128 -10.1329 -10.138 -10.1427 -10.1473 -10.1521 -10.157 -10.1623 -10.1676 -10.1728 -10.1779 -10.1829 -10.1876 -10.1917 -10.1956 -10.1994 -10.203 -10.2059 -10.2085 -10.2109 -10.2134 -10.216 -10.2187 -10.2214 -10.2242 -10.2268 -10.2293 -10.232 -10.2344 -10.2368 -10.2383 -10.2399 -10.2415 -10.2431 -10.2447 -10.2449 -10.2452 -10.2459 -10.2471 -10.2484 -10.248 -10.2477 -10.248 -10.2489 -10.2502 -10.2495 -10.249 -10.2489 -10.2496 -10.2505 -10.2498 -10.2492 -10.2489 -10.2493 -10.25 -10.2493 -10.2487 -10.2485 -10.2487 -10.2492 -10.2488 -10.2485 -10.2485 -10.2488 -10.2494 -10.2494 -10.2496 -10.2499 -10.2505 -10.2514 -10.2519 -10.2526 -10.2535 -10.2547 -10.256 -10.2572 -10.2586 -10.2601 -10.2619 -10.264 -10.2659 -10.268 -10.2704 -10.273 -10.2758 -10.2784 -10.2814 -10.2847 -10.2881 -10.2917 -10.2952 -10.2991 -10.3032 -10.3074 -10.3119 -10.3162 -10.3209 -10.3259 -10.3309 -10.3361 -10.3412 -10.3467 -10.3524 -10.3581 -10.3639 -10.3697 -10.3759 -10.3822 -10.3884 -10.3947 -10.4011 -10.4078 -10.4146 -10.4213 -10.4279 -10.4347 -10.4417 -10.4487 -10.4557 -10.4624 -10.4695 -10.4766 -10.4837 -10.4908 -10.4975 -10.5046 -10.5116 -10.5186 -10.5256 -10.5321 -10.5389 -10.5456 -10.5523 -10.559 -10.5652 -10.5716 -10.5778 -10.584 -10.5902 -10.596 -10.6017 -10.6072 -10.6127 -10.6182 -10.6235 -10.6283 -10.6329 -10.6376 -10.6422 -10.6469 -10.6473 -10.6477 -10.6481 -10.6486 -10.649 -10.6522 -10.6555 -10.6587 -10.662 -10.6653 -10.6679 -10.6705 -10.673 -10.6755 -10.6779 -10.6795 -10.6807 -10.6818 -10.683 -10.6839 -10.6844 -10.684 -10.6838 -10.6834 -10.6824 -10.6816 -10.6799 -10.6779 -10.6757 -10.6728 -10.6703 -10.6674 -10.6637 -10.6591 -10.6543 -10.65 -10.6457 -10.64 -10.6331 -10.6262 -10.62 -10.6137 -10.6061 -10.597 -10.588 -10.5796 -10.5711 -10.5611 -10.5502 -10.5389 -10.5284 -10.5166 -10.5044 -10.4921 -10.4785 -10.4652 -10.4505 -10.4358 -10.4211 -10.4061 -10.4021 -10.3977 -10.3933 -10.3889 -10.3846 -10.3721 -10.3596 -10.3471 -10.3347 -10.3212 -10.3029 -10.2836 -10.2643 -10.2447 -10.2235 -10.203 -10.1821 -10.1602 -10.1365 -10.1127 -10.0895 -10.0664 -10.0415 -10.015 -9.98858 -9.96273 -9.93574 -9.90782 -9.87992 -9.85093 -9.83206 -9.81195 -9.79185 -9.77176 -9.75321 -9.74262 -9.73203 -9.72144 -9.71086 -9.69957 -9.6675 -9.63488 -9.60228 -9.56905 -9.53434 -9.50008 -9.46584 -9.43014 -9.39282 -9.3555 -9.31858 -9.28088 -9.24191 -9.20296 -9.16315 -9.14502 -9.12607 -9.107 -9.08794 -9.06975 -9.04755 -9.02536 -9.00317 -8.98086 -8.95788 -8.9151 -8.87201 -8.82885 -8.78451 -8.73995 -8.69476 -8.64945 -8.60295 -8.55638 -8.50954 -8.48758 -8.46521 -8.44266 -8.42011 -8.3985 -8.37225 -8.34601 -8.31978 -8.29347 -8.26665 -8.21618 -8.16561 -8.11505 -8.06371 -8.01213 -7.95971 -7.90732 -7.85404 -7.80074 -7.74738 -7.71355 -7.67936 -7.64505 -7.61074 -7.57799 -7.55717 -7.53635 -7.51554 -7.49464 -7.47341 -7.4173 -7.36119 -7.3051 -7.24839 -7.19135 -7.13392 -7.07651 -7.01842 -6.96034 -6.90225 -6.8674 -6.83232 -6.79715 -6.76198 -6.72813 -6.70403 -6.67994 -6.65585 -6.6317 -6.60735 -6.54742 -6.48777 -6.42813 -6.36818 -6.30809 -6.24766 -6.18723 -6.12662 -6.06613 -6.00584 -5.97794 -5.95004 -5.92214 -5.89425 -5.86701 -5.83403 -5.80106 -5.76809 -5.73511 -5.7021 -5.64093 -5.58006 -5.51942 -5.45895 -5.39843 -5.33762 -5.27693 -5.21652 -5.15612 -5.09616 -5.07904 -5.06202 -5.04507 -5.02812 -5.01134 -4.96836 -4.92538 -4.8824 -4.83953 -4.79691 -4.73717 -4.67751 -4.61865 -4.56037 -4.50206 -4.4435 -4.3854 -4.32776 -4.27013 -4.21275 -4.20533 -4.198 -4.19071 -4.18343 -4.17616 -4.12682 -4.07748 -4.02814 -3.97903 -3.93056 -3.87469 -3.81881 -3.76405 -3.71023 -3.65639 -3.60236 -3.54915 -3.49643 -3.4437 -3.39112 -3.38785 -3.38464 -3.38146 -3.37828 -3.3751 -3.32698 -3.27885 -3.23072 -3.18286 -3.13599 -3.08587 -3.03575 -2.98689 -2.93914 -2.89141 -2.84355 -2.79654 -2.75017 -2.70381 -2.65785 -2.64993 -2.64221 -2.63455 -2.6269 -2.61921 -2.5823 -2.54539 -2.50847 -2.47173 -2.43603 -2.39279 -2.34981 -2.30763 -2.2668 -2.22601 -2.1852 -2.14468 -2.10536 -2.06624 -2.02788 -2.00456 -1.98203 -1.95961 -1.9372 -1.9141 -1.89953 -1.88495 -1.87038 -1.85582 -1.84178 -1.80611 -1.77102 -1.73593 -1.70142 -1.66773 -1.63418 -1.60062 -1.56815 -1.53676 -1.50541 -1.47418 -1.44349 -1.41356 -1.38362 -1.35452 -1.33603 -1.3183 -1.30057 -1.28284 -1.26416 -1.25421 -1.24425 -1.23429 -1.22434 -1.21473 -1.18839 -1.16236 -1.13635 -1.11051 -1.08559 -1.06098 -1.03652 -1.01254 -0.989553 -0.966595 -0.94395 -0.921309 -0.899454 -0.878322 -0.857219 -0.836419 -0.816153 -0.796235 -0.776323 -0.756912 -0.740865 -0.725341 -0.709819 -0.694301 -0.677235 -0.674798 -0.672362 -0.669925 -0.667489 -0.665109 -0.648187 -0.631309 -0.614438 -0.597574 -0.581172 -0.56549 -0.550089 -0.534693 -0.519506 -0.504679 -0.490405 -0.476182 -0.462156 -0.448621 -0.435116 -0.42215 -0.409188 -0.39657 -0.384278 -0.371999 -0.360248 -0.348543 -0.337217 -0.326023 -0.314885 -0.304264 -0.293888 -0.283659 -0.273446 -0.263371 -0.253853 -0.244647 -0.235445 -0.226247 -0.217111 -0.210241 -0.203501 -0.196763 -0.190027 -0.182607 -0.181236 -0.179866 -0.178496 -0.177126 -0.175757 -0.168397 -0.161024 -0.153654 -0.146287 -0.138941 -0.132572 -0.126063 -0.119557 -0.113053 -0.106557 -0.101106 -0.0955159 -0.0899244 -0.0843815 -0.0789844 -0.0746082 -0.0698598 -0.0647975 -0.059545 -0.0541717 -0.0497591 -0.0454585 -0.0419245 -0.0400047 -0.0381514 -0.0371537 -0.036156 -0.0293305 -0.0170835 -0.00483676 0.00708229 0.0190015 0.0198764 0.00993842 0
-9.85945 -9.85977 -9.86008 -9.8604 -9.86071 -9.86103 -9.86499 -9.86895 -9.87291 -9.87686 -9.88078 -9.8847 -9.88862 -9.89253 -9.89645 -9.90032 -9.90421 -9.9081 -9.91198 -9.91587 -9.91971 -9.92358 -9.92745 -9.93132 -9.93519 -9.93902 -9.94288 -9.94674 -9.95061 -9.95447 -9.95829 -9.96215 -9.96602 -9.96989 -9.97377 -9.97758 -9.98146 -9.98534 -9.98923 -9.99311 -9.99694 -10.0008 -10.0047 -10.0086 -10.0125 -10.0164 -10.0203 -10.0242 -10.0281 -10.032 -10.0359 -10.0398 -10.0437 -10.0477 -10.0516 -10.0554 -10.0593 -10.0632 -10.0671 -10.071 -10.0748 -10.0786 -10.0825 -10.0863 -10.0902 -10.0939 -10.0976 -10.1013 -10.105 -10.1087 -10.1122 -10.1157 -10.1194 -10.1231 -10.1268 -10.1305 -10.1342 -10.1379 -10.1417 -10.1454 -10.1491 -10.1526 -10.1558 -10.1591 -10.1624 -10.1654 -10.1682 -10.1708 -10.1735 -10.1762 -10.1787 -10.181 -10.1833 -10.1855 -10.1878 -10.1899 -10.1919 -10.1937 -10.1955 -10.1973 -10.1989 -10.2004 -10.2017 -10.203 -10.2043 -10.2055 -10.2066 -10.2075 -10.2084 -10.2094 -10.2103 -10.2111 -10.2118 -10.2125 -10.2132 -10.2139 -10.2146 -10.2151 -10.2157 -10.2163 -10.2168 -10.2174 -10.218 -10.2185 -10.219 -10.2196 -10.2202 -10.2208 -10.2215 -10.2221 -10.2228 -10.2236 -10.2245 -10.2253 -10.2262 -10.2271 -10.2283 -10.2295 -10.2307 -10.2319 -10.2331 -10.2347 -10.2364 -10.2381 -10.2397 -10.2414 -10.2435 -10.2457 -10.2479 -10.2501 -10.2524 -10.255 -10.2578 -10.2606 -10.2633 -10.2661 -10.2694 -10.2727 -10.2761 -10.2795 -10.2828 -10.2866 -10.2906 -10.2945 -10.2984 -10.3023 -10.3067 -10.3111 -10.3155 -10.3199 -10.3243 -10.3291 -10.334 -10.3388 -10.3436 -10.3484 -10.3535 -10.3587 -10.3638 -10.3689 -10.374 -10.3775 -10.381 -10.3844 -10.3879 -10.391 -10.3929 -10.3948 -10.3967 -10.3986 -10.4005 -10.4058 -10.4111 -10.4163 -10.4216 -10.427 -10.4322 -10.4373 -10.4424 -10.4476 -10.4528 -10.4577 -10.4625 -10.4674 -10.4722 -10.477 -10.4816 -10.4859 -10.4903 -10.4946 -10.499 -10.503 -10.5067 -10.5104 -10.5141 -10.5178 -10.5212 -10.5241 -10.527 -10.5299 -10.5327 -10.5353 -10.5373 -10.5392 -10.5412 -10.5429 -10.5446 -10.5455 -10.5463 -10.5471 -10.5476 -10.5481 -10.548 -10.5476 -10.5471 -10.5463 -10.5454 -10.5442 -10.5424 -10.5403 -10.538 -10.5357 -10.5333 -10.53 -10.5261 -10.5222 -10.5183 -10.5144 -10.5095 -10.5039 -10.4982 -10.4926 -10.487 -10.4804 -10.4729 -10.4654 -10.4579 -10.4505 -10.4421 -10.4326 -10.4231 -10.4137 -10.4039 -10.3934 -10.3824 -10.3708 -10.3594 -10.347 -10.3343 -10.3217 -10.308 -10.2941 -10.2792 -10.2643 -10.2494 -10.2341 -10.2239 -10.2133 -10.2027 -10.1921 -10.1824 -10.1757 -10.169 -10.1624 -10.1557 -10.1487 -10.1297 -10.1105 -10.0912 -10.072 -10.0514 -10.031 -10.0093 -9.98762 -9.96533 -9.94195 -9.919 -9.89587 -9.87176 -9.84585 -9.81996 -9.79452 -9.76909 -9.74212 -9.71369 -9.68528 -9.65732 -9.62869 -9.59885 -9.56871 -9.53778 -9.50712 -9.47472 -9.44234 -9.40997 -9.3774 -9.37185 -9.36603 -9.36021 -9.35439 -9.34866 -9.31999 -9.29134 -9.2627 -9.23408 -9.20401 -9.16818 -9.13142 -9.09462 -9.05668 -9.01781 -8.97953 -8.94127 -8.90155 -8.86031 -8.81907 -8.77842 -8.737 -8.69432 -8.65162 -8.60812 -8.58002 -8.55062 -8.52124 -8.49186 -8.46402 -8.44841 -8.4328 -8.41719 -8.40156 -8.38527 -8.33921 -8.29278 -8.24637 -8.19918 -8.1509 -8.10303 -8.05517 -8.00617 -7.95605 -7.90592 -7.85616 -7.80536 -7.75398 -7.70262 -7.65108 -7.64262 -7.63395 -7.62524 -7.61653 -7.60791 -7.56402 -7.52014 -7.47627 -7.43216 -7.38714 -7.33337 -7.27961 -7.22538 -7.17028 -7.11516 -7.0601 -7.00448 -6.94841 -6.89234 -6.83624 -6.82999 -6.82368 -6.81733 -6.81099 -6.80469 -6.75426 -6.70384 -6.65343 -6.60279 -6.55171 -6.49409 -6.43649 -6.37862 -6.32065 -6.26266 -6.2229 -6.18303 -6.14306 -6.1031 -6.06439 -6.04564 -6.02689 -6.00814 -5.98937 -5.97057 -5.91154 -5.85282 -5.79417 -5.73556 -5.67694 -5.61876 -5.5607 -5.50275 -5.44481 -5.38904 -5.38776 -5.38648 -5.3852 -5.38392 -5.38264 -5.32393 -5.26525 -5.20657 -5.14805 -5.08977 -5.03111 -4.97245 -4.9142 -4.85671 -4.79922 -4.76185 -4.72476 -4.68785 -4.65093 -4.61449 -4.59402 -4.57355 -4.55309 -4.5327 -4.5125 -4.45528 -4.39882 -4.34237 -4.28663 -4.23108 -4.17516 -4.11937 -4.0645 -4.00976 -3.95568 -3.93454 -3.91369 -3.893 -3.87232 -3.8517 -3.81875 -3.7858 -3.75285 -3.72011 -3.6879 -3.63487 -3.58219 -3.53016 -3.47936 -3.42855 -3.37739 -3.32674 -3.27699 -3.22724 -3.17815 -3.1653 -3.15271 -3.14025 -3.12779 -3.1153 -3.07958 -3.04386 -3.00814 -2.97266 -2.93804 -2.89083 -2.84384 -2.7978 -2.7531 -2.70841 -2.6634 -2.61896 -2.57553 -2.5321 -2.48946 -2.47512 -2.4612 -2.4474 -2.4336 -2.41969 -2.39192 -2.36414 -2.33636 -2.30875 -2.28202 -2.24153 -2.2016 -2.16207 -2.12397 -2.08604 -2.04785 -2.00975 -1.97314 -1.93698 -1.90132 -1.87566 -1.85096 -1.82641 -1.80187 -1.77658 -1.76678 -1.75698 -1.74718 -1.7374 -1.72803 -1.69491 -1.66225 -1.62959 -1.59744 -1.56629 -1.53497 -1.50364 -1.47346 -1.44443 -1.41541 -1.38624 -1.35763 -1.32984 -1.30205 -1.27508 -1.25928 -1.24425 -1.22922 -1.2142 -1.19862 -1.18781 -1.17701 -1.16621 -1.15541 -1.1451 -1.12042 -1.09618 -1.07195 -1.04808 -1.02509 -1.00202 -0.978957 -0.956772 -0.935532 -0.914311 -0.893032 -0.871841 -0.851649 -0.83184 -0.812286 -0.79269 -0.774049 -0.75547 -0.736895 -0.718518 -0.713957 -0.709598 -0.705239 -0.700881 -0.69643 -0.683569 -0.67071 -0.657855 -0.645003 -0.632671 -0.616419 -0.600555 -0.584696 -0.56911 -0.554107 -0.53915 -0.524252 -0.509768 -0.496029 -0.4823 -0.468628 -0.454958 -0.441898 -0.429345 -0.416802 -0.404324 -0.392156 -0.380359 -0.368631 -0.357189 -0.345903 -0.335168 -0.324436 -0.313706 -0.303073 -0.299666 -0.296386 -0.293107 -0.289828 -0.286449 -0.279938 -0.273428 -0.266919 -0.260413 -0.254119 -0.245096 -0.236182 -0.227272 -0.218364 -0.20995 -0.201725 -0.193641 -0.185603 -0.177822 -0.170281 -0.162914 -0.155555 -0.148328 -0.141498 -0.134671 -0.128018 -0.121365 -0.115104 -0.109175 -0.103249 -0.097492 -0.0917295 -0.0859123 -0.0798557 -0.0737138 -0.0677065 -0.0628103 -0.0586046 -0.054507 -0.0513495 -0.0476915 -0.0392471 -0.0308059 -0.0223676 -0.0118111 -0.00632024 -0.00535446 -0.0043867 -0.00341696 -0.00241842 -0.00170062 -0.000982987 -0.000265534 0.000451745 0