/*--------------------------------*- C++ -*----------------------------------*\
| =========                 |                                                 |
| \\      /  F ield         | OpenFOAM: The Open Source CFD Toolbox           |
|  \\    /   O peration     | Version:  4.1                                   |
|   \\  /    A nd           | Web:      www.OpenFOAM.org                      |
|    \\/     M anipulation  |                                                 |
\*---------------------------------------------------------------------------*/
FoamFile
{
    version     2.0;
    format      ascii;
    class       volScalarField;
    location    "17";
    object      p;
}
// * * * * * * * * * * * * * * * * * * * * * * * * * * * * * * * * * * * * * //

dimensions      [0 2 -2 0 0 0 0];

internalField   nonuniform List<scalar> 
26785
(
6.34453
6.2742
6.33959
6.43525
6.58591
6.55079
6.43893
6.46233
6.79225
7.20526
7.5926
8.2008
8.87916
9.65933
10.188
10.9139
11.8289
12.9971
14.1884
15.5383
16.8099
18.0676
19.1777
20.053
20.6467
21.0469
21.2181
21.2401
21.14
20.924
20.6168
20.2587
19.9179
19.5083
19.015
18.4368
17.8399
17.1621
16.3903
15.5451
14.6823
13.826
13.0097
12.2228
11.4774
10.7673
10.1305
9.59527
9.02596
8.5361
8.08074
7.72935
7.40783
7.16032
6.94071
6.7771
6.62776
6.50661
6.38691
6.27817
6.17725
6.08233
6.00469
5.92771
5.88001
5.83237
5.81096
5.77116
5.73216
5.65614
5.57437
5.47062
5.37749
5.27909
5.19904
5.11861
5.05207
4.97962
4.91131
4.83118
4.74816
4.65081
4.5471
4.42773
4.29718
4.14732
3.98095
3.79364
3.58859
3.36487
3.12494
2.86883
2.59725
2.30996
2.00637
1.68572
1.34782
0.988475
0.610329
0.213623
6.32729
6.27387
6.34159
6.43281
6.58027
6.54424
6.4342
6.46067
6.78977
7.2018
7.59125
8.20518
8.88679
9.66838
10.1938
10.9154
11.8235
12.9852
14.1726
15.5235
16.7957
18.0601
19.1773
20.0602
20.6552
21.0593
21.2346
21.2579
21.1548
20.9346
20.6248
20.2661
19.9249
19.513
19.0169
18.4371
17.8397
17.1609
16.3874
15.5404
14.6765
13.82
13.0043
12.2184
11.4744
10.7657
10.1307
9.59748
9.02804
8.539
8.08397
7.73282
7.41066
7.16258
6.94289
6.77925
6.62978
6.50798
6.38751
6.27778
6.17612
6.08041
6.00194
5.92425
5.87653
5.82949
5.80882
5.76958
5.73043
5.65411
5.57172
5.4679
5.37494
5.27742
5.19832
5.11917
5.0537
4.98245
4.91497
4.8356
4.75295
4.65596
4.55229
4.43295
4.30207
4.1519
3.98487
3.79703
3.59128
3.36716
3.12678
2.87053
2.59877
2.31152
2.00793
1.68732
1.35005
0.989722
0.624228
0.200505
6.29544
6.27381
6.34782
6.43272
6.57393
6.53233
6.42532
6.45813
6.78548
7.19308
7.58497
8.20986
8.89828
9.68285
10.2046
10.9213
11.8184
12.9675
14.1488
15.4993
16.7709
18.0451
19.1742
20.0705
20.6674
21.0782
21.2616
21.2886
21.1813
20.9541
20.6399
20.2816
19.9408
19.5259
19.0263
18.4453
17.8479
17.1675
16.3902
15.5389
14.6714
13.8127
12.9966
12.2108
11.4678
10.7607
10.1286
9.59819
9.02801
8.5398
8.08512
7.73425
7.41101
7.162
6.94231
6.77872
6.62919
6.50665
6.38526
6.27447
6.17199
6.07558
5.99606
5.9179
5.87065
5.8257
5.80676
5.76922
5.72985
5.65336
5.56983
5.46604
5.37323
5.27721
5.19946
5.12229
5.05822
4.98865
4.922
4.84343
4.7608
4.66398
4.55987
4.44023
4.30839
4.15735
3.98892
3.79995
3.59294
3.36808
3.12697
2.87049
2.59851
2.3113
2.00773
1.68724
1.35041
0.989985
0.627259
0.203906
6.25334
6.2796
6.36094
6.43488
6.56449
6.51337
6.41302
6.45463
6.77779
7.17721
7.57411
8.21762
8.91885
9.70905
10.2243
10.9311
11.8084
12.9361
14.1106
15.4615
16.7355
18.0255
19.174
20.0892
20.6878
21.1071
21.3006
21.3303
21.2152
20.9794
20.6609
20.3045
19.9643
19.5453
19.0419
18.4611
17.865
17.1827
16.4
15.5422
14.6691
13.8071
12.99
12.2038
11.4618
10.7564
10.1273
9.60014
9.02872
8.5413
8.08666
7.73591
7.41146
7.16172
6.94214
6.77879
6.62913
6.50599
6.38354
6.27184
6.16823
6.07124
5.99012
5.9121
5.86536
5.82358
5.80608
5.77024
5.7292
5.65174
5.56563
5.46147
5.36807
5.27363
5.1968
5.12162
5.05838
4.99018
4.92355
4.84526
4.76187
4.66479
4.55976
4.43957
4.30648
4.15446
3.98461
3.79472
3.5869
3.36195
3.12098
2.8652
2.59404
2.3078
2.0052
1.68578
1.34968
0.991269
0.622101
0.215106
6.20392
6.29225
6.37983
6.43961
6.55336
6.48871
6.39903
6.45252
6.76864
7.15585
7.55957
8.22899
8.94715
9.7428
10.2486
10.9404
11.7917
12.8922
14.0638
15.4184
16.7001
18.0114
19.183
20.1201
20.7177
21.1433
21.3429
21.3706
21.2452
21.0016
20.6807
20.3274
19.9871
19.5624
19.0544
18.4739
17.8794
17.1948
16.4063
15.5418
14.6638
13.7991
12.9816
12.1953
11.4537
10.7495
10.1227
9.59706
9.02399
8.53651
8.08172
7.7305
7.40512
7.15509
6.93629
6.77359
6.62439
6.50131
6.37862
6.26675
6.16274
6.06542
5.98312
5.90526
5.85966
5.82085
5.80494
5.76986
5.72678
5.64727
5.55858
5.45367
5.36028
5.26751
5.19232
5.11927
5.05743
4.9906
4.9243
4.84612
4.7622
4.66475
4.55902
4.43817
4.304
4.15088
3.97976
3.7889
3.58053
3.35564
3.11515
2.86028
2.59018
2.30503
2.00346
1.68502
1.34938
0.992351
0.619166
0.221901
6.15043
6.31388
6.4047
6.44608
6.5398
6.46101
6.38771
6.45324
6.75874
7.13165
7.5463
8.24702
8.98431
9.78239
10.2733
10.942
11.7627
12.8343
14.011
15.3762
16.6743
18.0127
19.2071
20.1636
20.7553
21.1817
21.3812
21.3999
21.2607
21.0101
20.6875
20.3361
19.9935
19.5617
19.0496
18.4704
17.8783
17.1925
16.4002
15.5315
14.6517
13.7878
12.9734
12.19
11.4514
10.7506
10.1273
9.60198
9.02816
8.53958
8.08467
7.73195
7.40567
7.15526
6.93722
6.77487
6.6258
6.50249
6.37911
6.2667
6.16175
6.06336
5.97919
5.9007
5.85597
5.81931
5.80443
5.76872
5.72272
5.63991
5.54831
5.44231
5.34929
5.25825
5.18502
5.11401
5.0536
4.98779
4.92156
4.84302
4.7583
4.66021
4.55367
4.43196
4.29661
4.14233
3.97
3.77829
3.56962
3.34512
3.10555
2.85202
2.58324
2.29944
1.99904
1.68177
1.34671
0.991269
0.615505
0.226254
6.09575
6.33835
6.43031
6.45288
6.52493
6.43194
6.37983
6.45799
6.74981
7.10749
7.535
8.26863
9.02294
9.81835
10.2922
10.9372
11.7302
12.7786
13.9667
15.3459
16.6632
18.0271
19.2334
20.2058
20.7874
21.2041
21.3948
21.3992
21.2443
20.988
20.6651
20.3152
19.9714
19.5352
19.0226
18.4499
17.8654
17.1823
16.3896
15.5202
14.6414
13.781
12.9709
12.1906
11.4538
10.7554
10.1344
9.60786
9.03232
8.54202
8.08644
7.73235
7.40533
7.15564
6.93908
6.77781
6.62902
6.50573
6.38154
6.26863
6.16254
6.06264
5.97594
5.89622
5.85225
5.81759
5.80372
5.76697
5.71782
5.63134
5.53689
5.42983
5.33747
5.24819
5.17698
5.10787
5.04882
4.98375
4.91735
4.83814
4.75252
4.65372
4.54645
4.42391
4.28743
4.13207
3.95864
3.76632
3.55764
3.33377
3.09546
2.84353
2.57623
2.29388
1.99464
1.67853
1.344
0.990133
0.611495
0.231709
6.05112
6.36814
6.456
6.45791
6.50763
6.40419
6.37732
6.46527
6.74086
7.08548
7.5289
8.29299
9.06065
9.84754
10.3029
10.9247
11.6948
12.7263
13.928
15.3185
16.6536
18.0435
19.2484
20.2265
20.8074
21.2149
21.408
21.4098
21.2416
20.9775
20.6483
20.2938
19.9442
19.5021
18.9912
18.4273
17.8504
17.168
16.3732
15.5035
14.6278
13.7732
12.969
12.1917
11.4561
10.7601
10.1411
9.61317
9.03601
8.54473
8.08894
7.73446
7.4079
7.16059
6.94638
6.78673
6.63813
6.51465
6.38904
6.27523
6.16726
6.06516
5.97514
5.89412
5.85133
5.81916
5.80639
5.76816
5.71513
5.62429
5.52646
5.41812
5.32613
5.23837
5.16875
5.10121
5.04304
4.97829
4.91121
4.83107
4.74438
4.64496
4.53703
4.41369
4.27606
4.11958
3.94507
3.75227
3.54388
3.32087
3.08405
2.83364
2.5678
2.28677
1.98858
1.67357
1.33954
0.987393
0.605476
0.237228
6.01737
6.39423
6.47607
6.45843
6.48771
6.37721
6.3776
6.47357
6.73192
7.06601
7.52572
8.31614
9.09183
9.8668
10.3052
10.9088
11.6617
12.6827
13.8962
15.2912
16.6404
18.0568
19.2622
20.2156
20.7973
21.2158
21.4193
21.4258
21.249
20.9777
20.6401
20.277
19.9174
19.4671
18.9581
18.4018
17.8286
17.1441
16.3474
15.4796
14.6102
13.7638
12.966
12.1919
11.4577
10.764
10.1468
9.61667
9.03723
8.54552
8.08955
7.73488
7.40926
7.16542
6.95411
6.79625
6.64785
6.52415
6.39712
6.28254
6.17275
6.06797
5.97419
5.8918
5.85067
5.82141
5.80981
5.76969
5.71233
5.61676
5.51545
5.40585
5.31427
5.2279
5.15965
5.09351
5.03611
4.97146
4.90352
4.82244
4.73486
4.63502
4.52662
4.40255
4.26375
4.10615
3.93067
3.73755
3.5296
3.30782
3.0727
2.82361
2.55911
2.279
1.98168
1.66749
1.33388
0.983252
0.5986
0.242249
5.99353
6.4114
6.48784
6.45275
6.4657
6.35462
6.38174
6.48093
6.72188
7.04949
7.52638
8.33808
9.11822
9.87911
10.3009
10.8891
11.6262
12.6413
13.8687
15.2671
16.6178
18.0537
19.2661
20.1959
20.7576
21.2062
21.4222
21.4419
21.2609
20.9848
20.6411
20.2702
19.8988
19.4384
18.9296
18.3766
17.8021
17.1154
16.3196
15.4562
14.5946
13.7568
12.9647
12.1942
11.462
10.7705
10.1537
9.6195
9.03724
8.54546
8.08965
7.7353
7.41216
7.17288
6.96467
6.80856
6.66037
6.53633
6.40771
6.29234
6.18038
6.07214
5.97411
5.89061
5.85188
5.82588
5.81535
5.77278
5.71065
5.61022
5.50557
5.39494
5.30374
5.21847
5.15115
5.08596
5.02877
4.9636
4.89442
4.81229
4.72395
4.62368
4.51476
4.38979
4.24971
4.09088
3.91469
3.72158
3.51416
3.29389
3.06024
2.81241
2.54887
2.26937
1.97255
1.65903
1.32579
0.976677
0.590607
0.245569
5.9813
6.41412
6.49032
6.44309
6.44356
6.33477
6.3867
6.48577
6.70983
7.03293
7.52593
8.35565
9.13766
9.88507
10.2914
10.8698
11.5921
12.6
13.8469
15.2382
16.5734
18.0243
19.2531
20.1888
20.7116
21.1902
21.4198
21.4565
21.2707
20.9921
20.645
20.2704
19.889
19.417
18.9051
18.3511
17.7739
17.0861
16.2912
15.4326
14.5796
13.7513
12.9653
12.1986
11.4684
10.7776
10.159
9.61879
9.03377
8.54236
8.08656
7.73299
7.41323
7.17889
6.97361
6.81917
6.67149
6.54725
6.41734
6.30154
6.18768
6.07541
5.97266
5.88824
5.85234
5.82968
5.81993
5.77461
5.70785
5.603
5.49568
5.38444
5.29369
5.20916
5.14238
5.07773
5.02037
4.95425
4.88368
4.80063
4.71181
4.61118
4.5017
4.37582
4.2345
4.07448
3.89787
3.70512
3.49862
3.27985
3.04719
2.80041
2.53717
2.25817
1.96153
1.64868
1.31587
0.968369
0.582346
0.247036
5.99877
6.41814
6.49073
6.43366
6.42443
6.32021
6.39366
6.4878
6.69541
7.01592
7.52427
8.37004
9.15319
9.88726
10.2788
10.8499
11.5638
12.5592
13.8194
15.1917
16.5143
17.9861
19.2303
20.183
20.6698
21.166
21.4182
21.4662
21.2789
21.0027
20.6567
20.2816
19.89
19.4034
18.8863
18.3269
17.7485
17.06
16.2656
15.4136
14.5717
13.7534
12.9726
12.2071
11.4771
10.7856
10.1634
9.61748
9.03094
8.54015
8.08447
7.73278
7.4176
7.18854
6.9858
6.83286
6.68568
6.56091
6.42953
6.31304
6.19683
6.07972
5.97197
5.88683
5.85411
5.83422
5.82474
5.77644
5.70565
5.59728
5.48816
5.37663
5.28614
5.20169
5.13476
5.06986
5.01147
4.94368
4.87151
4.78761
4.69844
4.59743
4.48724
4.36029
4.21774
4.05659
3.87974
3.68738
3.48227
3.26468
3.03292
2.78652
2.52334
2.24427
1.94787
1.63541
1.30333
0.957554
0.572875
0.246417
6.02749
6.41494
6.48555
6.42283
6.40717
6.30755
6.39952
6.48729
6.67919
6.997
7.51928
8.38219
9.16555
9.88515
10.2648
10.8313
11.539
12.5209
13.7817
15.1284
16.4507
17.9481
19.2078
20.1479
20.6233
21.1307
21.4151
21.461
21.2869
21.0174
20.6761
20.3017
19.8992
19.3966
18.8714
18.305
17.7268
17.0335
16.241
15.3991
14.5693
13.7591
12.98
12.2121
11.4797
10.7868
10.1615
9.61239
9.02506
8.53473
8.07963
7.73039
7.41994
7.19595
6.99528
6.84389
6.6974
6.57199
6.43965
6.32287
6.20437
6.08222
5.96974
5.88393
5.85393
5.83589
5.82616
5.77526
5.70163
5.59099
5.4811
5.36955
5.27911
5.1943
5.12686
5.06117
5.00107
4.93122
4.85758
4.77313
4.68379
4.58243
4.47152
4.3435
4.19988
4.0378
3.86094
3.669
3.46552
3.24869
3.01797
2.77134
2.50829
2.22881
1.93276
1.62075
1.28946
0.945788
0.562783
0.244488
6.05776
6.40932
6.47899
6.41325
6.39374
6.3014
6.40609
6.48506
6.66229
6.97791
7.51276
8.39292
9.17565
9.87859
10.2501
10.8132
11.5122
12.4799
13.7365
15.0657
16.3935
17.909
19.1853
20.0791
20.5604
21.0987
21.4098
21.447
21.3035
21.0353
20.7001
20.3235
19.9109
19.3949
18.8606
18.2901
17.7074
17.0087
16.223
15.3933
14.5734
13.7664
12.9839
12.2104
11.474
10.7794
10.1532
9.60308
9.01641
8.52715
8.07415
7.72858
7.42425
7.20575
7.00697
6.85742
6.71172
6.58538
6.45199
6.33504
6.21398
6.08657
5.96976
5.88304
5.8546
5.83703
5.82638
5.77332
5.69809
5.58655
5.47682
5.36557
5.2747
5.18907
5.12046
5.05308
4.99007
4.91766
4.84256
4.75767
4.66797
4.56608
4.4543
4.32517
4.18068
4.01795
3.84121
3.65005
3.44793
3.23193
3.00155
2.75475
2.49116
2.21153
1.91532
1.60415
1.27383
0.932775
0.552186
0.241629
6.08185
6.40027
6.46941
6.40195
6.38023
6.29665
6.40984
6.48062
6.64623
6.95805
7.50478
8.4034
9.18383
9.86691
10.2345
10.797
11.4825
12.4417
13.6878
15.007
16.3449
17.8707
19.1553
19.9752
20.4632
21.0634
21.3913
21.4336
21.3148
21.0445
20.7179
20.3388
19.9176
19.392
18.8482
18.2769
17.6841
16.9849
16.2092
15.3897
14.5744
13.765
12.9756
12.1954
11.4552
10.7599
10.1342
9.58438
8.99968
8.51249
8.06296
7.72206
7.42422
7.21096
7.014
6.86668
6.72205
6.59512
6.46117
6.34428
6.22113
6.08909
5.96915
5.88179
5.85326
5.83451
5.82217
5.7675
5.69196
5.58065
5.47185
5.36125
5.26973
5.18311
5.11313
5.04337
4.9769
4.90204
4.82591
4.7408
4.65073
4.54827
4.4357
4.30572
4.16057
3.99764
3.821
3.63125
3.42981
3.21502
2.9843
2.73754
2.47317
2.19356
1.89733
1.58671
1.25794
0.919646
0.542188
0.237965
6.10149
6.39153
6.45958
6.38957
6.36762
6.29393
6.41332
6.47635
6.63335
6.93819
7.49555
8.41248
9.18996
9.84985
10.2183
10.7798
11.4515
12.4108
13.6404
14.9546
16.3069
17.8309
19.0831
19.8416
20.3713
21.046
21.3693
21.4138
21.3039
21.0445
20.7274
20.3445
19.9163
19.3857
18.835
18.2624
17.6604
16.9673
16.2017
15.3874
14.5695
13.7526
12.9541
12.1671
11.4242
10.7295
10.1059
9.55795
8.97794
8.49472
8.05077
7.71619
7.42619
7.21808
7.02296
6.87794
6.7342
6.60687
6.47282
6.35531
6.22931
6.09416
5.97264
5.88426
5.85368
5.83213
5.81751
5.76187
5.68684
5.57674
5.4691
5.35942
5.26711
5.17923
5.10703
5.03378
4.96323
4.88618
4.80922
4.72362
4.63271
4.52944
4.416
4.28531
4.13954
3.97675
3.80025
3.61204
3.41109
3.19695
2.96599
2.71857
2.45398
2.17389
1.87819
1.56824
1.24134
0.905934
0.533015
0.232413
6.12241
6.38514
6.44975
6.37511
6.35168
6.28638
6.41223
6.47219
6.62365
6.91806
7.4858
8.42171
9.19416
9.82833
10.2017
10.7622
11.4248
12.3882
13.5966
14.9035
16.2715
17.7825
18.9748
19.7183
20.3165
21.0395
21.3512
21.3872
21.2775
21.0305
20.7211
20.3366
19.9053
19.372
18.8191
18.2421
17.6377
16.9529
16.1927
15.3762
14.5507
13.7241
12.9165
12.1241
11.3805
10.6878
10.0672
9.52239
8.94855
8.47056
8.03335
7.7058
7.42335
7.21983
7.02625
6.88369
6.74078
6.61356
6.48066
6.36146
6.23227
6.09641
5.97512
5.88518
5.85119
5.82648
5.80932
5.75312
5.679
5.57078
5.46478
5.35595
5.2634
5.17443
5.09963
5.02222
4.94799
4.86958
4.7921
4.70566
4.6136
4.5094
4.3952
4.26406
4.11779
3.9554
3.77945
3.59226
3.39226
3.17789
2.94702
2.69882
2.43412
2.1539
1.85835
1.54955
1.2248
0.892424
0.525083
0.224982
6.14172
6.38069
6.44335
6.36291
6.33558
6.27745
6.40896
6.47071
6.61554
6.89917
7.47683
8.42923
9.19494
9.80388
10.1848
10.7447
11.403
12.3687
13.5601
14.8592
16.2347
17.7087
18.8399
19.6177
20.3181
21.0397
21.3283
21.3521
21.2448
21.0032
20.7017
20.3184
19.8875
19.3538
18.8035
18.2213
17.6238
16.9457
16.1824
15.3556
14.5183
13.6809
12.8647
12.0684
11.3262
10.6371
10.0203
9.47972
8.91435
8.44378
8.01544
7.69632
7.42225
7.22309
7.03136
6.89096
6.74911
6.62332
6.48969
6.36982
6.23852
6.1032
5.98072
5.88836
5.85034
5.82263
5.80245
5.74569
5.67217
5.5666
5.46271
5.35459
5.26215
5.17217
5.09396
5.01193
4.93441
4.85502
4.77658
4.68829
4.59438
4.48887
4.37375
4.24224
4.09556
3.93334
3.75837
3.57147
3.37237
3.15754
2.92629
2.67786
2.41279
2.13292
1.83774
1.53014
1.2076
0.878066
0.517231
0.216561
6.15771
6.37565
6.4356
6.35189
6.31605
6.2617
6.40052
6.47021
6.60495
6.8806
7.47028
8.43791
9.19376
9.77737
10.1678
10.7297
11.3849
12.3483
13.5253
14.8185
16.1856
17.6104
18.6952
19.5372
20.3473
21.0204
21.2804
21.2977
21.1993
20.9624
20.6704
20.2914
19.8647
19.3291
18.7828
18.2003
17.6152
16.9373
16.1618
15.3188
14.4681
13.6213
12.7988
12.0017
11.2633
10.5783
9.96536
9.42969
8.87334
8.41102
7.99222
7.68186
7.41547
7.21973
7.03028
6.8918
6.74979
6.62605
6.49506
6.37555
6.24167
6.10689
5.98286
5.88919
5.84723
5.81646
5.79265
5.73465
5.66112
5.55851
5.4574
5.35014
5.2586
5.16824
5.08684
5.00071
4.92101
4.84106
4.7612
4.67028
4.57417
4.4672
4.3511
4.21923
4.07251
3.91012
3.73642
3.54982
3.35107
3.13633
2.90448
2.65605
2.39103
2.11145
1.81703
1.51082
1.19049
0.863867
0.509338
0.209294
6.17169
6.3715
6.42923
6.3466
6.29836
6.24276
6.39041
6.46879
6.59086
6.8637
7.46644
8.44373
9.18915
9.74987
10.1511
10.7188
11.3691
12.3258
13.4905
14.7781
16.1246
17.4957
18.5491
19.4759
20.3765
20.9748
21.222
21.2457
21.1483
20.9167
20.6301
20.257
19.8388
19.3057
18.7597
18.1849
17.6131
16.9276
16.1323
15.2688
14.4026
13.5475
12.7202
11.9256
11.1926
10.5123
9.90418
9.37478
8.82911
8.37669
7.96886
7.66789
7.40975
7.21625
7.03014
6.89435
6.75167
6.62871
6.50093
6.38392
6.24669
6.11388
5.99027
5.89572
5.84952
5.81427
5.786
5.72553
5.65114
5.55112
5.45303
5.34705
5.25678
5.1664
5.08187
4.99225
4.91096
4.83011
4.74776
4.65314
4.55419
4.44546
4.32818
4.19551
4.04897
3.88628
3.71326
3.52725
3.32819
3.11348
2.88137
2.63289
2.36826
2.08913
1.79565
1.49092
1.17289
0.849429
0.500777
0.203912
6.18268
6.36649
6.42086
6.34188
6.27855
6.21949
6.37685
6.46199
6.57358
6.84783
7.46459
8.45048
9.1827
9.72174
10.136
10.713
11.3572
12.3043
13.453
14.7313
16.0501
17.3753
18.4119
19.4215
20.3584
20.8975
21.1465
21.1807
21.0872
20.8624
20.5828
20.216
19.8068
19.2835
18.7346
18.1725
17.6097
16.9086
16.089
15.2042
14.3229
13.4606
12.6304
11.8415
11.1155
10.4406
9.83819
9.31592
8.78097
8.33847
7.94139
7.64866
7.39775
7.20491
7.02066
6.88827
6.74715
6.62953
6.50242
6.38305
6.24249
6.11374
5.99533
5.89975
5.85055
5.80979
5.77662
5.71267
5.6372
5.53873
5.44372
5.34
5.25162
5.16188
5.07506
4.98308
4.90112
4.81929
4.73392
4.63517
4.53327
4.42274
4.30456
4.17094
4.02439
3.86201
3.68899
3.5037
3.30455
3.08948
2.85757
2.60929
2.34502
2.06649
1.77422
1.47126
1.15578
0.835772
0.492033
0.200022
6.19418
6.36448
6.41365
6.34254
6.26208
6.2003
6.36289
6.45247
6.55385
6.83396
7.46389
8.45275
9.17256
9.69798
10.1239
10.7106
11.3479
12.2833
13.4129
14.6797
15.9676
17.2489
18.2849
19.3701
20.2906
20.8139
21.0683
21.1119
21.0238
20.8053
20.5335
20.1719
19.7674
19.2633
18.7166
18.1685
17.6024
16.8786
16.0334
15.128
14.2322
13.3614
12.5305
11.7495
11.0313
10.3629
9.76835
9.25477
8.73238
8.30144
7.9169
7.63238
7.38744
7.19525
7.01121
6.88016
6.74151
6.63378
6.50825
6.38448
6.24386
6.11663
6.00357
5.90736
5.8559
5.8091
5.77122
5.70399
5.62736
5.52926
5.43585
5.33457
5.24765
5.15826
5.06935
4.97588
4.89378
4.81067
4.72162
4.61837
4.51332
4.40094
4.28194
4.14732
3.99976
3.83792
3.66473
3.47929
3.2802
3.06463
2.83257
2.58453
2.3207
2.04301
1.7522
1.45124
1.13848
0.821918
0.483119
0.195963
6.20292
6.36208
6.40286
6.34045
6.2437
6.18077
6.34463
6.44017
6.53418
6.82088
7.46169
8.45213
9.15959
9.67844
10.114
10.7112
11.3421
12.2642
13.3667
14.6182
15.8824
17.124
18.1696
19.3068
20.1781
20.7143
20.9747
21.032
20.9535
20.7417
20.4786
20.1267
19.7246
19.2352
18.7036
18.1614
17.5811
16.8338
15.964
15.0383
14.1299
13.2515
12.4231
11.6504
10.9411
10.2809
9.69562
9.19101
8.68112
8.26202
7.8905
7.61467
7.37297
7.18022
6.99414
6.86255
6.72809
6.62828
6.50353
6.37925
6.24404
6.11915
6.00739
5.91148
5.85608
5.8042
5.7624
5.69314
5.61618
5.51788
5.4246
5.3254
5.23947
5.14981
5.05937
4.96566
4.8844
4.80032
4.70796
4.60059
4.49295
4.37926
4.25947
4.12432
3.97542
3.8136
3.64058
3.45449
3.25488
3.03912
2.80697
2.55904
2.29573
2.01921
1.73012
1.4313
1.12148
0.808483
0.475025
0.190934
6.21077
6.35931
6.39269
6.33974
6.22777
6.16483
6.32915
6.42725
6.51346
6.80821
7.45669
8.44525
9.14378
9.66461
10.1071
10.7142
11.3359
12.2394
13.3123
14.5375
15.7859
16.9996
18.0572
19.2241
20.0377
20.6048
20.8713
20.9459
20.8825
20.6769
20.4172
20.0811
19.6856
19.2042
18.6936
18.1493
17.5495
16.7765
15.8837
14.9383
14.0178
13.1336
12.3092
11.5433
10.8435
10.1938
9.62006
9.12511
8.62944
8.22374
7.86672
7.60205
7.36421
7.16899
6.98047
6.85053
6.72075
6.62354
6.49546
6.37109
6.24463
6.12782
6.01399
5.91849
5.85823
5.80209
5.75729
5.68788
5.61215
5.51376
5.41899
5.32014
5.23324
5.14134
5.04883
4.95546
4.87525
4.79017
4.69469
4.58397
4.47421
4.35948
4.23843
4.10278
3.95281
3.78979
3.61604
3.42935
3.22883
3.01264
2.78039
2.53264
2.26991
1.99465
1.70732
1.41071
1.10405
0.794796
0.467662
0.184617
6.21831
6.35352
6.38125
6.33122
6.20811
6.14611
6.31212
6.41375
6.49075
6.80149
7.45078
8.43514
9.12803
9.6534
10.1007
10.719
11.3287
12.2091
13.2519
14.4397
15.6743
16.8783
17.944
19.1111
19.8815
20.4793
20.7535
20.8468
20.8051
20.606
20.3475
20.0297
19.6432
19.1755
18.6754
18.1221
17.5031
16.7053
15.7903
14.8278
13.8967
13.0094
12.1905
11.4312
10.7413
10.1042
9.54239
9.0556
8.57405
8.18141
7.83783
7.58491
7.35351
7.15431
6.9629
6.83347
6.70886
6.60937
6.4795
6.35744
6.23662
6.12826
6.0139
5.91697
5.8531
5.793
5.74476
5.67708
5.60562
5.50912
5.41334
5.31389
5.22445
5.12859
5.03365
4.941
4.86214
4.77628
4.67857
4.56615
4.45518
4.33996
4.21781
4.08106
3.93025
3.76574
3.59068
3.40333
3.20217
2.98553
2.75302
2.50552
2.2436
1.96974
1.68424
1.39004
1.08688
0.781709
0.461246
0.178077
6.22849
6.34815
6.3715
6.32055
6.18916
6.13027
6.29703
6.39824
6.46446
6.79701
7.44469
8.41916
9.11255
9.64748
10.0965
10.7215
11.316
12.1768
13.1848
14.3275
15.5496
16.7553
17.8232
18.9641
19.7174
20.3424
20.6268
20.7429
20.7222
20.539
20.2799
19.9744
19.6012
19.1507
18.6518
18.0864
17.4456
16.6215
15.6834
14.7069
13.7671
12.8793
12.0649
11.3139
10.635
10.0116
9.46243
8.98495
8.51896
8.13921
7.80852
7.56605
7.34414
7.14426
6.95385
6.82105
6.70364
6.59466
6.46864
6.35705
6.24041
6.1295
6.01836
5.91796
5.85159
5.7871
5.73392
5.66722
5.60166
5.50964
5.41409
5.31321
5.21977
5.11857
5.02016
4.92753
4.8491
4.76177
4.66195
4.54898
4.43717
4.32183
4.19889
4.06013
3.90769
3.74165
3.56526
3.37681
3.17479
2.95776
2.7249
2.47751
2.21632
1.94383
1.66026
1.36876
1.06948
0.768704
0.454948
0.172193
6.24052
6.34058
6.3616
6.30377
6.1674
6.11441
6.27745
6.37765
6.43731
6.79356
7.44244
8.40031
9.09932
9.64416
10.0921
10.719
11.2977
12.134
13.1104
14.2059
15.4186
16.6275
17.6913
18.7826
19.541
20.191
20.4929
20.6321
20.6257
20.469
20.2144
19.9137
19.553
19.1163
18.6178
18.0406
17.3736
16.5244
15.5651
14.5769
13.6298
12.7449
11.9337
11.1939
10.5283
9.91758
9.38047
8.91291
8.46205
8.09389
7.77347
7.53766
7.32376
7.12738
6.94245
6.80782
6.6906
6.57329
6.45127
6.35295
6.24729
6.12895
6.01756
5.91702
5.84665
5.77719
5.71827
5.6504
5.58969
5.50387
5.41077
5.30945
5.21286
5.10695
5.00529
4.91219
4.83336
4.74404
4.64224
4.52946
4.41768
4.30247
4.17887
4.03823
3.88417
3.71671
3.53911
3.34973
3.14679
2.92917
2.69616
2.44902
2.18864
1.91751
1.63605
1.34758
1.05244
0.756322
0.44851
0.167817
6.25495
6.33398
6.35073
6.28806
6.14862
6.10213
6.25765
6.35009
6.40828
6.78964
7.44126
8.37895
9.08643
9.64617
10.0939
10.713
11.2749
12.0799
13.0231
14.0724
15.2834
16.4936
17.5366
18.5724
19.3506
20.0264
20.3548
20.5165
20.5237
20.397
20.1609
19.8596
19.5055
19.078
18.5769
17.9843
17.2882
16.4147
15.4362
14.4385
13.487
12.6056
11.7972
11.0714
10.4201
9.82209
9.30083
8.84486
8.40866
8.05204
7.73999
7.50826
7.2998
7.11046
6.93472
6.80222
6.67621
6.5542
6.43107
6.34604
6.25175
6.1312
6.01751
5.92189
5.85006
5.77603
5.7114
5.64065
5.58018
5.49866
5.40862
5.3078
5.2092
5.09987
4.99518
4.90073
4.81967
4.72738
4.62285
4.51006
4.39884
4.28345
4.15855
4.01618
3.86044
3.69169
3.51275
3.3222
3.11843
2.89997
2.6666
2.41967
2.16011
1.89036
1.61126
1.3262
1.03542
0.744037
0.441524
0.164646
6.26847
6.33004
6.33705
6.26575
6.12732
6.08782
6.23477
6.31652
6.37939
6.78461
7.43952
8.35634
9.07494
9.64939
10.0986
10.7019
11.2499
12.0239
12.9296
13.9336
15.1493
16.3544
17.3562
18.3464
19.1463
19.8502
20.2069
20.3917
20.4153
20.3143
20.1021
19.8072
19.4529
19.0308
18.5249
17.915
17.1906
16.2944
15.3002
14.2944
13.3389
12.4614
11.6606
10.9488
10.311
9.72744
9.22294
8.77716
8.35396
8.00825
7.70369
7.4743
7.26894
7.08636
6.91836
6.79223
6.65289
6.52717
6.40855
6.33166
6.24082
6.12426
6.00683
5.91398
5.84395
5.77049
5.70313
5.62991
5.56548
5.48551
5.3994
5.30039
5.20162
5.09085
4.98457
4.88863
4.80445
4.70894
4.6013
4.48861
4.37844
4.26292
4.13664
3.99276
3.8355
3.66561
3.48557
3.29384
3.08915
2.87024
2.63642
2.38982
2.13118
1.86306
1.5866
1.30519
1.01881
0.732108
0.434191
0.161918
6.2822
6.33066
6.3251
6.24191
6.10906
6.07252
6.21164
6.27629
6.34932
6.77741
7.43789
8.32962
9.0643
9.65423
10.1089
10.6871
11.2221
11.9632
12.8269
13.7868
15.0101
16.2024
17.142
18.1033
18.9304
19.6651
20.0537
20.2638
20.3076
20.2264
20.0337
19.7551
19.4013
18.9797
18.4647
17.8341
17.0805
16.1616
15.1547
14.1425
13.1867
12.311
11.5233
10.822
10.1981
9.63404
9.1493
8.71645
8.30429
7.96854
7.67066
7.44168
7.24185
7.06642
6.90866
6.78929
6.64021
6.50824
6.4035
6.33346
6.23336
6.11796
6.00403
5.91035
5.83845
5.76882
5.70303
5.62603
5.55585
5.4748
5.3919
5.29465
5.19585
5.08457
4.97748
4.87964
4.79133
4.69213
4.58109
4.46812
4.3587
4.24293
4.11515
3.96958
3.81062
3.63942
3.45807
3.2652
3.059
2.83974
2.60546
2.35914
2.10147
1.83527
1.56179
1.28431
1.00237
0.720148
0.426659
0.158595
6.29235
6.33193
6.31414
6.21343
6.08869
6.05073
6.18626
6.23431
6.31974
6.76842
7.43436
8.29898
9.05604
9.6584
10.1213
10.6659
11.1894
11.8978
12.7174
13.6432
14.865
16.0426
16.9082
17.8541
18.7098
19.472
19.8932
20.1286
20.1938
20.1324
19.9528
19.6912
19.3425
18.9202
18.3941
17.7414
16.9589
16.0186
15.0021
13.9853
13.0337
12.1588
11.3852
10.6943
10.0839
9.53837
9.07061
8.6558
8.25659
7.92883
7.63345
7.40337
7.20953
7.04282
6.89657
6.77757
6.62372
6.48849
6.39556
6.3341
6.23113
6.10854
5.99651
5.90265
5.82731
5.75964
5.69785
5.61617
5.54201
5.4596
5.37956
5.28415
5.1854
5.07418
4.96711
4.86758
4.77565
4.67285
4.55925
4.44621
4.33743
4.22144
4.09245
3.94535
3.78481
3.61233
3.42933
3.23529
3.02792
2.80814
2.57403
2.32829
2.07184
1.80778
1.53746
1.26396
0.986318
0.7083
0.419154
0.1542
6.30291
6.33603
6.30531
6.18703
6.07122
6.03111
6.15786
6.18808
6.29016
6.75546
7.42869
8.26462
9.05089
9.66608
10.1324
10.6394
11.1502
11.828
12.5882
13.4945
14.7064
15.8594
16.6493
17.5969
18.4783
19.2676
19.7261
19.9888
20.0793
20.0333
19.8691
19.6207
19.2791
18.8532
18.3136
17.637
16.8247
15.8631
14.8389
13.8215
12.8775
12.0061
11.2426
10.5674
9.97137
9.44293
8.9881
8.59428
8.21597
7.89462
7.59814
7.36944
7.17788
7.01913
6.88823
6.76545
6.61729
6.47517
6.38293
6.32004
6.22975
6.10915
5.99537
5.90317
5.82592
5.75854
5.69869
5.61269
5.53466
5.45028
5.37139
5.27713
5.17752
5.06625
4.95839
4.85664
4.76122
4.65462
4.53883
4.42573
4.31701
4.20054
4.07033
3.9217
3.75939
3.58547
3.40043
3.2044
2.99633
2.77554
2.54169
2.29681
2.04195
1.78041
1.51357
1.24417
0.97062
0.696478
0.411775
0.14894
6.31061
6.33973
6.29657
6.15792
6.04868
6.00788
6.12518
6.14463
6.26417
6.74348
7.41675
8.22575
9.04788
9.67509
10.1368
10.6101
11.1089
11.7589
12.4518
13.3436
14.5448
15.6605
16.3822
17.3295
18.2403
19.0564
19.5511
19.8404
19.9535
19.9233
19.779
19.5408
19.2061
18.775
18.2211
17.522
16.6825
15.7027
14.671
13.6534
12.7173
11.8549
11.0992
10.4422
9.86196
9.35028
8.90546
8.52262
8.17298
7.85784
7.55762
7.33265
7.1414
6.98864
6.86797
6.74009
6.60112
6.45727
6.36316
6.29102
6.20624
6.09633
5.98716
5.89277
5.81512
5.74945
5.69011
5.60392
5.52343
5.43782
5.35901
5.2659
5.16569
5.0548
4.94571
4.84163
4.7433
4.63376
4.51701
4.40383
4.29489
4.17791
4.04668
3.89676
3.73274
3.55704
3.37044
3.17207
2.96368
2.74251
2.50915
2.26537
2.01241
1.75372
1.49057
1.22516
0.955365
0.684884
0.404554
0.143407
6.31906
6.34354
6.29045
6.1308
6.02507
5.98968
6.09517
6.10251
6.23842
6.73195
7.39782
8.18532
9.04574
9.68431
10.1355
10.5785
11.0589
11.6708
12.2992
13.1803
14.3684
15.4342
16.097
17.0442
17.9869
18.8382
19.3708
19.69
19.8253
19.8097
19.6831
19.4559
19.1269
18.6864
18.116
17.3955
16.5302
15.5328
14.4954
13.4811
12.5516
11.7021
10.9583
10.3174
9.75477
9.26161
8.83833
8.45067
8.1292
7.82603
7.5218
7.30025
7.11435
6.96664
6.84831
6.71181
6.58948
6.46942
6.37097
6.27574
6.17763
6.08248
5.98413
5.89011
5.80816
5.74167
5.68239
5.60035
5.51838
5.43091
5.34962
5.25691
5.15645
5.04622
4.93472
4.8276
4.72597
4.61398
4.49706
4.3835
4.27381
4.15585
4.02335
3.87187
3.70616
3.52765
3.33923
3.13932
2.92972
2.70877
2.47619
2.23377
1.98308
1.72773
1.46846
1.20687
0.940621
0.673829
0.39756
0.13848
6.32629
6.34298
6.2833
6.10155
5.99512
5.96604
6.0596
6.06181
6.21442
6.7225
7.36637
8.14498
9.04369
9.69027
10.1287
10.5462
11.0001
11.5671
12.1471
13.0142
14.1872
15.1979
15.8124
16.7608
17.729
18.6182
19.186
19.5365
19.6921
19.6908
19.579
19.3596
19.0375
18.5881
18
17.2592
16.3712
15.3584
14.3164
13.3071
12.3844
11.5479
10.8202
10.1931
9.64626
9.17168
8.77539
8.37472
8.07582
7.7922
7.4839
7.26229
7.08929
6.94581
6.82406
6.67019
6.55661
6.47768
6.38775
6.27627
6.15796
6.05736
5.97177
5.88324
5.79908
5.72221
5.66218
5.58899
5.50833
5.41992
5.33472
5.24162
5.14243
5.03353
4.91996
4.80999
4.70515
4.59144
4.47523
4.36174
4.25119
4.13194
3.99813
3.8449
3.67777
3.49694
3.30589
3.1059
2.89534
2.67484
2.4432
2.20239
1.95458
1.70283
1.44725
1.18918
0.926407
0.663407
0.390572
0.134664
6.33507
6.34373
6.27654
6.07343
5.96403
5.94212
6.02922
6.0175
6.18633
6.71025
7.32587
8.11078
9.04021
9.69163
10.1162
10.5088
10.9284
11.4438
11.9827
12.8321
13.9844
14.935
15.5144
16.4658
17.4612
18.3854
18.9947
19.3793
19.5565
19.5653
19.4684
19.2547
18.9366
18.4795
17.8721
17.1099
16.2006
15.1739
14.129
13.1282
12.2159
11.3912
10.6814
10.068
9.53746
9.08443
8.71346
8.3108
8.02348
7.76047
7.45143
7.22575
7.06877
6.93918
6.80415
6.63944
6.52584
6.4635
6.38638
6.28173
6.16613
6.04803
5.96397
5.8844
5.80406
5.71356
5.64578
5.57939
5.50184
5.41286
5.32266
5.22817
5.13046
5.02235
4.90689
4.7942
4.68537
4.57
4.45461
4.34124
4.2295
4.10845
3.97272
3.81766
3.64798
3.46598
3.27221
3.07159
2.86053
2.64066
2.41012
2.17136
1.92702
1.6791
1.4268
1.17226
0.912941
0.653825
0.383649
0.132543
6.34185
6.34387
6.26674
6.04179
5.92688
5.90947
5.99823
5.97671
6.15972
6.69301
7.27698
8.08424
9.03611
9.68898
10.0989
10.468
10.8552
11.3212
11.8211
12.6468
13.7735
14.6666
15.2215
16.1727
17.1975
18.1446
18.797
19.2141
19.4131
19.4307
19.3487
19.1422
18.8232
18.3606
17.7356
16.9524
16.0239
14.9862
13.9399
12.9492
12.0469
11.2345
10.5417
9.94169
9.42572
8.99447
8.64286
8.25666
7.96689
7.72047
7.41441
7.18294
7.03996
6.9293
6.77846
6.61131
6.48249
6.42292
6.36141
6.26676
6.15917
6.03557
5.94278
5.87202
5.79928
5.70537
5.62771
5.56196
5.48866
5.39887
5.30484
5.20933
5.11341
5.00559
4.8892
4.77478