/*--------------------------------*- C++ -*----------------------------------*\
| =========                 |                                                 |
| \\      /  F ield         | OpenFOAM: The Open Source CFD Toolbox           |
|  \\    /   O peration     | Version:  4.1                                   |
|   \\  /    A nd           | Web:      www.OpenFOAM.org                      |
|    \\/     M anipulation  |                                                 |
\*---------------------------------------------------------------------------*/
FoamFile
{
    version     2.0;
    format      ascii;
    class       surfaceScalarField;
    location    "17";
    object      phi;
}
// * * * * * * * * * * * * * * * * * * * * * * * * * * * * * * * * * * * * * //

dimensions      [0 3 -1 0 0 0 0];

internalField   nonuniform List<scalar> 
52920
(
1987.21
-97.197
2083.19
-93.92
2176.72
-97.5128
2274.06
-98.8708
2366.33
-100.145
2464.72
-98.9625
2558.02
-98.2946
2651.93
-96.4065
2742.38
-95.1816
2832.85
-93.6884
2921.26
-91.7428
3006.78
-90.7836
3093.62
-89.2249
3174.56
-87.7979
3254.68
-84.0592
3327.81
-79.5749
3398.3
-74.1582
3459.96
-68.307
3520.45
-65.8365
3584.73
-70.1998
3656.64
-78.0705
3737.37
-86.6653
3830.17
-97.6709
3918.7
-96.2775
3994.86
-80.4657
4055.28
-65.9081
4109.93
-58.6015
4165.02
-62.1981
4232.76
-73.8657
4307.25
-82.8961
4386.58
-86.5491
4463.81
-86.1926
4541.75
-84.353
4617.15
-81.8752
4693.01
-79.215
4765.53
-76.0856
4837.74
-73.2115
4907.89
-70.8658
4978.87
-69.6739
5050.13
-69.664
5123.98
-70.6622
5199.71
-72.0898
5277.7
-73.4258
5356.57
-74.1711
5436.01
-74.1546
5514.13
-73.2822
5590.63
-72.0595
5669.75
-71.5796
5746.36
-70.9205
5824.38
-70.9444
5902.43
-71.6936
5982.06
-73.3236
6064.59
-75.8639
6148.57
-78.7376
6237.3
-82.366
6327.35
-85.9378
6423.39
-89.8832
6519.96
-93.1694
6621.96
-96.5487
6723.47
-98.9872
6829.9
-101.417
6934.91
-102.883
7043.44
-104.381
7150.08
-105.048
7259.38
-105.759
7366.79
-105.924
7475.93
-106.192
7583.43
-106.112
7692.18
-106.062
7799.27
-105.696
7907
-105.327
8012.92
-104.687
8119.13
-104.046
8223.41
-103.209
8327.64
-102.395
8429.98
-101.49
8532.19
-100.652
8632.69
-99.8425
8733.12
-99.1757
8832.2
-98.6342
8931.46
-98.2791
9029.77
-98.0889
9128.55
-98.0894
9226.77
-98.229
9325.7
-98.5032
9424.32
-98.8356
9523.7
-99.2218
9622.89
-99.58
9722.71
-99.9155
9822.36
-100.161
9922.38
-100.335
10022.2
-100.39
10122.1
-100.358
10221.7
-100.214
10321.3
-100.023
10420.6
-99.7133
10519.5
-99.2767
10618.4
-99.0436
10713.6
-95.4225
-92.2861
2111.22
-198.976
2214.72
-196.06
2316.58
-204.371
2424.55
-209.208
2525.41
-209.951
2634.16
-207.583
2736.71
-205.27
2840.84
-202.886
2940.89
-199.793
3041.04
-195.866
3139.47
-191.903
3234.75
-190.613
3332.34
-189.598
3422.92
-187.831
3513.75
-182.952
3597.25
-174.114
3678.85
-163.952
3751.07
-151.64
3822.98
-146.719
3898.92
-154.262
3982.71
-168.49
4074.5
-181.196
4178.44
-201.628
4277.12
-199.541
4361.36
-167.545
4427.63
-139.257
4487.77
-126.342
4549.75
-136.107
4626.57
-161.472
4711.3
-180.294
4801.67
-188.602
4890.69
-189.138
4981.04
-186.27
5069.4
-181.763
5158.61
-176.08
5244.84
-169.64
5331.02
-163.602
5415.63
-159.113
5501.78
-156.989
5589.19
-157.324
5680.07
-159.612
5773.6
-162.614
5869.88
-165.321
5967.37
-166.816
6065.64
-166.8
6162.89
-165.286
6258.89
-163.198
6357.5
-162.221
6453.87
-161.182
6551.29
-160.801
6648.18
-161.63
6745.29
-163.477
6843.42
-166.55
6940.51
-169.838
7039.31
-173.961
7136.14
-177.925
7235.28
-182.046
7331.43
-185.23
7429.4
-188.217
7523.62
-189.951
7619.5
-191.326
7711.15
-191.518
7803.53
-191.529
7891.62
-190.539
7979.95
-189.397
8064.3
-187.759
8148.27
-186.153
8228.78
-184.298
8308.76
-182.423
8385.59
-180.287
8461.69
-178.137
8534.86
-175.795
8607.33
-173.45
8677.03
-171.038
8745.94
-168.649
8812.29
-166.298
8877.84
-164.01
8941.04
-161.896
9003.48
-159.971
9063.89
-158.357
9123.8
-157.041
9182.11
-156.154
9240.33
-155.652
9297.59
-155.62
9355.37
-155.966
9412.88
-156.714
9471.48
-157.759
9530.48
-159.075
9591.03
-160.554
9652.54
-162.166
9715.83
-163.821
9780.46
-165.487
9846.94
-167.111
9915.06
-168.683
9984.96
-170.185
10056.9
-171.721
10130.1
-172.595
10206.5
-175.257
10281.7
-170.721
-171.066
2251.74
-303.88
2363.83
-305.824
2474.3
-318.514
2589.35
-325.36
2696.75
-325.045
2810.15
-321.912
2916.81
-317.251
3023.95
-312.65
3126.47
-307.2
3228.38
-301.485
3328.14
-295.665
3424.57
-292.63
3522.7
-289.958
3614.04
-285.068
3705.29
-276.5
3789.47
-262.955
3871.53
-247.629
3943.93
-228.795
4014.68
-221.133
4088.24
-232.751
4169.31
-255.581
4258.62
-277.714
4361.02
-310.696
4460.44
-307.066
4547.93
-258.858
4619.53
-215.19
4684.29
-192.962
4749.57
-206.249
4828.57
-244.109
4915.03
-272.939
5006.88
-285.348
5097.5
-286.406
5189.41
-282.291
5279.72
-276.46
5371.24
-269.089
5460.32
-260.643
5549.33
-252.15
5636.45
-245.592
5724.14
-242.187
5811.71
-242.335
5900.92
-245
5990.92
-248.655
6081.82
-251.596
6172.24
-252.661
6261.83
-251.285
6348.69
-247.507
6432.1
-242.37
6515.26
-237.805
6592.66
-232.882
6666.77
-227.788
6735.2
-223.548
6797.99
-219.868
6855.59
-217.201
6905.75
-214.591
6951.49
-212.899
6989.4
-211.534
7024.73
-210.543
7052.52
-209.423
7078.76
-208.225
7098.02
-206.59
7116.94
-204.402
7129.35
-201.783
7141.28
-198.577
7147.2
-194.959
7152.62
-190.641
7152.73
-186.415
7151.95
-181.837
7146.75
-177.642
7140.85
-173.186
7131.34
-169.19
7121.36
-165.082
7108.47
-161.493
7095.65
-157.798
7080.54
-154.673
7065.74
-151.416
7049.16
-148.699
7033.1
-145.837
7015.64
-143.584
6998.81
-141.374
6981.01
-139.944
6964.27
-138.838
6947.28
-138.808
6932.19
-139.474
6918.08
-141.463
6907.21
-144.376
6898.88
-148.631
6895.2
-153.787
6895.59
-160.027
6901.8
-166.889
6913.24
-174.412
6931.1
-182.202
6954.86
-190.214
6985.13
-198.19
7021.6
-206.109
7064.32
-213.774
7113.42
-221.531
7168.29
-228.167
7228.88
-236.296
7298.92
-241.187
-244.497
2357.97
-409.778
2468.14
-415.187
2573.77
-428.735
2680.37
-434.008
2777.29
-429.811
2878.02
-422.275
2971.04
-414.392
3063.37
-407.508
3150.32
-398.899
3236.09
-389.528
3319.38
-381.192
3399.03
-377.369
3479.68
-373.836
3552.9
-367.613
3625.26
-355.814
3690.05
-337.197
3752.05
-315.254
3802.12
-287.84
3846.3
-272.855
3889.52
-284.011
3940.48
-315.741
4003.04
-346.828
4083.36
-397.601
4165.55
-399.783
4243.19
-342.824
4312.24
-293.975
4373.51
-261.629
4428.42
-272.558
4491.36
-319.166
4558.67
-355.372
4629.59
-371.541
4697.91
-372.38
4766.73
-365.675
4834.28
-357.629
4904.45
-348.054
4973.71
-337.772
5043.89
-326.383
5112.14
-316.793
5179.93
-309.923
5245.62
-306.691
5310.7
-306.406
5374.54
-307.767
5437.98
-309.058
5500.44
-308.866
5562.29
-306.181
5621.84
-300.657
5678.27
-292.876
5734.99
-284.599
5785.42
-275.339
5831.75
-264.082
5870.49
-252.547
5901.03
-240.451
5923.68
-228.941
5935.69
-217.479
5940.92
-207.305
5935.69
-198.642
5927.02
-191.258
5909.38
-185.177
5890.68
-179.786
5864.45
-174.947
5839.3
-169.882
5807.52
-164.925
5776.83
-159.484
5740.19
-153.816
5704.69
-147.475
5664.17
-141.484
5624.34
-135.353
5580.74
-129.927
5538.24
-124.618
5493.12
-120.103
5449.54
-115.95
5404.37
-112.673
5361.54
-109.79
5317.98
-107.808
5277.2
-106.151
5236.51
-105.278
5199.07
-104.68
5162.5
-104.906
5129.61
-105.638
5098.47
-107.431
5071.81
-110.123
5048
-114.302
5029.71
-119.864
5015.58
-127.217
5008.14
-136.146
5006.02
-146.761
5011.33
-158.721
5022.7
-171.868
5041.68
-185.773
5066.91
-200.196
5099.28
-214.738
5137.64
-229.184
5182.32
-243.269
5232.57
-256.921
5288.25
-269.935
5349.06
-282.644
5414.98
-294.417
5484.11
-305.328
5562.17
-319.428
-321.876
2379.3
-493.837
2466.24
-499.94
2545.48
-511.266
2623.18
-512.349
2689.83
-504.106
2759.3
-493.073
2820.37
-481.404
2879.98
-470.249
2933.34
-458.045
2984.95
-445.889
3033.68
-435.169
3078.33
-428.824
3123.49
-421.387
3160.12
-410.052
3195.08
-391.627
3221.46
-367.39
3244.72
-338.527
3252.45
-300.442
3246.57
-270.626
3229.54
-273.166
3215.16
-310.188
3213.32
-357.135
3233.28
-430.172
3256.44
-437.357
3284.32
-377.256
3320.72
-334.202
3354.67
-294.81
3373.14
-294.11
3391.78
-339.088
3411.59
-380.67
3435.5
-398.615
3457.83
-400.449
3482.86
-392.882
3509.62
-387.62
3543.96
-382.014
3582.64
-377.185
3627.96
-369.186
3676.41
-362.471
3728.85
-356.954
3781.89
-354.477
3836.11
-353.839
3890.35
-355.402
3946.01
-357.416
4003.52
-359.317
4064.65
-359.587
4128.12
-357.088
4193.15
-351.853
4264.23
-344.628
4333.18
-335.96
4401.87
-322.502
4465.25
-306.377
4521.65
-287.664
4571.07
-268.2
4609.64
-248.293
4642.01
-229.764
4663.57
-214.063
4682.92
-200.727
4693.34
-190.569
4704.37
-181.943
4708.08
-175.125
4714.58
-168.249
4714.5
-162.11
4716.79
-155.203
4712.98
-148.251
4711.16
-140.247
4704.15
-132.761
4698.29
-125.02
4688.46
-118.337
4679.96
-111.907
4668.57
-106.783
4658.72
-102.278
4646.84
-99.0942
4637.02
-96.5382
4625.83
-95.1702
4616.85
-94.2876
4607.13
-94.3753
4599.86
-94.9115
4592.5
-96.5018
4587.87
-98.8791
4583.91
-102.652
4583.34
-107.742
4584.36
-114.754
4589.55
-123.658
4597.34
-134.79
4610.13
-147.957
4626.3
-163.105
4647.87
-179.872
4673.27
-197.89
4704.01
-216.69
4738.64
-235.833
4778.05
-254.893
4821.1
-273.536
4868.19
-291.502
4918.64
-308.698
4972.45
-324.991
5029.36
-340.625
5089.49
-355.614
5152.18
-368.773
5217.65
-385.508
-389.738
2262.67
-552.779
2319.78
-556.98
2366.75
-563.421
2409.88
-557.416
2439.54
-542.072
2470.78
-523.932
2492.03
-507.923
2510.7
-492.776
2521.66
-475.779
2530.2
-458.44
2535.44
-444.816
2536.46
-437.688
2538.79
-428.242
2532.3
-414.713
2524.67
-390.369
2507.66
-359.772
2488.63
-323.102
2450.54
-272.732
2388
-218.765
2293.81
-194.54
2183.72
-221.298
2077.75
-272.01
1990.93
-364.514
1888.15
-362.147
1788.14
-298.554
1733.77
-303.054
1711.46
-287.959
1681.79
-286.739
1657.31
-337.291
1639.69
-392.007
1633.88
-422.857
1632.41
-433.834
1639.92
-428.761
1653.49
-426.891
1680.68
-425.145
1718.07
-428.107
1769.84
-426.833
1832.09
-427.704
1906
-427.777
1986.13
-428.918
2071.56
-429.735
2159.26
-432.371
2249.9
-436.074
2343.44
-441.265
2442.22
-446.403
2544.63
-449.154
2649.67
-447.762
2763.27
-442.878
2875.93
-436.13
2990.27
-421.331
3100.19
-400.888
3203.05
-374.954
3298.57
-346.541
3381.4
-316.719
3456.81
-288.375
3518.93
-264.052
3577.8
-243.405
3625.4
-227.745
3672.97
-214.848
3711.43
-204.96
3752.48
-195.465
3785.55
-187.225
3820.81
-178.195
3848.75
-169.159
3878.34
-158.914
3901.63
-149.328
3925.47
-139.556
3944.33
-131.088
3963.84
-123.148
3979.55
-116.839
3996.17
-111.518
4009.93
-107.842
4025.12
-105.097
4038.1
-103.749
4052.48
-103.059
4065.12
-103.411
4079.16
-104.341
4091.89
-106.383
4106.01
-109.392
4119.33
-113.94
4134.46
-120.113
4149.49
-128.497
4166.99
-139.192
4185.34
-152.482
4206.99
-168.218
4230.34
-186.244
4257.54
-206.174
4287.05
-227.512
4320.55
-249.711
4356.61
-272.236
4396.3
-294.568
4438.54
-316.336
4483.84
-337.223
4531.62
-357.147
4582
-376.025
4634.89
-394.044
4690.2
-411.535
4748.45
-427.172
4808.51
-445.922
-452.337
2079.58
-584.615
2107.03
-581.965
2120.86
-580.849
2128.97
-565.887
2121.09
-543.644
2114.65
-519.424
2097.63
-498.688
2078.73
-478.026
2052.17
-457.143
2024.22
-437.261
1994.28
-422.561
1962.06
-415.415
1934.94
-404.625
1900.92
-389.058
1868.35
-358.58
1825.06
-322.15
1781.39
-278.572
1715.15
-214.983
1614.66
-125.009
1458.41
-52.5838
1259.28
-44.7065
1045.89
-93.0013
839.199
-195.101
559.136
-130.545
280.344
-59.5805
142.723
-195.543
116.292
-267.429
118.425
-308.561
159.251
-383.242
213.037
-460.577
279.191
-495.848
342.268
-509.699
410.015
-500.033
475.694
-498.322
549.689
-496.699
626.135
-504.375
712.361
-506.163
804.209
-512.065
905.911
-517.235
1011.85
-523.408
1122.3
-526.623
1233.16
-530.592
1344.82
-534.481
1455.96
-540.04
1568.49
-545.887
1680.63
-550.057
1792.81
-550.322
1913.36
-546.282
2030.74
-540.587
2149.17
-524.371
2262.84
-500.118
2369.08
-467.794
2468.49
-430.997
2554.66
-391.823
2634.37
-353.943
2700.48
-321.709
2765.16
-294.477
2818.74
-274.738
2874.55
-258.938
2921.8
-247.879
2974.13
-237.519
3019.12
-229.156
3068.39
-219.589
3110.94
-210.03
3156.79
-198.649
3196.9
-187.833
3238.76
-176.536
3276.12
-166.725
3315
-157.48
3350.36
-150.269
3387.08
-144.193
3420.89
-140.023
3456.13
-136.784
3488.7
-134.941
3522.18
-133.586
3553.05
-133.137
3584.4
-133.094
3613.19
-134.092
3642.09
-136.007
3668.63
-139.545
3695.41
-144.867
3720.33
-152.703
3746
-163.217
3770.65
-176.777
3796.85
-193.236
3822.91
-212.429
3851.14
-233.89
3879.96
-257.05
3911.24
-281.243
3943.59
-305.841
3978.27
-330.233
4014.32
-354.016
4052.44
-376.834
4092.25
-398.651
4134.03
-419.437
4177.98
-439.428
4224.09
-459.072
4273.16
-477.267
4325.19
-498.749
-509.19
1882.4
-598.652
1882.89
-583.148
1867.03
-571.412
1846.72
-547.462
1811.17
-518.566
1781.16
-489.582
1743.37
-469.031
1707.59
-448.828
1666.3
-426.798
1626.27
-404.664
1586.54
-391.035
1547.03
-388.574
1517.09
-381.082
1481.85
-367.93
1450.71
-332.833
1405.92
-287.557
1360.92
-235.262
1288.94
-160.119
1180.95
-38.5248
1009.23
80.3746
783.304
122.382
519.566
90.1135
257.181
-33.8666
-81.1715
77.6077
-300.18
72.0649
-301.53
-257.326
-250.952
-349.448
-201.963
-408.737
-79.6166
-552.232
34.713
-638.273
153.394
-671.928
252.027
-672.999
347.885
-644.912
429.79
-622.764
511.165
-602.243
583.957
-596.824
661.848
-590.759
742.007
-593.39
830.886
-597.039
921.864
-601.331
1015.86
-602.457
1107.96
-603.915
1198.75
-605.788
1286.87
-610.108
1375.02
-616.208
1461.51
-621.477
1546.91
-622.656
1641.28
-619.012
1731.95
-613.223
1824.6
-595.121
1913.69
-566.968
1996.15
-528.061
2073.54
-483.563
2139.44
-436.908
2202.73
-393.019
2255
-356.244
2310.3
-326.695
2357.22
-306.368
2410.57
-291.697
2457.78
-282.447
2513.58
-274.428
2563.79
-268.044
2620.71
-260.19
2672
-251.532
2728.19
-240.71
2779.37
-229.93
2833.21
-218.558
2882.98
-208.365
2934.64
-198.789
2982.74
-191.045
3032.05
-184.468
3077.9
-179.58
3124.53
-175.516
3167.5
-172.544
3210.34
-169.841
3249.31
-167.708
3287.49
-165.813
3321.71
-164.727
3354.67
-164.523
3383.82
-165.922
3411.85
-169.309
3436.59
-175.428
3460.73
-184.582
3482.38
-197.112
3504.2
-212.921
3524.32
-231.784
3545.15
-253.226
3565
-276.633
3585.91
-301.31
3606.49
-326.608
3628.26
-351.897
3650.4
-376.786
3673.93
-400.92
3698.71
-424.324
3725.31
-447.002
3754.24
-469.229
3785.73
-491.548
3820.79
-512.81
3859.97
-538.514
-557.181
1695.49
-592.788
1676.75
-561.345
1643.11
-542.022
1611.88
-516.447
1570.05
-489.182
1539.87
-462.281
1504.44
-443.829
1473.47
-423.529
1437.25
-401.37
1402.69
-379.58
1368.34
-367.463
1334.35
-367.985
1311.72
-362.831
1283.93
-349.966
1262.49
-310.818
1225.59
-257.583
1188.11
-196.073
1118.15
-103.255
1019.45
51.3716
872.303
209.1
678.987
285.245
418.743
290.839
201.062
104.16
-43.9583
210.67
-207.069
190.696
-182.784
-289.374
-100.006
-421.969
-30.6567
-483.1
59.2337
-634.184
159.096
-743.721
275.352
-781.115
374.609
-771.775
472.691
-733.538
553.021
-698.326
628.23
-666.245
692.533
-653.649
762.977
-647.78
837.84
-654.906
920.953
-663.076
1002.1
-667.484
1080.6
-664.744
1152.84
-661.592
1222.28
-660.196
1290.05
-663.649
1359.32
-670.329
1427.07
-675.954
1493.09
-677.554
1567.97
-673.909
1637.69
-667.534
1707.49
-646.84
1772.92
-614.976
1832.12
-571.448
1888.59
-522.027
1935.6
-471.078
1983.59
-424.524
2023.56
-386.908
2070.89
-358.858
2113.11
-341.85
2165.61
-331.818
2214.44
-327.37
2274.31
-323.974
2329.75
-321.189
2392.93
-315.922
2450.68
-308.56
2513.51
-298.112
2571.13
-286.802
2631.19
-274.399
2686.73
-262.837
2743.66
-251.7
2796.34
-242.342
2849.48
-233.999
2898.26
-227.191
2946.87
-220.942
2990.82
-215.488
3033.65
-209.964
3071.6
-204.75
3107.85
-199.583
3139.26
-195.162
3168.68
-191.635
3193.57
-189.873
3216.72
-190.296
3235.8
-193.739
3253.49
-200.448
3267.57
-210.815
3280.65
-224.673
3290.54
-241.885
3299.72
-261.909
3306.38
-284.27
3312.84
-308.235
3317.83
-333.269
3323.29
-358.737
3328.69
-384.327
3335.5
-409.712
3343.94
-434.97
3354.95
-460.136
3369.31
-485.477
3387.49
-511.587
3410.54
-537.156
3439.05
-568.026
-598.368
1535.78
-577.065
1509.95
-536.483
1475.95
-515.389
1450.92
-493.03
1416.4
-467.564
1394.24
-441.383
1364.78
-425.237
1338.36
-406.38
1304.9
-382.677
1272.26
-357.606
1239.25
-345.824
1206.62
-351.332
1186.65
-349.856
1162.49
-339.419
1147.72
-297.907
1118.19
-236.142
1087.47
-164.333
1018.2
-54.473
929.388
117.85
806.578
294.84
641.273
396.478
404.372
448.233
187.531
230.978
86.0574
182.687
-36.6043
199.981
-65.3164
-308.03
-20.0035
-477.926
31.515
-555.603
105.252
-731.583
191.443
-869.716
300.397
-926.468
402.082
-916.398
502.038
-865.366
582.754
-807.594
655.767
-754.999
720.025
-731.198
793.514
-723.919
873.663
-731.755
958.581
-734.77
1033.72
-725.351
1098.32
-707.606
1154.55
-695.933
1211.46
-694.848
1271.78
-703.125
1337.04
-714.764
1401.73
-722.63
1463.61
-723.454
1531.76
-716.811
1590.93
-704.729
1646.86
-676.724
1696.91
-637.886
1740.35
-588.182
1783.15
-534.685
1819.23
-482.055
1860.44
-436.829
1897.36
-402.449
1945.54
-380.023
1991.24
-369.215
2049.1
-365.935
2103.98
-367.113
2169.83
-368.512
2230.59
-368.739
2298.11
-365.331
2359.14
-358.415
2424.18
-347.731
2483.05
-335.427
2543.42
-321.794
2598.45
-308.595
2654.03
-295.834
2704.59
-284.587
2754.85
-274.326
2800.03
-265.35
2844.41
-256.772
2883.53
-248.704
2921.06
-240.378
2953.36
-232.173
2983.79
-223.99
3009.27
-216.517
3032.75
-210.012
3051.57
-205.283
3068.36
-202.76
3080.41
-203.115
3090.13
-206.621
3094.9
-213.637
3097.26
-224.183
3094.91
-238.259
3090.62
-255.566
3082.73
-275.818
3074.08
-298.452
3063.75
-323.084
3054.25
-349.139
3045.47
-376.35
3039.32
-404.379
3036.36
-433.236
3037.72
-462.841
3044.3
-493.3
3056.47
-525.12
3075.1
-556.57
3100.4
-594.1
-637.321
1402.4
-558.197
1385.46
-515.865
1359.22
-493.627
1339.33
-473.068
1305.39
-448.201
1281.65
-421.188
1248.83
-403.861
1219.02
-382.659
1182.5
-357.966
1147.79
-333.295
1113.48
-323.356
1080.6
-333.004
1062.15
-336.322
1040.67
-328.661
1031.12
-287.622
1007.88
-221.661
982.69
-137.096
919.491
-4.40792
846.368
185.547
747.67
382.786
611.475
518.747
405.821
623.349
168.772
445.322
94.1104
222.084
10.7042
254.029
-24.8132
-274.088
-5.56589
-480.771
27.1474
-586.283
102.333
-788.656
181.874
-939.246
291.539
-1015.93
394.719
-1004.31
491.206
-941.537
569.487
-871.329
642.876
-811.221
711.805
-787.345
793.102
-789.217
881.391
-805.284
966.227
-803.045
1030.08
-775.212
1078.77
-741.877
1125.58
-730.105
1184.49
-740.582
1255.2
-760.985
1333.14
-778.606
1408.59
-785.727
1477.21
-781.441
1546.33
-766.416
1601.36
-744.39
1649.88
-707.535
1691.66
-662.285
1727.2
-608.675
1764.41
-554.568
1797.66
-503.91
1839.1
-463.365
1878.64
-434.596
1930.66
-418.958
1980.46
-414.308
2041.48
-416.744
2098.37
-421.983
2164.47
-426.364
2224.14
-427.879
2289.08
-424.676
2346.61
-416.797
2407.2
-404.488
2461.06
-389.866
2515.8
-373.579
2564.76
-357.547
2613.83
-341.872
2657.56
-327.792
2700.72
-314.671
2738.66
-302.834
2775.76
-291.292
2807.69
-280.158
2838.26
-268.672
2863.98
-257.343
2888.3
-246.066
2908.03
-235.488
2925.93
-225.689
2938.86
-217.387
2949.08
-210.798
2953.37
-206.698
2954.06
-205.432
2948.46
-207.753
2939.5
-213.9
2925.11
-224.326
2908.69
-238.824
2888.89
-257.434
2869.14
-279.573
2848.88
-305.081
2831.07
-333.268
2815.91
-363.946
2805.53
-396.568
2800.55
-431.004
2801.91
-466.837
2810.23
-503.921
2825.4
-542.506
2847.79
-580.467
2877.01
-624.47
-678.078
1306.4
-544.342
1288.7
-498.866
1258.75
-471.192
1232.9
-448.516
1191.42
-421.612
1161.76
-393.778
1124.4
-379.097
1092.17
-361.727
1054.7
-338.689
1020.41
-312.614
987.017
-304.222
955.458
-320.251
939.507
-327.821
920.836
-322.12
915.575
-279.77
896.451
-208.206
875.017
-111.745
816.69
33.0292
752.049
230.365
668.152
434.846
552.558
592.757
402.17
717.276
176.827
613.965
-43.2568
370.001
-141.963
249.568
-114.725
-343.191
-62.618
-535.507
4.6089
-662.692
95.8654
-886.889
175.13
-1036.91
279.384
-1134.95
375.692
-1120.68
464.663
-1043.85
541.601
-962.12
620.089
-896.043
698.85
-871.967
791.185
-878.458
884.889
-889.725
960.221
-860.077
1004.11
-797.288
1039.9
-752.801
1092.62
-759.148
1171.95
-796.748
1266.64
-833.941
1364.23
-854.355
1452.76
-854.749
1528.04
-838.978
1598.46
-809.974
1652.1
-773.81
1697.91
-725.612
1737.22
-672.451
1771.12
-614.692
1808.25
-560.361
1842.41
-512.224
1885.03
-476.394
1925.23
-452.642
1976.43
-442.579
2023.99
-442.683
2080.97
-449.36
2132.66
-457.631
2192.31
-464.212
2245
-466.761
2302.48
-463.796
2352.56
-455.404
2405.58
-441.988
2451.91
-425.642
2498.98
-407.367
2540.24
-389.052
2581.56
-371.272
2617.66
-355.084
2653.4
-340.059
2684.3
-326.317
2714.79
-312.912
2740.69
-299.845
2765.89
-286.459
2786.88
-273.141
2806.9
-259.669
2822.31
-246.337
2835.35
-233.082
2842.4
-220.474
2845.53
-208.931
2841.59
-199.47
2833.41
-192.985
2818.75
-190.571
2801.22
-192.857
2779.03
-200.44
2756.04
-213.329
2730.99
-231.643
2707.72
-255.002
2685.79
-283.347
2668.47
-315.972
2656.01
-352.532
2650.45
-392.111
2652.03
-434.122
2661.14
-477.634
2677.75
-522.066
2701.05
-567.438
2730.89
-611.293
2766.26
-660.695
-720.875
1207.7
-523.969
1185.87
-472.857
1150.01
-439.963
1118.54
-416.775
1072.04
-392.07
1040.51
-366.581
1002.92
-354.362
972.179
-337.578
936.786
-316.041
904.96
-292.218
873.601
-286.055
843.767
-305.908
830
-319.114
813.294
-316.85
810.779
-276.305
793.301
-202.61
772.504
-89.8598
714.905
77.0731
652.66
288.91
576.961
502.376
474.865
687.707
368.375
804.457
185.194
791.284
-76.7188
631.74
-197.253
374.669
-166.553
-363.036
-96.6144
-590.226
-20.4851
-733.704
72.5918
-958.782
161.308
-1110.18
260.731
-1209.29
352.581
-1190.89
440.248
-1105.79
520.226
-1022.12
605.001
-959.611
694.503
-944.683
796.244
-961.919
885.271
-962.542
938.849
-897.117
963.439
-809.245
1004.1
-781.886
1083.56
-829.418
1193.71
-897.243
1311.93
-942.34
1423.65
-954.68
1519.16
-940.039
1597.25
-908.413
1668.24
-864.35
1722.57
-815.105
1768.86
-757.392
1809.06
-698.269
1843.5
-637.657
1880.32
-583.384
1912.83
-536.819
1951.79
-503.934
1986.73
-483.27
2030.93
-476.921
2070.6
-480.328
2118.8
-490.129
2161.67
-500.732
2212.39
-509.073
2256.66
-512.452
2306.08
-509.603
2348.67
-500.47
2394.41
-485.504
2433.62
-466.773
2473.57
-445.65
2507.85
-424.439
2542.44
-403.897
2572.26
-385.317
2602.25
-368.105
2627.99
-352.349
2653.96
-336.984
2676
-321.966
2697.9
-306.547
2715.82
-290.905
2732.49
-274.382
2743.66
-257.019
2751.37
-238.72
2752.03
-220.476
2748.36
-203.131
2737.82
-188.376
2724.08
-177.409
2705.14
-171.58
2684.86
-171.426
2661.22
-177.656
2638.19
-190.36
2614.49
-209.915
2594.31
-236.238
2577.37
-269.28
2567.13
-308.236
2563.53
-352.216
2568.11
-399.714
2580.32
-449.442
2599.73
-499.965
2625.55
-550.387
2656.47
-600.702
2692.06
-648.418
2731.19
-700.997
-763.952
1107.2
-504.472
1079.76
-445.592
1039.04
-407.133
1005.39
-384.566
958.036
-362.354
928.41
-339.943
893.482
-333.305
866.246
-323.57
834.315
-305.667
805.833
-280.399
777.01
-274.859
748.844
-299.548
736.509
-314.511
720.626
-311.133
719.491
-267
700.635
-188.09
677.506
-61.5889
617.782
113.638
554.891
332.197
476.633
550.17
384.642
740.691
332.714
800.457
227.478
842.458
-46.3726
847.104
-181.011
437.586
-162.862
-410.328
-106.682
-644.214
-37.3749
-807.003
46.0884
-1041.74
140.501
-1212.33
237.768
-1309.12
330.459
-1290.63
423.19
-1201.17
508.822
-1112.94
599.431
-1050.5
698.226
-1043.08
802.151
-1056.6
872.948
-1017.25
900.051
-899.566
921.708
-805.283
991.563
-826.509
1108.41
-923.937
1243.87
-1011.34
1373.42
-1051.49
1487.69
-1047.94
1582
-1015.1
1657.99
-966.345
1726.86
-906.876
1780.37
-844.161
1826.13
-775.96
1865.94
-709.15
1899.08
-643.622
1933.4
-586.827
1961.81
-539.771
1995.22
-507.958
2023.49
-489.326
2060.23
-486.039
2092.09
-492.687
2132.34
-505.859
2167.61
-519.638
2211.09
-530.751
2248.8
-536.279
2292.06
-534.728
2328.86
-525.954
2368.76
-510.186
2402.14
-489.753
2436.32
-466.694
2465.16
-443.535
2494.81
-421.593
2520.27
-401.849
2546.45
-383.794
2568.88
-367.196
2592
-351.047
2611.56
-335.065
2631
-318.311
2645.99
-300.384
2658.78
-280.354
2665.09
-258.335
2667.45
-234.901
2663.11
-211.691
2655.74
-190.167
2643.23
-172.093
2629.3
-158.635
2611.42
-150.766
2593.14
-149.152
2572.14
-154.679
2552.74
-168.183
2534.05
-190.396
2520.77
-221.653
2512.7
-261.499
2512.86
-308.596
2520.46
-361.039
2535.91
-416.518
2557.8
-473.065
2584.92
-528.987
2616.18
-583.368
2650.26
-636.585
2686.93
-686.231
2725.52
-740.513
-804.703
1000.47
-473.366
969.885
-410.375
930.101
-372.454
899.874
-353.71
855.456
-337.113
830.148
-319.462
799.683
-316.631
777.574
-308
750.379
-291.413
725.916
-267.421
699.738
-262.139
672.815
-288.565
660.675
-308.525
644.126
-308.419
643.249
-266.281
620.736
-182.522
592.753
-33.2685
528.016
165.044
462.305
396.206
374.016
631.661
302.048
811.145
256.572
834.597
100.719
1003.87
-162.086
1121.98
-209.089
503.428
-159.469
-443.567
-113.204
-677.178
-45.7376
-869.658
30.1404
-1097.15
122.339
-1288.42
221.274
-1382.93
316.997
-1363.82
414.036
-1271.94
504.03
-1181.83
600.897
-1125.68
704.661
-1129.39
798.063
-1132.01
841.807
-1044.97
853.66
-896.627
899.648
-842.691
1013.08
-933.551
1160.23
-1066.45
1306.45
-1151.88
1434.95
-1173.48
1543.5
-1148.16
1631.66
-1095.76
1702.76
-1031.01
1767.87
-958.517
1819.32
-885.171
1863.35
-808.736
1901.48
-735.758
1932.18
-665.991
1963.26
-606.91
1987.47
-559
2015.93
-527.692
2038.68
-510.492
2069.44
-509.577
2095.08
-518.777
2129.03
-534.767
2158.34
-551.31
2196.16
-564.862
2228.64
-571.963
2266.75
-570.987
2298.43
-561.525
2333.08
-544.002
2361.36
-521.154
2390.81
-495.621
2415.49
-470.366
2441.51
-446.642
2463.73
-425.39
2486.94
-405.878
2506.64
-387.914
2527.22
-370.362
2544.27
-352.716
2560.85
-333.515
2572.25
-312.011
2580.86
-287.311
2583.06
-260.334
2582.53
-232.506
2577.26
-206.014
2571.1
-182.06
2561.25
-161.967
2550.6
-146.388
2535.89
-136.404
2520.81
-133.287
2503.58
-138.826
2489.43
-154.618
2478.05
-181.559
2474.03
-219.594
2476.5
-267.304
2487.21
-322.244
2504.21
-381.605
2526.89
-442.462
2553.39
-502.79
2582.46
-561.069
2613.38
-616.807
2645.44
-670.983
2678.95
-721.206
2713.69
-776.386
-841.662
889.503
-453.977
867.607
-388.194
834.375
-347.594
809.493
-330.849
768.851
-317.038
748.744
-303.033
724.004
-306.701
707.976
-306.74
685.952
-292.966
665.061
-265.4
640.448
-258.228
613.266
-285.492
599.712
-302.445
581.294
-298.152
580.666
-251.73
552.839
-159.812
517.461
5.54708
445.368
210.695
374.384
446.727
282.628
693.29
220.987
831.99
97.5288
908.678
-144.112
1203.12
-272.182
1206.75
-219.21
394.774
-181.302
-495.763
-147.484
-706.072
-59.2176
-961.371
25.1598
-1179.32
114.089
-1381.22
212.578
-1479.25
309.954
-1462.89
408.011
-1368.26
500.886
-1275.81
604.82
-1226.25
706.733
-1225.82
777.334
-1187.76
797.597
-1042.99
820.33
-892.372
911.274
-910.719
1062.72
-1064.38
1223.09
-1208.67
1366.6
-1277.46
1486.51
-1275.51
1585.91
-1228.49
1666.57
-1158.27
1732.22
-1079.03
1793.1
-993.741
1841.55
-909.086
1882.69
-823.027
1918.18
-742.167
1945.89
-666.719
1974
-603.92
1994.81
-554.379
2019.7
-522.932
2038.34
-506.888
2064.61
-508.075
2085.32
-519.925
2114.21
-539.239
2138.58
-559.434
2171.54
-576.331
2199.26
-586.025
2232.47
-586.506
2259.26
-577.371
2289.12
-559.16
2313.06
-535.159
2338.7
-508.618
2360.03
-482.344
2382.91
-457.883
2402.01
-435.73
2422.14
-415.555
2439.02
-397.091
2457.03
-379.087
2471.52
-360.415
2485.22
-339.107
2493.47
-314.291
2499.44
-285.954
2500.64
-256.098
2501.43
-226.683
2499.47
-199.25
2497.46
-174.082
2491.35
-151.783
2483.58
-133.406
2471.3
-120.927
2459.36
-117.079
2447.06
-124.43
2440.06
-144.789
2437.69
-178.396
2443.23
-223.96
2454.46
-278.976
2471.79
-339.989
2492.62
-403.85
2516.21
-467.636
2541.17
-529.68
2566.97
-589.007
2593.77
-645.535
2621.48
-700.688
2651.05
-752.091
2681.91
-808.292
-874.866
807.008
-433.713
786.867
-363.272
755.74
-321.973
734.586
-308.498
698.236
-301.547
684.429
-294.726
666.18
-302.952
656.111
-302.609
638.283
-287.287
619.325
-257.537
594.446
-246.834
565.316
-271.938
548.668
-292.829
527.146
-292.97
527.053
-254.338
492.896
-151.236
449.01
47.8114
368.125
278.279
288.438
526.53
203.349
774.543
114.08
928.028
-89.7814
1117.07
-305.136
1434.07
-266.592
1185.9
-202.18
357.974
-219.058
-461.477
-174.986
-739.553
-77.2372
-1056.3
20.1425
-1258.99
110.632
-1457.21
207.419
-1553.42
304.236
-1539.11
401.987
-1441.61
497.84
-1351.07
605.571
-1312.82
698.529
-1301.15
743.412
-1214.69
755.277
-1040.62
814.731
-942.851
952.926
-1046.5
1124.17
-1234.28
1282.43
-1366.02
1415.52
-1407.95
1524.17
-1380.19
1614.12
-1312.46
1687.78
-1226.41
1748.51
-1135.13
1805.38
-1039.63
1850.77
-946.095
1888.89
-852.489
1921.78
-765.69
1946.95
-686.099
1972.9
-620.995
1991.45
-570.433
2013.89
-538.845
2029.45
-523.336
2051.99
-525.643
2068.35
-539.005
2092.62
-560.608
2112.33
-583.473
2140.51
-602.714
2163.4
-613.677
2191.63
-614.381
2213.66
-604.472
2239.15
-584.96
2259.29
-559.446
2281.51
-531.296
2299.54
-503.446
2319.03
-477.256
2334.74
-453.546
2351.82
-432.217
2366.27
-413.174
2382.32
-394.392
2394.86
-374.031
2406.58
-349.843
2413.44
-321.769
2419.75
-290.977
2423.6
-260.086
2428.68
-230.232
2431.12
-201.631
2432.36
-173.685
2428.09
-147.636
2421.76
-125.84
2411.89
-111.89
2404.47
-109.364
2398.92
-120.816
2399.96
-146.976
2405.41
-186.922
2417.06
-238.08
2431.74
-297.379
2449.61
-361.155
2468.53
-426.548
2488.57
-491.131
2509.36
-553.773
2531.21
-613.94
2554.96
-671.792
2580.48
-728.528
2609.05
-782.058
2638.87
-839.211
-905.802
732.426
-418.981
714.79
-345.272
687.951
-303.769
673.075
-296.013
643.123
-294.328
636.152
-292.476
623.831
-306.449
618.085
-312.614
602.439
-296.044
583.233
-258.824
556.218
-243.126
523.808
-264.678
503.405
-278.498
478.469
-274.413
479.096
-236.255
437.557
-118.619
384.99
99.6005
294.893
338.799
206.196
593.578
137.033
810.411
-4.38432
1037.47
-267.485
1347.49
-395.196
1528.93
-235.957
992.439
-180.611
261.604
-222.964
-424.351
-165.101
-794.612
-85.8013
-1141.06
11.5657
-1356.05
103.783
-1553.54
200.527
-1648.27
296.947
-1636.75
395.381
-1537.61
495.104
-1450.05
599.506
-1411.12
676.669
-1368.22
708.16
-1225.93
737.521
-1045.67
843.024
-1026.05
1011.44
-1197.58
1183.9
-1390.99
1331.24
-1498.91
1451.57
-1513.17
1549.42
-1462.12
1631.25
-1376.54
1699.09
-1276.88
1755.55
-1174.03
1808.57
-1067.46