/*--------------------------------*- C++ -*----------------------------------*\
| =========                 |                                                 |
| \\      /  F ield         | OpenFOAM: The Open Source CFD Toolbox           |
|  \\    /   O peration     | Version:  4.1                                   |
|   \\  /    A nd           | Web:      www.OpenFOAM.org                      |
|    \\/     M anipulation  |                                                 |
\*---------------------------------------------------------------------------*/
FoamFile
{
    version     2.0;
    format      ascii;
    class       volScalarField;
    location    "100";
    object      epsilon;
}
// * * * * * * * * * * * * * * * * * * * * * * * * * * * * * * * * * * * * * //

dimensions      [0 2 -3 0 0 0 0];

internalField   nonuniform List<scalar> 
12225
(
1130.05
2611.31
3861.04
4651.24
5051.86
5193.04
5174.59
5118.83
5006.39
4884.41
4766.87
4656.48
4559.12
4469.62
4395.83
4324.5
4275.45
4211.76
82.7587
272.89
458.186
608.641
717.585
788.115
828.386
852.31
867.649
876.538
885.541
892.12
901.211
908.914
918.557
927.644
935.685
947.043
20.0889
50.8886
83.5913
112.835
137.286
156.423
170.108
179.572
185.808
189.912
192.429
194.3
195.407
196.686
197.592
198.69
200.318
202.419
14.519
21.3623
28.9841
37.1536
44.5792
51.1489
56.5297
60.9858
64.368
67.1364
69.0511
70.6913
71.6558
72.6098
73.0226
73.5182
73.7802
74.2811
14.2883
16.0544
17.8318
20.5301
23.1918
25.7628
28.0347
30.1022
31.8076
33.3509
34.5386
35.6502
36.4237
37.213
37.675
38.2305
38.4654
38.8806
14.5464
14.8885
15.1711
15.9426
16.8562
17.8596
18.8172
19.76
20.5841
21.3805
22.03
22.6744
23.1542
23.6697
23.9973
24.4147
24.6112
24.9779
14.7164
14.5889
14.5778
14.6594
14.83
15.1338
15.46
15.8253
16.1681
16.528
16.835
17.1595
17.4109
17.6948
17.8834
18.1334
18.2561
18.4891
14.7576
14.5798
14.4528
14.3666
14.343
14.3687
14.4291
14.5391
14.6587
14.8009
14.9281
15.0764
15.1935
15.3356
15.4317
15.5645
15.6329
15.7636
14.7658
14.5893
14.4322
14.2945
14.1853
14.1069
14.0535
14.0267
14.0271
14.0367
14.056
14.0929
14.1217
14.1691
14.1987
14.2482
14.2754
14.328
14.7663
14.5938
14.4319
14.2813
14.1437
14.0222
13.9159
13.8255
13.7502
13.6907
13.6381
13.6013
13.5658
13.5447
13.5199
13.5091
13.4891
13.4907
14.7659
14.5944
14.4325
14.2803
14.1367
14.0033
13.8789
13.7652
13.6597
13.5657
13.478
13.4014
13.3289
13.2672
13.2064
13.1573
13.1045
13.0669
14.7658
14.5942
14.4323
14.2799
14.1357
14.0001
13.8718
13.7517
13.6379
13.5321
13.4319
13.3394
13.2513
13.1707
13.0933
13.0234
12.955
12.8944
14.7657
14.594
14.432
14.2794
14.1351
13.999
13.8702
13.7487
13.6335
13.5248
13.4216
13.3244
13.232
13.1451
13.0623
12.9845
12.9102
12.8406
14.7657
14.5939
14.4318
14.2789
14.1346
13.9983
13.8693
13.7474
13.6319
13.5226
13.4189
13.3207
13.2274
13.1389
13.0548
12.975
12.899
12.827
14.7657
14.5938
14.4316
14.2786
14.1342
13.9977
13.8686
13.7465
13.6309
13.5213
13.4174
13.3189
13.2253
13.1365
13.0521
12.9718
12.8954
12.8228
14.7657
14.5937
14.4315
14.2784
14.1338
13.9972
13.8681
13.7458
13.63
13.5203
13.4163
13.3176
13.2239
13.1349
13.0503
12.9699
12.8934
12.8206
14.7657
14.5937
14.4314
14.2783
14.1336
13.9969
13.8677
13.7453
13.6294
13.5196
13.4155
13.3167
13.2229
13.1338
13.0491
12.9685
12.8919
12.819
14.7657
14.5936
14.4314
14.2782
14.1336
13.9968
13.8675
13.7451
13.6292
13.5193
13.4151
13.3162
13.2223
13.1331
13.0484
12.9678
12.8911
12.8181
14.7657
14.5937
14.4314
14.2783
14.1336
13.9968
13.8675
13.7451
13.6291
13.5192
13.415
13.3161
13.2222
13.133
13.0482
12.9676
12.8909
12.818
14.7657
14.5937
14.4315
14.2783
14.1337
13.997
13.8677
13.7452
13.6293
13.5194
13.4153
13.3164
13.2226
13.1334
13.0487
12.9682
12.8916
12.8188
14.7657
14.5937
14.4316
14.2784
14.1339
13.9972
13.868
13.7456
13.6299
13.5202
13.4163
13.3178
13.2245
13.1359
13.052
12.9722
12.8967
12.8248
14.7657
14.5938
14.4317
14.2786
14.1342
13.9977
13.8692
13.7477
13.6335
13.5257
13.4245
13.329
13.2396
13.155
13.0761
13.0012
12.9317
12.8651
14.7657
14.5936
14.4318
14.2789
14.1364
14.0033
13.8809
13.7677
13.6649
13.5704
13.4853
13.4073
13.3374
13.2729
13.216
13.1619
13.1157
13.0695
14.7644
14.5919
14.4335
14.2883
14.1666
14.0626
13.9809
13.9156
13.8698
13.8354
13.8156
13.8023
13.7993
13.8008
13.8061
13.8129
13.8274
13.8332
14.7486
14.5941
14.4766
14.4122
14.4255
14.464
14.5579
14.6741
14.8193
14.9649
15.1262
15.2759
15.4359
15.576
15.7268
15.8496
15.989
16.0905
14.663
14.7651
14.9037
15.2741
15.8079
16.3916
17.0255
17.6313
18.2508
18.8086
19.3702
19.8539
20.3441
20.747
21.1673
21.4915
21.8507
22.1012
14.6004
15.9622
17.5929
19.7729
21.9986
24.1093
26.1704
28.0169
29.8072
31.3343
32.8317
34.0381
35.258
36.1723
37.1522
37.8175
38.6028
39.0649
16.3554
24.4601
33.7015
42.1692
50.1614
57.5654
64.5191
70.6305
76.2826
80.9409
85.2947
88.5855
91.832
93.99
96.3988
97.6961
99.5356
100.229
42.1595
92.2701
140.386
183.872
226.23
266.377
302.529
333.676
360.092
381.627
399.56
413.4
425.379
433.77
442.096
447.012
453.659
456.182
570.026
929.818
1287.41
1576.94
1844.3
2077.91
2271.39
2424.27
2538.38
2619.45
2671.76
2702.45
2714.42
2711.45
2703.55
2686.38
2664.42
2639
1.43971
2.10288
3.89665
5.68636
7.31228
8.72825
9.93647
10.9287
11.8381
12.6796
13.4725
14.2566
15.1292
16.1484
17.4253
19.0351
21.0864
23.5309
26.3917
29.6481
33.3801
37.6081
42.4771
47.958
54.1464
61.0286
68.6931
77.1078
86.321
96.2558
106.948
118.287
130.293
142.839
155.938
169.455
183.41
197.664
212.251
227.038
242.075
257.231
272.573
287.974
303.51
319.059
334.708
350.34
366.048
381.716
397.453
413.141
428.88
444.555
460.269
475.905
491.562
507.123
522.691
538.143
553.587
568.898
584.183
599.315
614.402
629.316
644.166
658.821
673.39
687.739
701.979
715.974
729.839
743.452
756.92
770.125
783.166
795.94
808.55
820.96
833.334
845.727
858.089
869.675
881.545
893.12
904.413
915.691
926.63
937.517
948.237
958.948
969.164
979.809
998.158
1014
1024.35
1036.73
1046.23
1052.42
1051.76
1061.57
1082.76
1083.27
1100.53
1100.1
1107.71
1114.69
1121.96
1138.89
1137.09
1143.52
1158.78
1156.38
1161.04
1157.59
1167.1
1163.92
1162.33
1166.78
1164.44
1160.98
1155.76
1148.96
1140.92
1131.55
1120.79
1108.69
1095.16
1080.29
1063.97
1046.22
1027.06
1006.55
984.749
961.77
937.419
911.78
885.346
858.084
830.22
801.906
773.313
744.405
715.862
687.899
659.207
635.426
617.93
601.364
584.949
568.659
552.564
536.714
521.193
505.875
490.743
475.977
461.894
448.272
434.844
421.804
409.277
397.309
385.855
374.895
364.45
354.504
345.045
336.053
327.51
319.372
311.634
304.138
297.125
289.668
283.608
274.139
269.529
245.838
7.3226
4.65321
4.48823
4.79164
5.28562
5.85347
6.46468
7.11788
7.83508
8.61635
9.47223
10.4262
11.5145
12.7762
14.2528
15.9774
17.975
20.2511
22.8101
25.6519
28.7839
32.2087
35.9337
39.9493
44.2525
48.8295
53.6727
58.7619
64.0909
69.6139
75.31
81.1508
87.1222
93.1998
99.3743
105.625
111.95
118.329
124.764
131.241
137.76
144.312
150.899
157.51
164.15
170.809
177.494
184.195
190.919
197.661
204.434
211.219
218.014
224.808
231.606
238.397
245.183
251.954
258.713
265.448
272.163
278.845
285.498
292.108
298.679
305.197
311.666
318.071
324.417
330.689
336.89
343.004
349.037
354.976
360.826
366.577
372.236
377.797
383.273
388.667
393.994
399.241
404.378
409.373
414.318
419.145
423.876
428.534
433.102
437.625
442.099
446.568
451.087
455.801
460.913
465.348
469.036
472.642
475.578
477.972
480.083
483.303
486.482
486.587
491.457
491.034
495.511
495.932
500.899
503.318
504.238
506.092
506.918
507.593
508.729
509.249
511.461
510.63
509.976
511.223
510.126
508.849
507.072
504.71
501.957
498.751
495.082
490.942
486.312
481.191
475.557
469.391
462.683
455.416
447.6
439.255
430.369
420.96
411.133
400.911
390.36
379.532
368.484
357.242
345.926
334.628
323.15
312.304
302.621
293.382
284.319
275.394
266.63
258.045
249.674
241.497
233.405
225.43
217.723
210.266
203.019
196.005
189.254
182.791
176.611
170.706
165.08
159.728
154.643
149.82
145.251
140.92
136.833
132.933
129.334
125.721
122.84
119.071
118.815
118.604
15.2637
7.95374
6.71923
6.55443
6.74819
7.12962
7.6345
8.2413
8.95211
9.77714
10.733
11.8417
13.1285
14.6184
16.3327
18.2858
20.4839
22.9251
25.6025
28.507
31.6297
34.9613
38.4928
42.2135
46.1138
50.184
54.4187
58.7804
63.2072
67.7224
72.3361
77.0441
81.8395
86.7119
91.6544
96.6602
101.732
106.859
112.037
117.261
122.527
127.833
133.176
138.552
143.961
149.399
154.866
160.359
165.877
171.418
176.982
182.563
188.159
193.767
199.385
205.01
210.638
216.267
221.894
227.514
233.124
238.72
244.298
249.852
255.38
260.874
266.33
271.743
277.106
282.414
287.662
292.841
297.95
302.98
307.93
312.793
317.57
322.256
326.852
331.356
335.764
340.069
344.264
348.344
352.323
356.191
359.953
363.617
367.183
370.662
374.06
377.387
380.65
383.847
386.932
389.703
392.192
394.492
396.538
398.41
400.229
402.14
403.836
405.122
406.984
408.049
409.848
411.081
412.911
414.055
414.874
415.784
416.381
416.988
417.476
417.663
417.784
417.224
416.833
416.563
415.652
414.504
413.043
411.229
409.11
406.657
403.854
400.683
397.128
393.173
388.802
383.999
378.755
373.063
366.928
360.357
353.359
345.953
338.182
330.076
321.688
313.053
304.206
295.182
286.034
276.827
267.594
258.622
250.118
241.908
233.881
226.007
218.298
210.769
203.439
196.306
189.346
182.565
176.003
169.582
163.358
157.331
151.515
145.932
140.581
135.462
130.576
125.922
121.495
117.292
113.308
109.535
105.975
102.603
99.4673
96.4523
93.85
91.1827
89.5223
89.2461
24.0343
11.4107
9.24172
8.7292
8.75755
9.05843
9.53908
10.1661
10.9325
11.8448
12.9175
14.169
15.6185
17.2824
19.1716
21.2897
23.633
26.1915
28.9519
31.8994
35.0203
38.3017
41.7328
45.3033
49.0034
52.8216
56.7435
60.7696
64.9153
69.1713
73.5264
77.9761
82.5163
87.1315
91.8122
96.5471
101.339
106.192
111.105
116.074
121.098
126.172
131.294
136.461
141.672
146.923
152.212
157.537
162.897
168.288
173.71
179.159
184.633
190.13
195.647
201.182
206.733
212.295
217.867
223.444
229.023
234.599
240.169
245.727
251.269
256.787
262.278
267.733
273.147
278.512
283.821
289.068
294.246
299.347
304.366
309.296
314.134
318.872
323.508
328.035
332.447
336.737
340.899
344.93
348.831
352.598
356.234
359.738
363.112
366.36
369.482
372.479
375.345
378.067
380.614
382.941
385.059
386.995
388.757
390.386
391.924
393.387
394.703
395.872
397.045
398.025
399.062
399.947
400.84
401.468
401.937
402.392
402.568
402.521
402.439
402.203
401.808
401.171
400.435
399.564
398.384
396.969
395.293
393.337
391.1
388.562
385.706
382.512
378.962
375.038
370.725
366.008
360.881
355.336
349.377
343.009
336.244
329.102
321.607
313.774
305.668
297.321
288.77
280.059
271.25
262.411
253.605
244.965
236.586
228.432
220.463
212.668
205.056
197.641
190.436
183.445
176.665
170.098
163.758
157.623
151.701
145.965
140.409
135.061
129.921
124.992
120.278
115.779
111.491
107.415
103.547
99.8812
96.4199
93.1513
90.0972
87.2162
84.6312
82.2164
80.2892
79.4281
33.0125
15.0382
11.9382
11.1048
10.9957
11.2412
11.7166
12.3714
13.1899
14.1727
15.3295
16.6736
18.2187
19.9751
21.9483
24.137
26.534
29.1272
31.9022
34.8441
37.9395
41.1768
44.547
48.0425
51.6575
55.3866
59.2262
63.1752
67.2346
71.4008
75.6681
80.0301
84.4812
89.021
93.6474
98.3584
103.154
108.029
112.978
117.999
123.088
128.242
133.458
138.734
144.066
149.451
154.889
160.375
165.908
171.486
177.105
182.765
188.462
194.195
199.962
205.759
211.584
217.435
223.308
229.199
235.105
241.021
246.942
252.864
258.779
264.682
270.566
276.423
282.245
288.023
293.75
299.417
305.013
310.531
315.962
321.298
326.531
331.654
336.657
341.534
346.276
350.875
355.323
359.616
363.75
367.722
371.529
375.172
378.648
381.959
385.102
388.077
390.879
393.5
395.924
398.142
400.159
401.989
403.648
405.159
406.541
407.798
408.914
409.892
410.758
411.486
412.103
412.593
412.99
413.156
413.098
413.011
412.714
412.288
411.727
411.013
410.131
409.06
407.825
406.404
404.748
402.865
400.738
398.353
395.698
392.755
389.506
385.932
382.015
377.738
373.086
368.044
362.606
356.765
350.522
343.883
336.861
329.473
321.74
313.675
305.352
296.796
288.055
279.182
270.239
261.289
252.396
243.641
235.08
226.716
218.541
210.556
202.773
195.203
187.859
180.748
173.871
167.23
160.831
154.666
148.733
143.02
137.52
132.22
127.106
122.19
117.477
112.967
108.661
104.56
100.664
96.9656
93.4696
90.1722
87.0837
84.1917
81.5535
79.1523
77.1044
75.7713
41.6364
18.6794
14.683
13.5488
13.3193
13.5185
13.9912
14.6693
15.5269
16.5581
17.7668
19.1614
20.7509
22.542
24.5373
26.7343
29.126
31.7017
34.449
37.3553
40.4094
43.6021
46.9263
50.3769
53.9502
57.6439
61.4564
65.387
69.4348
73.5982
77.8746
82.2609
86.7547
91.3542
96.0576
100.863
105.768
110.77
115.865
121.05
126.321
131.675
137.11
142.621
148.206
153.862
159.586
165.375
171.227
177.14
183.111
189.137
195.217
201.349
207.529
213.757
220.029
226.341
232.692
239.077
245.492
251.932
258.393
264.867
271.349
277.83
284.304
290.76
297.19
303.584
309.93
316.219
322.438
328.576
334.623
340.567
346.398
352.104
357.675
363.1
368.369
373.471
378.396
383.138
387.689
392.045
396.201
400.154
403.9
407.439
410.77
413.889
416.796
419.485
421.953
424.199
426.226
428.045
429.668
431.11
432.386
433.497
434.442
435.221
435.838
436.311
436.59
436.648
436.507
436.234
435.813
435.245
434.496
433.583
432.505
431.254
429.82
428.192
426.371
424.344
422.094
419.613
416.892
413.916
410.673
407.146
403.319
399.175
394.696
389.865
384.668
379.093
373.13
366.773
360.024
352.887
345.375
337.502
329.293
320.775
311.997
303.007
293.858
284.606
275.311
266.031
256.825
247.75
238.849
230.139
221.628
213.324
205.241
197.393
189.789
182.437
175.341
168.503
161.924
155.6
149.528
143.699
138.107
132.739
127.585
122.616
117.837
113.25
108.86
104.673
100.69
96.9059
93.329
89.9558
86.7918
83.8364
81.1198
78.6563
76.5039
74.8206
49.6494
22.1812
17.3668
15.9571
15.6191
15.7755
16.2433
16.9367
17.8198
18.8798
20.1152
21.5299
23.1294
24.9182
26.8979
29.0666
31.4193
33.948
36.6435
39.4965
42.4986
45.6427
48.9238
52.3382
55.8838
59.5593
63.3643
67.2983
71.3613
75.5526
79.8712
84.316
88.8857
93.5789
98.3943
103.33
108.384
113.554
118.837
124.229
129.728
135.331
141.033
146.833
152.726
158.709
164.78
170.936
177.173
183.491
189.885
196.354
202.897
209.509
216.191
222.938
229.749
236.62
243.548
250.53
257.561
264.636
271.748
278.893
286.061
293.245
300.435
307.621
314.792
321.936
329.041
336.092
343.077
349.98
356.789
363.489
370.065
376.503
382.79
388.912
394.856
400.607
406.154
411.488
416.597
421.475
426.115
430.511
434.659
438.556
442.201
445.591
448.726
451.605
454.228
456.596
458.715
460.591
462.236
463.659
464.873
465.882
466.69
467.294
467.671
467.796
467.664
467.364
466.88
466.202
465.337
464.277
463.017
461.557
459.899
458.037
455.967
453.68
451.175
448.444
445.479
442.274
438.821
435.109
431.127
426.862
422.301
417.427
412.227
406.685
400.787
394.523
387.882
380.859
373.455
365.674
357.527
349.033
340.219
331.12
321.786
312.266
302.617
292.894
283.154
273.453
263.843
254.372
245.074
235.974
227.086
218.424
210.002
201.835
193.932
186.3
178.942
171.86
165.055
158.522
152.258
146.255
140.506
135.001
129.729
124.671
119.803
115.11
110.608
106.306
102.21
98.3192
94.6365
91.1621
87.9001
84.8538
82.0417
79.4833
77.2167
75.2662
57.1016
25.5125
19.93
18.2546
17.8098
17.9216
18.3794
19.0802
19.978
21.053
22.2987
23.7151
25.3052
27.0718
29.0166
31.1391
33.4363
35.9036
38.5352
41.3248
44.2669
47.3566
50.5906
53.9665
57.4832
61.1401
64.9375
68.8757
72.9554
77.1768
81.5403
86.0455
90.6925
95.4805
100.409
105.477
110.682
116.023
121.498
127.103
132.837
138.695
144.676
150.775
156.99
163.317
169.754
176.298
182.947
189.697
196.547
203.494
210.537
217.672
224.9
232.216
239.619
247.105
254.672
262.316
270.031
277.813
285.655
293.55
301.489
309.464
317.464
325.476
333.489
341.488
349.457
357.382
365.246
373.031
380.721
388.296
395.74
403.035
410.163
417.106
423.849
430.374
436.667
442.713
448.501
454.019
459.258
464.211
468.871
473.235
477.3
481.063
484.525
487.686
490.548
493.113
495.387
497.376
499.089
500.535
501.725
502.667
503.37
503.77
503.86
503.667
503.264
502.628
501.756
500.647
499.302
497.719
495.894
493.828
491.521
488.972
486.178
483.136
479.843
476.297
472.496
468.436
464.113
459.521
454.653
449.499
444.051
438.297
432.225
425.824
419.081
411.988
404.535
396.719
388.54
380.003
371.124
361.926
352.439
342.703
332.765
322.676
312.491
302.264
292.051
281.901
271.864
261.979
252.281
242.792
233.532
224.517
215.761
207.279
199.08
191.168
183.547
176.218
169.179
162.427
155.958
149.765
143.84
138.172
132.752
127.565
122.59
117.784
113.161
108.736
104.518
100.51
96.714
93.131
89.7641
86.6178
83.7036
81.039
78.6515
76.4895
66.0172
28.9858
22.4167
20.4119
19.8359
19.8906
20.3296
21.0301
21.9349
23.0169
24.2648
25.675
27.2479
28.9854
30.8892
32.9601
35.1973
37.5989
40.162
42.8833
45.7599
48.7889
51.9687
55.298
58.7767
62.4051
66.1843
70.1151
74.1992
78.4376
82.8317
87.3825
92.0906
96.9566
101.981
107.162
112.501
117.996
123.645
129.446
135.398
141.498
147.743
154.13
160.657
167.321
174.12
181.05
188.11
195.297
202.609
210.044
217.601
225.278
233.073
240.983
249.008
257.143
265.386
273.732
282.178
290.717
299.342
308.047
316.821
325.654
334.534
343.448
352.382
361.318
370.24
379.129
387.965
396.728
405.397
413.95
422.365
430.621
438.696
446.569
454.218
461.624
468.768
475.632
482.201
488.46
494.398
500.004
505.271
510.193
514.765
518.986
522.855
526.372
529.541
532.363
534.845
536.993
538.813
540.316
541.512
542.414
542.978
543.177
543.038
542.627
541.93
540.945
539.67
538.106
536.251
534.106
531.668
528.938
525.917
522.605
519.002
515.108
510.924
506.451
501.691
496.645
491.314
485.697
479.793
473.598
467.109
460.32
453.225
445.816
438.085
430.027
421.636
412.911
403.854
394.478
384.8
374.847
364.651
354.252
343.694
333.028
322.305
311.579
300.9
290.316
279.868
269.596
259.527
249.686
240.09
230.757
221.703
212.941
204.477
196.316
188.459
180.907
173.655
166.702
160.042
153.668
147.572
141.745
136.174
130.848
125.748
120.829
116.086
111.542
107.207
103.086
99.1801
95.4912
92.0214
88.7751
85.7596
82.988
80.4801
78.1446
75.0051
32.302
24.7087
22.3569
21.639
21.6302
22.041
22.7355
23.6431
24.7294
25.9776
27.3809
28.9373
30.6475
32.5132
34.5357
36.7161
39.0544
41.5503
44.2028
47.0111
49.9745
53.0927
56.3659
59.7951
63.3814
67.1268
71.0331
75.1027
79.3379
83.7409
88.3138
93.0585
97.9767
103.069
108.338
113.782
119.401
125.196
131.166
137.308
143.623
150.107
156.758
163.576
170.556
177.699
185
192.459
200.074
207.842
215.764
223.836
232.058
240.428
248.945
257.607
266.41
275.353
284.43
293.638
302.97
312.42
321.978
331.634
341.378
351.195
361.071
370.988
380.929
390.874
400.8
410.685
420.505
430.235
439.849
449.321
458.625
467.734
476.624
485.268
493.642
501.724
509.492
516.926
524.008
530.725
537.062
543.011
548.562
553.711
558.453
562.79
566.72
570.246
573.371
576.1
578.44
580.398
581.982
583.205
584.063
584.502
584.546
584.241
583.589
582.591
581.245
579.551
577.507
575.112
572.366
569.268
565.819
562.02
557.872
553.378
548.539
543.361
537.848
532.007
525.844
519.366
512.579
505.488
498.097
490.41
482.43
474.158
465.592
456.732
447.577
438.129
428.393
418.376
408.094
397.568
386.827
375.903
364.835
353.663
342.434
331.198
320.003
308.896
297.92
287.113
276.506
266.126
255.993
246.123
236.534
227.242
218.257
209.585
201.228
193.185
185.454
178.032
170.914
164.096
157.57
151.329
145.362
139.658
134.204
128.982
123.949
119.098
114.448
110.011
105.789
101.786
98.0013
94.4379
91.0988
87.9885
85.116
82.4945
80.0155
82.9321
35.2052
26.6899
24.0165
23.1585
23.0889
23.4738
24.1618
25.0722
26.1637
27.415
28.8156
30.3614
32.0518
33.8876
35.8707
38.0029
40.2856
42.7202
45.3076
48.0489
50.9449
53.9971
57.207
60.5766
64.1083
67.805
71.6698
75.7061
79.9171
84.3066
88.8776
93.6334
98.5767
103.71
109.035
114.555
120.269
126.18
132.287
138.591
145.091
151.786
158.676
165.759
173.034
180.5
188.155
195.998
204.029
212.245
220.646
229.231
237.999
246.949
256.08
265.39
274.877
284.537
294.368
304.363
314.518
324.823
335.271
345.849
356.545
367.345
378.231
389.183
400.183
411.205
422.227
433.221
444.159
455.012
465.751
476.344
486.761
496.971
506.942
516.646
526.053
535.135
543.867
552.225
560.188
567.738
574.859
581.538
587.765
593.533
598.838
603.678
608.054
611.967
615.42
618.419
620.969
623.078
624.754
626.006
626.821
627.175
627.092
626.597
625.692
624.378
622.654
620.517
617.964
614.995
611.607
607.8
603.575
598.932
593.874
588.406
582.53
576.256
569.592
562.549
555.139
547.377
539.276
530.849
522.108
513.069
503.742
494.14
484.271
474.146
463.772
453.162
442.327
431.279
420.037
408.626
397.075
385.419
373.694
361.932
350.176
338.471
326.862
315.39
304.091
292.997
282.135
271.526
261.186
251.127
241.362
231.912
222.785
213.981
205.499
197.338
189.492
181.956
174.727
167.8
161.168
154.822
148.75
142.942
137.384
132.058
126.925
121.985
117.252
112.734
108.432
104.35
100.488
96.8458
93.4271
90.2339
87.2719
84.5487
81.9527
89.4768
37.5902
28.3002
25.3506
24.3693
24.2461
24.6087
25.2926
26.2083
27.3087
28.5683
29.9735
31.5179
33.1991
35.0172
36.9736
39.0703
41.3096
43.6938
46.2251
48.906
51.7389
54.7264
57.8715
61.1775
64.6482
68.2875
72.0999
76.0901
80.2626
84.6223
89.1739
93.9218
98.8702
104.023
109.383
114.955
120.741
126.744
132.965
139.408
146.072
152.958
160.067
167.399
174.954
182.731
190.73
198.951
207.392
216.054
224.936
234.038
243.36
252.9
262.658
272.632
282.821
293.221
303.829
314.639
325.644
336.837
348.207
359.742
371.427
383.247
395.181
407.209
419.307
431.449
443.607
455.751
467.848
479.866
491.77
503.524
515.092
526.439
537.528
548.325
558.797
568.91
578.634
587.943
596.81
605.215
613.137
620.562
627.478
633.877
639.752
645.101
649.925
654.224
658.003
661.266
664.02
666.271
668.028
669.294
670.065
670.331
670.104
669.392
668.206
666.548
664.412
661.795
658.693
655.103
651.023
646.45
641.385
635.828
629.783
623.254
616.248
608.774
600.847
592.482
583.697
574.515
564.957
555.046
544.806
534.261
523.438
512.363
501.058
489.545
477.843
465.974
453.966
441.829
429.584
417.263
404.894
392.507
380.13
367.805
355.566
343.455
331.509
319.761
308.238
296.966
285.961
275.238
264.807
254.672
244.835
235.328
226.155
217.313
208.795
200.598
192.715
185.14
177.866
170.892
164.211
157.811
151.682
145.811
140.185
134.782
129.578
124.581
119.796
115.225
110.871
106.735
102.817
99.1166
95.6364
92.3766
89.3408
86.5319
83.8442
94.4498
39.4009
29.5113
26.3436
25.2634
25.0976
25.4448
26.1292
27.0548
28.1696
29.4448
30.864
32.4185
34.1041
35.9197
37.866
39.9446
42.1579
44.5088
47.0001
49.6354
52.4179
55.3517
58.441
61.6905
65.1052
68.6906
72.4526
76.3972
80.5306
84.8589
89.3885
94.1259
99.0754
104.242
109.631
115.248
121.098
127.186
133.517
140.093
146.918
153.994
161.323
168.907
176.746
184.842
193.196
201.806
210.674
219.8
229.184
238.826
248.726
258.884
269.298
279.968
290.892
302.065
313.484
325.144
337.036
349.152
361.48
374.006
386.715
399.586
412.6
425.732
438.954
452.24
465.555
478.867
492.139
505.333
518.411
531.331
544.053
556.536
568.74
580.624
592.15
603.281
613.982
624.223
633.973
643.208
651.906
660.049
667.624
674.62
681.031
686.854
692.088
696.736
700.801
704.288
707.205
709.558
711.355
712.602
713.301
713.438
713.015
712.029
710.512
708.455
705.854
702.699
698.987
694.712
689.869
684.456
678.472
671.917
664.794
657.107
648.867
640.084
630.776
620.964
610.674
599.934
588.779
577.241
565.356
553.166
540.712
528.033
515.172
502.165
489.04
475.831
462.531
449.185
435.848
422.558
409.357
396.258
383.37
370.623
358.038
345.651
333.494
321.592
309.963
298.626
287.589
276.862
266.446
256.34
246.536
237.098
228.006
219.244
210.803
202.677
194.858
187.335
180.095
173.147
166.484
160.094
153.963
148.079
142.426
136.988
131.763
126.75
121.95
117.362
112.987
108.827
104.88
101.147
97.6272
94.3213
91.2311
88.356
85.6015
97.8004
40.6222
30.3185
26.9981
25.8492
25.6563
25.9984
26.6912
27.6342
28.7722
30.0734
31.5193
33.099
34.8067
36.64
38.5985
40.6831
42.8959
45.2397
47.7177
50.334
53.0927
55.9987
59.0573
62.2746
65.6571
69.212
72.9467
76.87
80.9878
85.3074
89.8362
94.582
99.5518
104.753
110.193
115.879
121.819
128.019
134.485
141.223
148.238
155.534
163.116
170.989
179.153
187.612
196.366
205.415
214.76
224.403
234.343
244.581
255.117
265.95
277.08
288.504
300.219
312.222
324.507
337.069
349.897
362.981
376.308
389.862
403.624
417.574
431.686
445.934
460.288
474.715
489.18
503.645
518.07
532.412
546.628
560.673
574.501
588.067
601.325
614.232
626.745
638.821
650.424
661.517
672.068
682.05
691.437
700.212
708.357
715.863
722.72
728.927
734.484
739.392
743.655
747.281
750.276
752.648
754.405
755.555
756.101
756.031
755.32
753.984
752.053
749.514
746.359
742.579
738.165
733.11
727.407
721.053
714.044
706.382
698.069
689.11
679.515
669.298
658.482
647.092
635.162
622.73
609.844
596.544
582.883
568.921
554.717
540.322
525.759
511.048
496.304
481.601
467.064
452.697
438.463
424.399
410.542
396.902
383.582
370.443
357.567
344.983
332.71
320.763
309.149
297.873
286.938
276.341
266.078
256.138
246.492
237.216
228.281
219.673
211.383
203.4
195.715
188.315
181.185
174.349
167.787
161.481
155.417
149.58
143.956
138.55
133.36
128.38
123.609
119.043
114.685
110.535
106.59
102.851
99.318
95.9897
92.8677
89.9484
87.1523
99.2753
41.1913
30.7111
27.3249
26.1489
25.9522
26.3056
27.0207
27.9947
29.1707
30.5151
32.0074
33.6354
35.3917
37.2726
39.2764
41.4035
43.6551
46.0338
48.543
51.1865
53.9693
56.8967
59.9753
63.2122
66.6155
70.1944
73.9559
77.9078
82.0596
86.4211
91.0021
95.8124
100.862
106.16
111.718
117.544
123.648
130.038
136.723
143.711
151.007
158.618
166.55
174.807
183.395
192.318
201.575
211.168
221.097
231.364
241.969
252.91
264.188
275.801
287.747
300.023
312.625
325.546
338.78
352.317
366.148
380.257
394.629
409.245
424.085
439.122
454.331
469.68
485.136
500.663
516.222
531.772
547.269
562.667
577.918
592.974
607.785
622.303
636.477
650.261
663.608
676.474
688.817
700.6
711.787
722.35
732.261
741.501
750.052
757.904
765.048
771.481
777.203
782.219
786.532
790.15
793.08
795.333
796.916
797.839
798.098
797.695
796.555
794.751
792.28
789.134
785.298
780.762
775.515
769.547
762.851
755.421
747.252
738.346
728.705
718.334
707.244
695.453
682.99
669.883
656.174
641.914
627.17
611.983
596.427
580.47
564.266
547.926
531.595
515.406
499.311
483.391
467.782
452.306
437.095
422.2
407.655
393.473
379.684
366.27
353.243
340.613
328.384
316.555
305.122
294.076
283.409
273.107
263.157
253.546
244.26
235.309
226.685
218.374
210.365
202.649
195.211
188.039
181.109
174.45
168.041
161.871
155.92
150.186
144.658
139.357
134.266
129.377
124.685
120.187
115.886
111.782
107.874
104.16
100.641
97.3167
94.1879
91.2484
88.4364
99.4908
41.2552
30.7572
27.3756
26.2154
26.0451
26.4339
27.1945
28.2249
29.467
30.8861
32.4607
34.1772
36.0271
38.0058
40.1105
42.3406
44.6969
47.1816
49.7976
52.5491
55.441
58.4793
61.6716
65.0257
68.5493
72.2503
76.1393
80.2271
84.5253
89.0459
93.8012
98.8037
104.066
109.6
115.418
121.532
127.953
134.693
141.762
149.167
156.919
165.024
173.489
182.321
191.524
201.099
211.049
221.375
232.077
243.155
254.608
266.433
278.627
291.188
304.111
317.389
331.014
344.979
359.271
373.879
388.788
403.979
419.433
435.128
451.037
467.134
483.386
499.76
516.219
532.726
549.238
565.712
582.101
598.357
614.43
630.27
645.825
661.044
675.876
690.271
704.181
717.561
730.367
742.56
754.106
764.973
775.135
784.571
793.265
801.205
808.383
814.796
820.446
825.336
829.474
832.866
835.521
837.449
838.663
839.168
838.963
837.998
836.268
833.816
830.631
826.698
822.004
816.535
810.277
803.22
795.354
786.671
777.167
766.843
755.705
743.755
731.005
717.474
703.209
688.237
672.607
656.329
639.454
622.111
604.376
586.557
568.638
550.681
532.884
515.078
497.461
480.139
463.195
446.646
430.544
414.932
399.836
385.267
371.232
357.721
344.726
332.238
320.242
308.723
297.66
287.031
276.813
266.982
257.515
248.394
239.6
231.125
222.957
215.08
207.483
200.155
193.081
186.245
179.64
173.263
167.101
161.155
155.417
149.88
144.532
139.39
134.443
129.686
125.114
120.721
116.52
112.503
108.669
105.015
101.541
98.2487
95.1398
92.2055
89.4034
98.2504
40.868
30.5276
27.2211
26.1233
26.0202
26.4928
27.3505
28.4904
29.8562
31.4132
33.1397
35.0216
37.0501
39.2195
41.5269
43.9711
46.5525
49.2728
52.1347
55.1422
58.2999
61.614
65.0912
68.7396
72.5692
76.5904
80.8149
85.2556
89.9261
94.8408
100.014
105.461
111.197
117.235
123.591
130.278
137.31
144.698
152.455
160.589
169.111
178.027
187.345
197.071
207.207
217.753
228.711
240.079
251.855
264.037
276.618
289.595
302.96
316.704
330.818
345.29
360.108
375.256
390.719
406.477
422.512
438.798
455.311
472.023
488.905
505.924
523.047
540.238
557.459
574.671
591.832
608.898
625.825
642.563
659.065
675.279
691.157
706.647
721.699
736.263
750.294
763.743
776.572
788.74
800.215
810.965
820.968
830.201
838.65
846.302
853.152
859.195
864.434
868.874
872.523
875.387
877.476
878.799
879.377
879.203
878.253
876.48
873.928
870.588
866.448
861.493
855.707
849.071
841.573
833.197
823.933
813.772
802.713
790.753
777.914
764.185
749.582
734.097
717.72
700.553
682.687
664.291
645.474
626.248
606.693
587.068
567.228
547.399
527.727
508.287
489.201
470.577
452.502
435.03
418.208
402.07
386.633
371.898
357.855
344.482
331.751
319.632
308.094
297.102
286.62
276.611
267.037
257.863
249.056
240.589
232.44
224.591
217.023
209.715
202.657
195.838
189.24
182.844
176.65
170.655
164.852
159.237
153.806
148.552
143.471
138.566
133.833
129.269
124.871
120.634
116.567
112.668
108.935
105.369
101.968
98.7382
95.678
92.7762
90.0109
95.2456
39.818
29.9142
26.8387
25.9308
26.0175
26.6801
27.7374
29.0995
30.7124
32.5431
34.5704
36.7809
39.1658
41.7197
44.4395
47.3241
50.3736
53.5898
56.9752
60.5336
64.2697
68.1896
72.3007
76.612
81.1342
85.8789
90.8587
96.0882
101.583
107.359
113.433
119.822
126.541
133.606
141.032
148.833
157.022
165.61
174.607
184.024
193.865
204.135
214.838
225.973
237.544
249.551
261.986
274.843
288.114
301.791
315.862
330.317
345.14
360.316
375.827
391.653
407.772
424.163
440.8
457.659
474.71
491.925
509.273
526.722
544.239
561.79
579.341
596.858
614.307
631.653
648.856
665.882
682.687
699.232
715.472
731.365
746.863
761.923
776.496
790.539
804.006
816.857
829.052
840.556
851.338
861.37
870.632
879.105
886.774
893.627
899.658
904.863