/*--------------------------------*- C++ -*----------------------------------*\
| =========                 |                                                 |
| \\      /  F ield         | OpenFOAM: The Open Source CFD Toolbox           |
|  \\    /   O peration     | Version:  4.1                                   |
|   \\  /    A nd           | Web:      www.OpenFOAM.org                      |
|    \\/     M anipulation  |                                                 |
\*---------------------------------------------------------------------------*/
FoamFile
{
    version     2.0;
    format      ascii;
    class       volScalarField;
    location    "100";
    object      k;
}
// * * * * * * * * * * * * * * * * * * * * * * * * * * * * * * * * * * * * * //

dimensions      [0 2 -2 0 0 0 0];

internalField   nonuniform List<scalar> 
12225
(
0.58028
1.01383
1.31599
1.48988
1.57425
1.60346
1.60041
1.58751
1.56496
1.53932
1.5145
1.49102
1.47017
1.45087
1.43487
1.41931
1.40856
1.39458
0.442182
0.502577
0.527832
0.540346
0.547622
0.551335
0.553467
0.555208
0.558646
0.562027
0.568196
0.573946
0.582586
0.590253
0.600344
0.609211
0.61923
0.629533
0.387489
0.41927
0.426322
0.423526
0.41673
0.40623
0.394633
0.38322
0.372067
0.362169
0.352862
0.345365
0.338226
0.333242
0.328067
0.325311
0.321722
0.320624
0.375845
0.384399
0.38802
0.38739
0.385559
0.381442
0.376101
0.370102
0.363747
0.357296
0.350901
0.344691
0.338722
0.333053
0.327744
0.322747
0.318146
0.313812
0.37401
0.3749
0.37583
0.375402
0.37437
0.372275
0.369567
0.366315
0.362849
0.35907
0.355324
0.351372
0.347657
0.343762
0.340246
0.336527
0.333334
0.329845
0.37373
0.372267
0.371497
0.370518
0.369355
0.367808
0.366009
0.363891
0.361671
0.359224
0.356805
0.354213
0.351751
0.349137
0.346738
0.34418
0.341919
0.339466
0.373791
0.371642
0.369947
0.368411
0.366967
0.365456
0.363912
0.362242
0.360545
0.35874
0.356951
0.355074
0.353264
0.351379
0.349602
0.347752
0.346049
0.344263
0.373824
0.37156
0.369556
0.367732
0.366065
0.364455
0.362907
0.361342
0.359803
0.358229
0.35669
0.355115
0.353591
0.35204
0.350558
0.34905
0.347631
0.346178
0.373832
0.371558
0.36945
0.367489
0.365681
0.363973
0.362366
0.360806
0.359307
0.357826
0.356394
0.354971
0.353594
0.352224
0.350908
0.349595
0.348345
0.347091
0.373831
0.371562
0.369424
0.367408
0.36552
0.363739
0.362067
0.360474
0.358962
0.357504
0.35611
0.354756
0.353457
0.352189
0.350971
0.349779
0.348638
0.347518
0.373829
0.371561
0.369416
0.367384
0.365465
0.363648
0.361933
0.360307
0.358767
0.357298
0.355902
0.354565
0.353289
0.352062
0.350889
0.349758
0.348673
0.347627
0.373828
0.371558
0.36941
0.367373
0.365444
0.363614
0.361881
0.360235
0.358675
0.357191
0.355781
0.354439
0.35316
0.35194
0.350776
0.349663
0.348599
0.34758
0.373827
0.371556
0.369404
0.367365
0.365432
0.363597
0.361856
0.360202
0.358632
0.357139
0.355719
0.354368
0.353082
0.351856
0.350688
0.349575
0.348511
0.347496
0.373826
0.371554
0.3694
0.367358
0.365422
0.363584
0.361839
0.360182
0.358606
0.357108
0.355683
0.354326
0.353034
0.351804
0.35063
0.349512
0.348444
0.347426
0.373826
0.371552
0.369397
0.367353
0.365414
0.363574
0.361826
0.360166
0.358587
0.357086
0.355657
0.354297
0.353001
0.351767
0.35059
0.349467
0.348396
0.347374
0.373825
0.371551
0.369395
0.367349
0.365409
0.363566
0.361817
0.360154
0.358573
0.357069
0.355638
0.354274
0.352976
0.351739
0.350559
0.349434
0.34836
0.347335
0.373825
0.371551
0.369393
0.367347
0.365405
0.363561
0.36181
0.360145
0.358563
0.357057
0.355623
0.354258
0.352958
0.351718
0.350537
0.34941
0.348334
0.347308
0.373825
0.37155
0.369393
0.367346
0.365404
0.363559
0.361807
0.360141
0.358558
0.35705
0.355616
0.354249
0.352948
0.351707
0.350525
0.349396
0.34832
0.347293
0.373825
0.371551
0.369393
0.367347
0.365404
0.36356
0.361807
0.360142
0.358557
0.35705
0.355614
0.354248
0.352946
0.351706
0.350522
0.349394
0.348317
0.34729
0.373825
0.371551
0.369394
0.367348
0.365406
0.363562
0.36181
0.360144
0.358561
0.357053
0.355619
0.354252
0.352951
0.35171
0.350528
0.349399
0.348324
0.347296
0.373826
0.371552
0.369396
0.36735
0.365409
0.363566
0.361815
0.360151
0.358568
0.357063
0.35563
0.354266
0.352966
0.351727
0.350547
0.349421
0.348346
0.347321
0.373826
0.371553
0.369398
0.367354
0.365414
0.363574
0.361827
0.360168
0.358591
0.357093
0.355667
0.35431
0.353016
0.351784
0.350607
0.349484
0.348411
0.347385
0.373826
0.371555
0.3694
0.367362
0.365432
0.363608
0.361881
0.360246
0.358693
0.357217
0.35581
0.354467
0.353182
0.351951
0.350771
0.349638
0.34855
0.347503
0.373827
0.371552
0.369412
0.36742
0.365551
0.363805
0.362154
0.36059
0.359089
0.357647
0.356251
0.3549
0.353585
0.352311
0.351068
0.349862
0.348686
0.347547
0.373817
0.371557
0.369579
0.367832
0.366202
0.36468
0.36318
0.361703
0.360209
0.358721
0.357219
0.355727
0.354234
0.35276
0.35129
0.349854
0.348431
0.347047
0.373752
0.371905
0.370799
0.369755
0.368638
0.367446
0.365994
0.364403
0.362628
0.360786
0.358837
0.356875
0.35486
0.352863
0.350852
0.348888
0.346922
0.345023
0.373955
0.374792
0.376338
0.376385
0.375899
0.374613
0.372424
0.369952
0.367104
0.364195
0.361079
0.358003
0.354816
0.351724
0.348588
0.345559
0.342536
0.339643
0.37703
0.390868
0.398669
0.398149
0.396364
0.392631
0.387944
0.383145
0.377879
0.372747
0.367379
0.362235
0.357064
0.352125
0.347359
0.342774
0.338553
0.334389
0.401069
0.430057
0.440462
0.444216
0.447084
0.450306
0.453193
0.456037
0.458442
0.460734
0.462768
0.46465
0.466616
0.468278
0.470438
0.472067
0.474716
0.476307
0.46482
0.644122
0.800187
0.916062
1.01688
1.10103
1.16835
1.22021
1.2582
1.28485
1.30189
1.31184
1.31571
1.31495
1.31193
1.3067
1.29949
1.29119
0.00965529
0.0203849
0.0306551
0.0393624
0.0464787
0.0522396
0.0568918
0.0605676
0.0639888
0.0670445
0.0698818
0.0726863
0.0757703
0.0793295
0.083691
0.0890522
0.0955139
0.102832
0.111004
0.119933
0.129742
0.140418
0.152201
0.164918
0.178667
0.193329
0.208984
0.225478
0.242819
0.260808
0.279452
0.298526
0.318042
0.337781
0.357767
0.377791
0.397903
0.417914
0.437899
0.457684
0.47737
0.496797
0.516081
0.535073
0.553896
0.572412
0.590752
0.608782
0.626636
0.644185
0.661571
0.678669
0.695611
0.712269
0.728776
0.745004
0.761078
0.776869
0.792505
0.807852
0.82304
0.837933
0.852659
0.867082
0.881329
0.89526
0.909005
0.922422
0.935642
0.948523
0.961194
0.973509
0.985597
0.99732
1.00881
1.01993
1.03082
1.04137
1.0517
1.06175
1.07164
1.0813
1.09075
1.09984
1.10891
1.11767
1.12627
1.13473
1.14298
1.15114
1.1592
1.16723
1.1753
1.18397
1.19513
1.20308
1.21025
1.21726
1.22124
1.2199
1.22654
1.24238
1.24212
1.2478
1.25444
1.25914
1.27371
1.27504
1.27965
1.27868
1.28165
1.29159
1.28797
1.29079
1.29323
1.29536
1.29665
1.29945
1.29531
1.29597
1.29979
1.29534
1.29229
1.28666
1.28066
1.27354
1.26546
1.25637
1.24623
1.23506
1.22282
1.20949
1.195
1.17939
1.16266
1.14488
1.12606
1.10594
1.08483
1.06289
1.04012
1.01663
0.992592
0.968019
0.942964
0.918062
0.89315
0.867454
0.846998
0.830888
0.815277
0.799659
0.78404
0.768466
0.753027
0.737736
0.722453
0.707259
0.692354
0.678005
0.663893
0.649868
0.636145
0.62285
0.610003
0.59756
0.585545
0.573974
0.562841
0.552137
0.541855
0.531958
0.522445
0.513164
0.504352
0.495058
0.487201
0.475603
0.468652
0.441279
0.0283291
0.0563732
0.0789337
0.0961278
0.110364
0.122622
0.13339
0.142971
0.1516
0.159779
0.168025
0.1768
0.186513
0.197469
0.209865
0.223745
0.239084
0.255847
0.274016
0.293551
0.314455
0.336733
0.36042
0.3855
0.41198
0.439821
0.468999
0.499435
0.531068
0.563759
0.597389
0.631805
0.666899
0.702524
0.738578
0.774919
0.811461
0.848082
0.884722
0.921284
0.95773
0.993986
1.03004
1.06582
1.10134
1.13654
1.17145
1.20602
1.24028
1.2742
1.3078
1.34106
1.374
1.4066
1.43888
1.47081
1.50241
1.53363
1.56451
1.59499
1.6251
1.65479
1.68407
1.71289
1.74127
1.76915
1.79654
1.82338
1.84969
1.87542
1.90058
1.92512
1.94906
1.97229
1.99485
2.01668
2.03781
2.05821
2.07793
2.09696
2.11533
2.13309
2.15026
2.16678
2.18272
2.19814
2.21306
2.22753
2.24159
2.25531
2.26874
2.28193
2.29495
2.30796
2.32065
2.333
2.34515
2.35691
2.3682
2.37922
2.39111
2.40279
2.41283
2.42396
2.43391
2.44439
2.45391
2.46196
2.46893
2.47551
2.48242
2.48828
2.49103
2.50172
2.50453
2.51285
2.51811
2.52194
2.52224
2.52398
2.52629
2.52709
2.5287
2.52581
2.52184
2.51633
2.50922
2.50041
2.48978
2.47726
2.4628
2.44627
2.42743
2.40622
2.38263
2.35665
2.32832
2.29768
2.2648
2.22983
2.19294
2.15431
2.11413
2.07259
2.02981
1.98601
1.94183
1.89699
1.85178
1.80674
1.76167
1.71673
1.67213
1.62808
1.58472
1.54214
1.49975
1.45803
1.41735
1.3779
1.33959
1.30217
1.26588
1.2309
1.19719
1.16465
1.13333
1.10327
1.07442
1.04676
1.02027
0.994885
0.970562
0.947209
0.924834
0.903036
0.88276
0.860957
0.845406
0.803558
0.0459936
0.0892276
0.118779
0.140794
0.159185
0.175399
0.190173
0.204003
0.217325
0.230575
0.244197
0.258619
0.274225
0.291319
0.310111
0.330697
0.353102
0.377289
0.403204
0.430778
0.459963
0.490718
0.523022
0.556841
0.59215
0.628901
0.667044
0.706498
0.747157
0.788875
0.831529
0.874989
0.919134
0.963833
1.00897
1.05442
1.10008
1.14584
1.19163
1.23737
1.28299
1.32845
1.37371
1.41872
1.46346
1.50792
1.55207
1.5959
1.63942
1.6826
1.72545
1.76795
1.81012
1.85193
1.89339
1.93449
1.97522
2.01556
2.05551
2.09504
2.13414
2.1728
2.21098
2.24866
2.28582
2.32242
2.35844
2.39384
2.42859
2.46265
2.49599
2.52857
2.56037
2.59133
2.62144
2.65067
2.679
2.70641
2.7329
2.75848
2.78316
2.80694
2.8298
2.85174
2.8728
2.893
2.91238
2.93096
2.94879
2.96591
2.98238
2.99823
3.01351
3.02827
3.04235
3.05591
3.0688
3.08105
3.0927
3.10382
3.1146
3.12485
3.13459
3.14412
3.15295
3.16181
3.16958
3.17681
3.18329
3.18955
3.19551
3.20082
3.20578
3.21139
3.21504
3.21906
3.22242
3.22418
3.22409
3.22314
3.22223
3.22007
3.21681
3.21135
3.20426
3.19536
3.18452
3.17158
3.15639
3.13881
3.11871
3.09595
3.07039
3.04196
3.0106
2.97632
2.93914
2.89916
2.85647
2.81124
2.76365
2.71388
2.66213
2.60863
2.55357
2.49721
2.44018
2.38291
2.32555
2.26825
2.21104
2.15411
2.09768
2.04197
1.98715
1.93334
1.88047
1.82873
1.77828
1.72928
1.68163
1.63483
1.58941
1.54556
1.50324
1.46227
1.42278
1.38483
1.34834
1.31332
1.27973
1.24753
1.21667
1.18707
1.15872
1.13143
1.10576
1.07997
1.0607
1.02421
0.0620148
0.121968
0.158009
0.184371
0.206329
0.225804
0.243767
0.26085
0.277569
0.294391
0.311766
0.330116
0.349819
0.371173
0.39439
0.419582
0.446778
0.475945
0.507021
0.539928
0.5746
0.610978
0.649019
0.688677
0.729909
0.772651
0.81683
0.86234
0.909068
0.9569
1.00573
1.05542
1.10587
1.15694
1.20851
1.26047
1.3127
1.36511
1.41763
1.47017
1.52267
1.57509
1.62737
1.67947
1.73137
1.78303
1.83444
1.88558
1.93643
1.98699
2.03724
2.08718
2.13679
2.18608
2.23502
2.28362
2.33185
2.37971
2.42719
2.47424
2.52087
2.56704
2.61273
2.65791
2.70253
2.74657
2.78998
2.83272
2.87475
2.91602
2.95648
2.99609
3.0348
3.07255
3.10931
3.14504
3.1797
3.21326
3.2457
3.27701
3.30716
3.33615
3.36394
3.39055
3.41598
3.44024
3.46336
3.48536
3.50627
3.52613
3.54497
3.56283
3.57975
3.59572
3.61074
3.62484
3.63799
3.65023
3.66162
3.67221
3.68209
3.69127
3.69982
3.70778
3.71505
3.72181
3.7277
3.733
3.73771
3.74184
3.74523
3.74797
3.75051
3.75263
3.75323
3.75291
3.75224
3.75036
3.74725
3.74314
3.73811
3.73179
3.72401
3.71443
3.70306
3.68973
3.67431
3.6566
3.63643
3.61365
3.58809
3.55961
3.52808
3.4934
3.45553
3.41443
3.37016
3.3228
3.27245
3.21929
3.16348
3.10524
3.04478
2.9824
2.91845
2.85333
2.78752
2.72148
2.65541
2.58946
2.52376
2.45851
2.39393
2.33023
2.2676
2.20617
2.146
2.08723
2.02995
1.97428
1.92021
1.86761
1.81662
1.76735
1.71975
1.67343
1.62873
1.58574
1.54432
1.50449
1.46626
1.42956
1.39438
1.36064
1.32836
1.29745
1.26827
1.24005
1.21701
1.18556
0.0764353
0.153284
0.196204
0.227128
0.252715
0.275366
0.296284
0.316235
0.335809
0.355514
0.375816
0.397141
0.419862
0.444283
0.470621
0.499007
0.529491
0.56206
0.596665
0.633236
0.671707
0.712011
0.754093
0.797893
0.843354
0.890403
0.938958
0.988923
1.0402
1.09267
1.14623
1.20076
1.25613
1.31222
1.36891
1.4261
1.48368
1.54157
1.59968
1.65794
1.71629
1.77465
1.833
1.89126
1.94942
2.00743
2.06527
2.12291
2.18034
2.23754
2.29449
2.35118
2.4076
2.46373
2.51958
2.57512
2.63034
2.68522
2.73975
2.79389
2.84764
2.90095
2.9538
3.00614
3.05794
3.10916
3.15973
3.2096
3.25874
3.30706
3.35451
3.40103
3.44656
3.49103
3.53437
3.57654
3.61748
3.65714
3.69548
3.73245
3.76802
3.80216
3.83484
3.86603
3.89575
3.92397
3.95072
3.976
3.99984
4.02227
4.0433
4.06297
4.08131
4.09834
4.11406
4.12852
4.14173
4.15374
4.1646
4.17438
4.18314
4.19094
4.19782
4.20383
4.20898
4.21323
4.21651
4.219
4.22099
4.22198
4.22172
4.22045
4.21885
4.21643
4.21287
4.20845
4.20313
4.1967
4.18908
4.1803
4.17032
4.15896
4.14607
4.13145
4.11499
4.09653
4.07591
4.05296
4.02748
3.9993
3.96826
3.93419
3.89696
3.85646
3.81263
3.76544
3.71492
3.66113
3.60419
3.54426
3.48151
3.4162
3.34862
3.27915
3.20818
3.13613
3.06343
2.99049
2.91756
2.84485
2.77251
2.70077
2.62984
2.55995
2.49126
2.42394
2.35809
2.29382
2.23123
2.17038
2.11132
2.05399
1.99845
1.94476
1.89292
1.84279
1.79445
1.74792
1.70294
1.65961
1.61799
1.57795
1.53953
1.50269
1.46744
1.4338
1.40201
1.37182
1.34591
1.31389
0.0890701
0.18265
0.23265
0.26827
0.297552
0.323367
0.347137
0.369748
0.391861
0.41402
0.436712
0.460367
0.485365
0.512018
0.540562
0.571152
0.603872
0.638742
0.675741
0.714819
0.755918
0.798975
0.843927
0.890708
0.93925
0.989478
1.04131
1.09464
1.14939
1.20545
1.26269
1.32102
1.38032
1.44047
1.50137
1.56292
1.62501
1.68756
1.7505
1.81373
1.87719
1.94082
2.00455
2.06835
2.13216
2.19594
2.25966
2.32329
2.38681
2.45018
2.5134
2.57645
2.6393
2.70196
2.76439
2.82659
2.88855
2.95024
3.01163
3.07271
3.13345
3.19381
3.25375
3.31324
3.37221
3.43062
3.4884
3.5455
3.60183
3.65734
3.71194
3.76555
3.81809
3.86947
3.91963
3.96847
4.01593
4.06192
4.10639
4.14926
4.19049
4.23002
4.2678
4.3038
4.33799
4.37035
4.40089
4.42959
4.45648
4.48156
4.50485
4.5264
4.54621
4.56432
4.58076
4.59557
4.60878
4.62045
4.63065
4.63942
4.64685
4.65298
4.65785
4.66152
4.66416
4.66552
4.66552
4.66428
4.66226
4.65905
4.65463
4.64919
4.6428
4.63536
4.62678
4.61712
4.60636
4.59441
4.58122
4.56675
4.55095
4.53371
4.51491
4.49441
4.47208
4.44778
4.42135
4.3926
4.36137
4.32747
4.29073
4.25098
4.20808
4.1619
4.11236
4.05943
4.00312
3.94347
3.88059
3.81465
3.74587
3.67456
3.60105
3.52575
3.44904
3.37134
3.29306
3.21456
3.13613
3.05799
2.98034
2.90341
2.82742
2.75258
2.67908
2.60707
2.53667
2.46799
2.40112
2.33613
2.27305
2.21188
2.15264
2.09535
2.04002
1.9866
1.9351
1.88556
1.83784
1.79194
1.74782
1.70524
1.66436
1.62511
1.58756
1.55177
1.51791
1.48603
1.45778
1.42533
0.100068
0.209694
0.266564
0.306823
0.339769
0.368699
0.39523
0.420355
0.444794
0.469124
0.493848
0.519408
0.54619
0.574518
0.604652
0.636775
0.671009
0.70741
0.745991
0.786731
0.829589
0.874508
0.921431
0.970288
1.02101
1.07352
1.12773
1.18355
1.2409
1.29967
1.35975
1.42105
1.48346
1.54688
1.6112
1.67634
1.7422
1.80869
1.87573
1.94324
2.01115
2.07939
2.14791
2.21664
2.28553
2.35454
2.42363
2.49276
2.56191
2.63104
2.70013
2.76917
2.83813
2.907
2.97575
3.04439
3.11287
3.1812
3.24933
3.31724
3.3849
3.45227
3.51931
3.58596
3.65217
3.71787
3.783
3.84747
3.91121
3.97412
4.0361
4.09707
4.15692
4.21554
4.27283
4.32869
4.38302
4.43572
4.48669
4.53585
4.58311
4.62841
4.67166
4.71281
4.75182
4.78866
4.82329
4.85571
4.88591
4.91389
4.93968
4.9633
4.98476
5.00412
5.02139
5.03663
5.04989
5.06123
5.07071
5.0784
5.08434
5.08863
5.09128
5.09223
5.09165
5.08961
5.08603
5.081
5.07462
5.06683
5.05765
5.04714
5.03536
5.02227
5.00787
4.99218
4.9752
4.95689
4.93722
4.91617
4.89371
4.86975
4.84423
4.81704
4.78807
4.7572
4.72428
4.68916
4.65167
4.61162
4.56886
4.52321
4.47451
4.42263
4.36747
4.30898
4.24715
4.18202
4.11372
4.04244
3.96845
3.89204
3.81358
3.73345
3.65205
3.56976
3.48696
3.40401
3.32119
3.23874
3.15688
3.07585
2.99587
2.91713
2.83984
2.76413
2.69013
2.61795
2.54768
2.47938
2.4131
2.34883
2.2866
2.22641
2.16825
2.11211
2.05799
2.00591
1.95581
1.90765
1.86138
1.81688
1.77417
1.73309
1.69377
1.65627
1.62077
1.5874
1.5572
1.52413
0.110077
0.234049
0.297284
0.341927
0.378373
0.41029
0.439461
0.466968
0.493576
0.519889
0.546422
0.573622
0.601884
0.631545
0.66288
0.696104
0.731369
0.768769
0.808353
0.850127
0.894074
0.940154
0.988316
1.0385
1.09063
1.14465
1.20046
1.25799
1.31715
1.37784
1.43998
1.50347
1.56822
1.63414
1.70113
1.76911
1.83798
1.90767
1.9781
2.04918
2.12085
2.19304
2.26568
2.33871
2.41207
2.48573
2.55963
2.63373
2.708
2.78241
2.85694
2.93155
3.00624
3.08098
3.15575
3.23053
3.30531
3.38006
3.45475
3.52936
3.60384
3.67816
3.75227
3.8261
3.8996
3.97268
4.04527
4.11728
4.18861
4.25914
4.32878
4.39739
4.46486
4.53106
4.59585
4.65912
4.72072
4.78053
4.83844
4.89432
4.94806
4.99957
5.04873
5.09548
5.13974
5.18146
5.2206
5.25711
5.29099
5.32223
5.35083
5.37682
5.40022
5.42105
5.43937
5.45522
5.46867
5.47977
5.48859
5.4952
5.49963
5.50178
5.50196
5.50018
5.4965
5.49092
5.48347
5.47421
5.46319
5.45044
5.43599
5.41989
5.40218
5.38289
5.36203
5.33963
5.31572
5.2903
5.26338
5.23495
5.20501
5.17353
5.14048
5.1058
5.06941
5.03121
4.99111
4.94896
4.90462
4.85793
4.80872
4.75683
4.7021
4.64439
4.58358
4.5196
4.45246
4.38222
4.309
4.23302
4.15453
4.07384
3.99128
3.90723
3.82206
3.73614
3.64982
3.56343
3.47725
3.39152
3.30648
3.22235
3.13935
3.0577
2.97756
2.89907
2.82236
2.74754
2.67468
2.60385
2.5351
2.46843
2.40387
2.3414
2.28103
2.22274
2.16651
2.11238
2.06031
2.01025
1.96217
1.91598
1.87169
1.8292
1.78856
1.74974
1.71293
1.6783
1.64645
1.61266
0.121735
0.25579
0.324453
0.37298
0.4126
0.447275
0.47891
0.508652
0.537295
0.565458
0.59366
0.622349
0.651922
0.68272
0.715034
0.749096
0.785086
0.823128
0.863302
0.905644
0.950163
0.996838
1.04564
1.0965
1.14938
1.20421
1.26092
1.31942
1.37966
1.44153
1.50498
1.56991
1.63623
1.70388
1.77277
1.84282
1.91394
1.98607
2.05913
2.13303
2.20772
2.28312
2.35918
2.43581
2.51298
2.59064
2.66872
2.74719
2.82602
2.90517
2.98462
3.06433
3.14429
3.22448
3.30488
3.38546
3.46622
3.54712
3.62814
3.70924
3.79039
3.87153
3.95262
4.03359
4.11437
4.19487
4.27501
4.35466
4.43373
4.51208
4.58959
4.66611
4.74149
4.81559
4.88824
4.95928
5.02856
5.09592
5.1612
5.22425
5.28493
5.34311
5.39866
5.45147
5.50145
5.54851
5.59259
5.63363
5.67161
5.7065
5.7383
5.76701
5.79266
5.81528
5.83492
5.85161
5.86544
5.87647
5.88478
5.89035
5.89314
5.89342
5.89128
5.88674
5.87984
5.87063
5.85915
5.84545
5.82959
5.81161
5.79155
5.76948
5.74543
5.71947
5.69163
5.66197
5.63053
5.59736
5.56248
5.52595
5.48779
5.44803
5.40666
5.3637
5.3191
5.27282
5.22478
5.17491
5.12308
5.06916
5.013
4.95447
4.89339
4.82964
4.76309
4.69369
4.62146
4.54645
4.46879
4.38868
4.30636
4.22211
4.13626
4.04914
3.96109
3.87246
3.78357
3.69472
3.60617
3.51817
3.43093
3.34469
3.25966
3.17604
3.09398
3.01362
2.93507
2.85844
2.78379
2.71121
2.64072
2.57235
2.5061
2.44198
2.37997
2.32008
2.26228
2.20658
2.15298
2.10142
2.05188
2.00432
1.9587
1.915
1.87324
1.83345
1.79563
1.75993
1.72672
1.69221
0.132516
0.274319
0.347586
0.399454
0.441858
0.478999
0.512879
0.544683
0.575224
0.605124
0.634896
0.664984
0.695776
0.727611
0.760783
0.795535
0.832063
0.870515
0.910994
0.953564
0.998258
1.04508
1.09401
1.14502
1.19806
1.25308
1.31003
1.36885
1.42946
1.49181
1.55583
1.62146
1.68861
1.75723
1.82724
1.89857
1.97116
2.04494
2.11984
2.19579
2.27272
2.35057
2.42928
2.50879
2.58904
2.66998
2.75157
2.83376
2.91651
2.99979
3.08357
3.16783
3.25254
3.33769
3.42326
3.50922
3.59557
3.68227
3.7693
3.85662
3.94419
4.03197
4.11989
4.20788
4.29586
4.38374
4.47142
4.55877
4.64567
4.73196
4.81751
4.90214
4.98568
5.06795
5.14876
5.22792
5.30524
5.38052
5.45358
5.52423
5.59229
5.6576
5.72
5.77933
5.83549
5.88835
5.93782
5.98384
6.02634
6.06529
6.10067
6.13248
6.16074
6.18547
6.20671
6.22452
6.23897
6.25013
6.25808
6.26269
6.2642
6.26273
6.25834
6.25107
6.24098
6.22813
6.21257
6.19434
6.17351
6.15013
6.12425
6.09594
6.06526
6.03228
5.99706
5.95969
5.92022
5.87874
5.83532
5.79005
5.74299
5.69422
5.64381
5.5918
5.53822
5.48308
5.42637
5.36804
5.30804
5.24627
5.18262
5.11698
5.04923
4.97921
4.90685
4.83211
4.75497
4.67551
4.59384
4.51012
4.42458
4.33748
4.24909
4.15972
4.06967
3.97924
3.88873
3.79839
3.70847
3.61919
3.53076
3.44339
3.35731
3.27269
3.18966
3.10834
3.02884
2.95124
2.87562
2.80206
2.73058
2.66121
2.59394
2.52879
2.46575
2.40481
2.34596
2.2892
2.23452
2.18189
2.13128
2.08267
2.03604
1.99138
1.94871
1.90807
1.86949
1.83292
1.79859
1.76344
0.141661
0.289265
0.366307
0.420964
0.465735
0.505015
0.54088
0.574544
0.606827
0.638343
0.669594
0.701007
0.732957
0.76577
0.799735
0.835094
0.872051
0.910764
0.951357
0.993911
1.03848
1.0851
1.13376
1.18445
1.23716
1.29184
1.34846
1.40697
1.46733
1.52949
1.5934
1.65901
1.72626
1.7951
1.86548
1.93733
2.01061
2.08525
2.1612
2.23839
2.31678
2.3963
2.47689
2.55851
2.64109
2.72459
2.80896
2.89416
2.98016
3.06691
3.1544
3.2426
3.33148
3.42104
3.51126
3.60212
3.69361
3.78569
3.87834
3.97153
4.06521
4.15933
4.25384
4.34865
4.44368
4.53882
4.63396
4.72897
4.8237
4.91798
5.01165
5.10451
5.19637
5.287
5.37621
5.46375
5.5494
5.63293
5.71412
5.79273
5.86856
5.9414
6.01104
6.07732
6.14008
6.19916
6.25444
6.30583
6.35326
6.39666
6.436
6.47126
6.50246
6.52961
6.55276
6.57196
6.58727
6.59878
6.60651
6.61047
6.61089
6.60781
6.6013
6.59141
6.57822
6.56177
6.54214
6.51937
6.49352
6.46465
6.43282
6.39809
6.36057
6.3203
6.27739
6.23193
6.18403
6.13379
6.08132
6.02674
5.97019
5.91177
5.85163
5.78987
5.72658
5.66185
5.59573
5.52824
5.4594
5.38915
5.31746
5.24426
5.16954
5.09308
5.01484
4.93478
4.85292
4.76929
4.68399
4.59716
4.50899
4.41969
4.32951
4.2387
4.14752
4.05621
3.96503
3.87419
3.78391
3.69438
3.60577
3.51826
3.43214
3.3475
3.26447
3.18314
3.10359
3.02588
2.95014
2.8764
2.80471
2.73506
2.66747
2.60194
2.53847
2.47707
2.41772
2.3604
2.30512
2.25185
2.20058
2.1513
2.10399
2.05865
2.01532
1.97402
1.9348
1.89758
1.86235
1.82669
0.149012
0.300502
0.380449
0.437318
0.484012
0.525073
0.562632
0.597919
0.631752
0.664734
0.697348
0.729998
0.763038
0.796776
0.831483
0.867395
0.90471
0.943592
0.984171
1.02654
1.07078
1.11693
1.16501
1.21503
1.267
1.32089
1.37669
1.43438
1.49392
1.5553
1.61848
1.68343
1.75011
1.81849
1.88851
1.96015
2.03337
2.10812
2.18435
2.26203
2.34111
2.42153
2.50325
2.58621
2.67038
2.7557
2.84214
2.92965
3.01821
3.10777
3.19831
3.28981
3.38225
3.47563
3.56994
3.66516
3.76127
3.85825
3.95607
4.0547
4.1541
4.25421
4.35498
4.45632
4.55814
4.66033
4.76276
4.86528
4.96774
5.06995
5.17171
5.27282
5.37305
5.47215
5.56987
5.66595
5.76012
5.85212
5.94168
6.02854
6.11243
6.1931
6.27033
6.34388
6.41357
6.47922
6.54066
6.59777
6.65046
6.69863
6.74225
6.78127
6.8157
6.84556
6.87087
6.89169
6.90809
6.92013
6.92788
6.93142
6.9309
6.92635
6.91784
6.90544
6.88924
6.86928
6.84561
6.81831
6.78741
6.753
6.71513
6.67388
6.62934
6.5816
6.53077
6.47695
6.42028
6.36089
6.29894
6.23459
6.16801
6.09939
6.02891
5.95675
5.8831
5.80809
5.73186
5.65455
5.57626
5.49698
5.41675
5.33558
5.25336
5.1699
5.08538
4.99981
4.91319
4.82554
4.73693
4.64747
4.55729
4.46655
4.37544
4.28414
4.19284
4.10175
4.01103
3.92088
3.83143
3.74285
3.65526
3.56875
3.48361
3.39999
3.31795
3.23757
3.15891
3.08199
3.00698
2.93391
2.8628
2.79363
2.72643
2.66119
2.59794
2.53668
2.47738
2.42004
2.36466
2.31122
2.25972
2.21016
2.16252
2.11683
2.0731
2.03139
1.9917
1.95396
1.91807
1.88208
0.154504
0.308027
0.390004
0.448496
0.496649
0.539105
0.57803
0.614663
0.649815
0.684071
0.717891
0.751653
0.785685
0.82027
0.855659
0.892069
0.929688
0.968674
1.00916
1.05124
1.09501
1.14051
1.1878
1.2369
1.28782
1.34058
1.39519
1.45163
1.5099
1.57
1.63193
1.69568
1.76126
1.82857
1.89761
1.96838
2.04086
2.11503
2.19087
2.26833
2.34739
2.42801
2.51014
2.59376
2.67881
2.76526
2.85308
2.94223
3.03268
3.1244
3.21736
3.31153
3.40687
3.50346
3.60128
3.7003
3.80051
3.90186
4.00435
4.10793
4.21258
4.31825
4.42487
4.53235
4.64061
4.74951
4.85893
4.96871
5.07866
5.1886
5.29831
5.40754
5.51605
5.62355
5.72977
5.83441
5.93716
6.03772
6.13577
6.23099
6.3231
6.4118
6.4968
6.57785
6.65471
6.72715
6.79499
6.85807
6.91625
6.96944
7.01756
7.06056
7.09844
7.13119
7.15886
7.18148
7.19913
7.21188
7.21982
7.22304
7.22171
7.21581
7.20541
7.19061
7.17146
7.14803
7.12036
7.08852
7.05257
7.01256
6.96858
6.9207
6.86901
6.81362
6.75465
6.69223
6.62651
6.55766
6.48586
6.41132
6.33427
6.25494
6.17358
6.09045
6.00585
5.91999
5.83307
5.74529
5.65643
5.56702
5.47726
5.38733
5.29728
5.2075
5.11749
5.02719
4.93659
4.84569
4.75451
4.66313
4.57164
4.48014
4.38877
4.29765
4.20692
4.11671
4.02716
3.93839
3.85051
3.76362
3.67783
3.59326
3.51031
3.4289
3.34903
3.27075
3.19408
3.11899
3.04563
2.97409
2.90437
2.83648
2.7704
2.70616
2.64379
2.58329
2.52464
2.46783
2.41286
2.35973
2.30846
2.25903
2.21145
2.16574
2.12193
2.08005
2.04012
2.00204
1.96571
1.92959
0.158147
0.311918
0.395057
0.454583
0.503726
0.547174
0.587113
0.624781
0.66098
0.696274
0.7311
0.765807
0.800691
0.836008
0.871989
0.908828
0.946698
0.985742
1.02608
1.06783
1.11106
1.15583
1.20221
1.25023
1.29992
1.35134
1.40451
1.45945
1.51612
1.57456
1.63482
1.69693
1.76094
1.82676
1.89441
1.96387
2.03516
2.10826
2.18316
2.25986
2.33832
2.41853
2.50047
2.58409
2.66938
2.75631
2.84485
2.93497
3.02665
3.11986
3.2146
3.31082
3.40851
3.50777
3.60855
3.71082
3.81456
3.91975
4.02635
4.13432
4.24368
4.35438
4.46635
4.57947
4.69368
4.80884
4.92481
5.04142
5.15848
5.27579
5.3931
5.51015
5.62666
5.74234
5.85685
5.96988
6.08107
6.19007
6.29653
6.40009
6.5004
6.59713
6.68994
6.77853
6.86262
6.94194
7.01627
7.08541
7.14919
7.2075
7.26023
7.30732
7.34873
7.38448
7.41458
7.43908
7.45806
7.47159
7.47977
7.48268
7.48065
7.47345
7.46122
7.44404
7.42196
7.39505
7.36336
7.32694
7.28586
7.24017
7.18997
7.13532
7.07632
7.0131
6.94578
6.87451
6.79947
6.72086
6.63888
6.55379
6.46588
6.37544
6.28277
6.18819
6.09165
5.99378
5.89505
5.79578
5.69703
5.59855
5.50038
5.40283
5.30631
5.20984
5.11392
5.0186
4.9239
4.82978
4.73626
4.64334
4.55107
4.45949
4.36866
4.27863
4.18946
4.10121
4.01394
3.9277
3.84256
3.75856
3.67572
3.59397
3.51383
3.43521
3.3581
3.28251
3.20846
3.1358
3.06506
2.99605
2.92869
2.86297
2.79888
2.73638
2.67557
2.61649
2.55909
2.50338
2.44936
2.39705
2.34647
2.2976
2.25048
2.20512
2.16154
2.11978
2.07984
2.04165
2.00515
1.96912
0.159787
0.312085
0.395643
0.455691
0.505387
0.549432
0.590023
0.628399
0.665348
0.701419
0.73702
0.772471
0.808031
0.843913
0.880363
0.917551
0.955619
0.994692
1.03488
1.07628
1.11899
1.16307
1.20852
1.25541
1.30382
1.35379
1.4054
1.45874
1.51376
1.5705
1.62899
1.68928
1.75136
1.81522
1.88095
1.94859
2.01817
2.08971
2.1632
2.23866
2.31607
2.39544
2.47674
2.55997
2.6451
2.73211
2.82098
2.91169
3.00423
3.09857
3.19469
3.29258
3.39221
3.49358
3.59671
3.7016
3.80824
3.91663
4.02673
4.13852
4.25203
4.36716
4.48385
4.60198
4.7215
4.84229
4.96418
5.087
5.21057
5.33465
5.45899
5.58331
5.70731
5.83067
5.95302
6.07401
6.19325
6.31034
6.42489
6.53649
6.64476
6.74929
6.84971
6.94567
7.03684
7.12291
7.20361
7.27872
7.34802
7.41137
7.46864
7.51975
7.56464
7.60332
7.6358
7.66211
7.68235
7.69659
7.70496
7.70742
7.70468
7.69614
7.68203
7.66239
7.63731
7.60682
7.57098
7.52985
7.4835
7.43197
7.37536
7.31375
7.24725
7.17597
7.10006
7.01969
6.93508
6.84643
6.754
6.65803
6.5585
6.45602
6.35106
6.24407
6.13622
6.02758
5.91842
5.80912
5.70065
5.59227
5.48477
5.37856
5.27387
5.17061
5.06893
4.96888
4.87046
4.77363
4.67835
4.5846
4.49234
4.40154
4.31218
4.22424
4.13767
4.05245
3.96857
3.886
3.80474
3.72476
3.64607
3.56866
3.49267
3.41811
3.34497
3.27325
3.20291
3.13381
3.06629
3.0003
2.93581
2.87278
2.81122
2.75112
2.69265
2.63571
2.58026
2.5263
2.47379
2.42282
2.3734
2.32556
2.2793
2.23465
2.19164
2.1503
2.11061
2.07262
2.03623
2.00055
0.160155
0.310016
0.393032
0.452854
0.502483
0.546587
0.587348
0.62599
0.663285
0.699765
0.735814
0.771728
0.807742
0.844044
0.880888
0.918377
0.956626
0.995737
1.03581
1.07692
1.11917
1.16265
1.20733
1.25329
1.3006
1.34932
1.3995
1.45114
1.50428
1.55905
1.61553
1.67377
1.73386
1.79584
1.85973
1.9256
1.99348
2.06341
2.13542
2.20952
2.28575
2.36409
2.44456
2.52714
2.61183
2.69862
2.7875
2.87844
2.97145
3.06649
3.16356
3.26265
3.36374
3.46684
3.57196
3.6791
3.78824
3.89938
4.01247
4.12747
4.24438
4.36317
4.48377
4.60611
4.73013
4.85568
4.9826
5.11074
5.2399
5.36984
5.50032
5.63102
5.76165
5.89184
6.02122
6.1494
6.27595
6.40043
6.52242
6.64145
6.75709
6.86889
6.97642
7.07929
7.17711
7.26953
7.35624
7.43696
7.51146
7.57955
7.64107
7.69593
7.74404
7.7854
7.82
7.84789
7.86913
7.88383
7.89213
7.89401
7.89035
7.8803
7.8641
7.84181
7.8135
7.77922
7.739
7.69292
7.64102
7.5834
7.52011
7.45127
7.37699
7.29739
7.2126
7.12262
7.02775
6.9283
6.82462
6.71709
6.60657
6.4931
6.37718
6.25928
6.14047
6.02028
5.89966
5.77923
5.65964
5.54117
5.42437
5.30968
5.19739
5.08765
4.98062
4.87633
4.77479
4.67593
4.57968
4.48595
4.39463
4.30562
4.21878
4.134
4.05115
3.97011
3.89077
3.81302
3.73679
3.66199
3.58858
3.51649
3.44576
3.37635
3.30825
3.24141
3.17581
3.11137
3.04819
2.98628
2.92563
2.86622
2.80803
2.75101
2.69533
2.64097
2.58791
2.53612
2.48563
2.43655
2.38883
2.34249
2.29755
2.25402
2.21191
2.17131
2.13225
2.09479
2.05882
2.02375
0.158923
0.304248
0.385984
0.445096
0.494285
0.538142
0.578822
0.617529
0.655015
0.691786
0.728205
0.764539
0.800994
0.837736
0.874916
0.912672
0.951109
0.990317
1.03037
1.07134
1.11327
1.1562
1.20017
1.24526
1.29155
1.33911
1.38803
1.43838
1.49022
1.54361
1.59863
1.65537
1.71392
1.77433
1.8367
1.90107
1.96751
2.03608
2.10682
2.17978
2.25497
2.33243
2.41217
2.49418
2.57848
2.66506
2.75391
2.84501
2.93837
3.03396
3.13178
3.2318
3.33402
3.43843
3.54503
3.65381
3.76477
3.87789
3.99315
4.11053
4.23
4.35156
4.47513
4.60062
4.72795
4.85702
4.98769
5.11983
5.25322
5.38766
5.52289
5.6586
5.79449
5.93019
6.0653
6.1994
6.33205
6.46278
6.59109
6.71651
6.83853
6.95667
7.07043
7.17938
7.28306
7.3811
7.47312
7.55881
7.63789
7.71014
7.77538
7.83346
7.88429
7.92785
7.96411
7.99312
8.01493
8.02966
8.03742
8.03843
8.03349
8.02157
8.00293
7.97764
7.94574
7.90728
7.86232
7.8109
7.75303
7.68879
7.61826
7.54156
7.4588
7.37018
7.27591
7.1764
7.07171
6.96216
6.8482
6.73051
6.60874
6.48368
6.35597
6.2262
6.09511
5.96319
5.83116
5.69975
5.56964
5.44144
5.31575
5.19309
5.07385
4.95833
4.84669
4.73901
4.63527
4.53537
4.4392
4.34659
4.25736
4.17129