/*--------------------------------*- C++ -*----------------------------------*\
| =========                 |                                                 |
| \\      /  F ield         | OpenFOAM: The Open Source CFD Toolbox           |
|  \\    /   O peration     | Version:  4.1                                   |
|   \\  /    A nd           | Web:      www.OpenFOAM.org                      |
|    \\/     M anipulation  |                                                 |
\*---------------------------------------------------------------------------*/
FoamFile
{
    version     2.0;
    format      ascii;
    class       volScalarField;
    location    "100";
    object      nut;
}
// * * * * * * * * * * * * * * * * * * * * * * * * * * * * * * * * * * * * * //

dimensions      [0 2 -1 0 0 0 0];

internalField   nonuniform List<scalar> 
12225
(
2.68176e-05
3.54257e-05
4.03684e-05
4.29513e-05
4.4151e-05
4.4559e-05
4.4548e-05
4.43103e-05
4.40272e-05
4.36604e-05
4.33059e-05
4.29688e-05
4.26675e-05
4.23867e-05
4.21526e-05
4.19239e-05
4.17647e-05
4.15591e-05
0.000212633
8.33026e-05
5.47259e-05
4.31744e-05
3.76124e-05
3.47124e-05
3.32807e-05
3.25504e-05
3.23721e-05
3.24329e-05
3.28119e-05
3.32324e-05
3.3895e-05
3.44982e-05
3.53132e-05
3.60078e-05
3.68822e-05
3.76625e-05
0.000672674
0.000310892
0.000195685
0.000143074
0.000113848
9.49481e-05
8.23958e-05
7.36039e-05
6.70533e-05
6.21601e-05
5.82348e-05
5.52493e-05
5.26886e-05
5.08147e-05
4.90228e-05
4.79361e-05
4.65032e-05
4.5707e-05
0.000875635
0.000622529
0.00046751
0.000363527
0.000300117
0.000256014
0.000225204
0.000202142
0.000185
0.000171135
0.000160487
0.000151265
0.000144105
0.000137491
0.00013239
0.000127518
0.000123468
0.000119317
0.000881107
0.000787918
0.000712903
0.000617794
0.000543889
0.000484146
0.000438463
0.000401194
0.000372532
0.000347931
0.000328993
0.000311684
0.000298648
0.000285801
0.000276552
0.000266607
0.000259974
0.000251843
0.000864179
0.000837724
0.000818723
0.000775004
0.000728401
0.000681731
0.000640721
0.000603113
0.000571925
0.000543193
0.000520103
0.000498006
0.000480931
0.00046349
0.000450903
0.000436679
0.000427518
0.000415221
0.000854473
0.000852059
0.000844943
0.000833281
0.00081725
0.000794263
0.000770948
0.000746255
0.000723607
0.00070078
0.000681155
0.000661265
0.000645092
0.000627985
0.000615092
0.000600211
0.000590349
0.000576911
0.000852234
0.000852215
0.000850458
0.000847136
0.000840849
0.000831984
0.000821476
0.000808242
0.000794836
0.000780326
0.000767045
0.000752807
0.000740607
0.000727322
0.00071672
0.000704505
0.000695732
0.000684205
0.000851802
0.000851651
0.000851177
0.00085028
0.000848413
0.00084518
0.000840919
0.000835289
0.000828336
0.000820961
0.000813281
0.000804685
0.000796829
0.000788023
0.000780512
0.000771993
0.000765021
0.000756733
0.00085177
0.000851405
0.000851078
0.000850689
0.000850163
0.000849195
0.000847831
0.000845884
0.000843392
0.000840195
0.000836873
0.000832765
0.000828839
0.000824183
0.000819997
0.000815091
0.000810981
0.00080568
0.000851783
0.000851364
0.000851007
0.000850643
0.000850326
0.000849914
0.000849464
0.000848801
0.000848058
0.000846956
0.000845821
0.000844273
0.000842771
0.000840821
0.000839069
0.000836777
0.000834947
0.000832332
0.000851785
0.000851364
0.000850989
0.000850615
0.000850291
0.00084995
0.000849653
0.000849298
0.000848978
0.00084855
0.000848148
0.000847598
0.000847086
0.000846389
0.00084577
0.000844923
0.000844222
0.000843235
0.000851783
0.000851365
0.000850981
0.000850607
0.000850268
0.000849932
0.000849631
0.000849325
0.000849052
0.000848762
0.0008485
0.000848209
0.000847944
0.000847637
0.000847357
0.000847025
0.000846724
0.000846362
0.000851781
0.000851364
0.000850974
0.000850602
0.000850253
0.000849919
0.000849607
0.000849306
0.000849026
0.000848753
0.000848499
0.000848249
0.000848014
0.000847782
0.000847562
0.000847343
0.000847133
0.000846922
0.00085178
0.000851363
0.00085097
0.000850596
0.000850244
0.000849908
0.000849591
0.000849289
0.000849003
0.000848729
0.00084847
0.000848221
0.000847985
0.000847758
0.000847542
0.000847333
0.000847135
0.000846942
0.000851779
0.000851362
0.000850967
0.000850592
0.000850237
0.0008499
0.00084958
0.000849275
0.000848986
0.00084871
0.000848447
0.000848196
0.000847956
0.000847727
0.000847508
0.000847298
0.000847097
0.000846904
0.000851779
0.000851362
0.000850965
0.000850589
0.000850233
0.000849894
0.000849572
0.000849266
0.000848974
0.000848696
0.000848431
0.000848177
0.000847936
0.000847704
0.000847483
0.00084727
0.000847067
0.000846872
0.000851779
0.000851361
0.000850965
0.000850588
0.000850231
0.000849891
0.000849569
0.00084926
0.000848968
0.000848688
0.000848423
0.000848167
0.000847925
0.00084769
0.000847469
0.000847254
0.000847051
0.000846854
0.000851779
0.000851362
0.000850965
0.000850589
0.000850231
0.000849892
0.000849568
0.000849261
0.000848967
0.000848688
0.00084842
0.000848166
0.000847921
0.000847688
0.000847464
0.000847251
0.000847045
0.00084685
0.000851779
0.000851363
0.000850967
0.000850591
0.000850234
0.000849894
0.000849572
0.000849264
0.000848971
0.000848691
0.000848424
0.000848168
0.000847923
0.000847687
0.000847461
0.000847243
0.000847033
0.00084683
0.000851779
0.000851364
0.000850968
0.000850595
0.000850237
0.000849901
0.000849576
0.00084927
0.000848972
0.000848689
0.000848408
0.000848139
0.000847868
0.000847607
0.000847338
0.000847081
0.000846809
0.000846552
0.000851778
0.000851367
0.000850969
0.000850603
0.000850242
0.000849906
0.000849559
0.000849223
0.000848857
0.000848487
0.000848068
0.000847639
0.000847143
0.000846645
0.000846063
0.000845498
0.000844833
0.000844214
0.000851779
0.000851383
0.000850973
0.000850622
0.000850189
0.000849724
0.000849093
0.000848358
0.000847391
0.000846282
0.000844924
0.00084344
0.000841719
0.000839925
0.000837893
0.000835915
0.000833642
0.000831576
0.000851859
0.000851472
0.000850928
0.000850331
0.000848933
0.00084706
0.000844294
0.000840946
0.000836713
0.000832072
0.000826771
0.000821306
0.000815406
0.000809449
0.000803442
0.00079754
0.000791351
0.000785867
0.000852724
0.000851366
0.000849165
0.000844912
0.00083667
0.000827515
0.000815432
0.000802405
0.000787996
0.000773899
0.000759245
0.000745536
0.00073163
0.000719024
0.000706212
0.000695022
0.000683366
0.000673677
0.000857407
0.00084308
0.000830282
0.000805592
0.000773693
0.000741326
0.000708094
0.000677833
0.00064846
0.000622851
0.000598278
0.000577338
0.00055708
0.000540132
0.000523388
0.000509739
0.000495725
0.000484754
0.000862015
0.000792009
0.000724539
0.000644815
0.000578084
0.000523871
0.000476989
0.000439655
0.00040691
0.000380969
0.000357399
0.000338884
0.000321359
0.000307802
0.000294363
0.00028418
0.00027355
0.000265767
0.000782228
0.000562141
0.000424442
0.000338328
0.000281878
0.000241018
0.000209938
0.000187058
0.00016847
0.000154491
0.000142413
0.00013331
0.000124951
0.000118729
0.000112649
0.000108238
0.000103638
0.000100404
0.000343389
0.000180399
0.000124376
9.65862e-05
7.95188e-05
6.85113e-05
6.11002e-05
5.60943e-05
5.25288e-05
5.00614e-05
4.82377e-05
4.70028e-05
4.60666e-05
4.54979e-05
4.50537e-05
4.48674e-05
4.47075e-05
4.47589e-05
3.41127e-05
4.01588e-05
4.47618e-05
4.78934e-05
5.046e-05
5.25065e-05
5.40878e-05
5.52751e-05
5.61288e-05
5.67199e-05
5.70946e-05
5.7312e-05
5.73962e-05
5.73929e-05
5.72967e-05
5.72038e-05
5.70409e-05
5.68568e-05
5.82773e-06
1.77846e-05
2.17048e-05
2.45229e-05
2.65887e-05
2.81394e-05
2.93163e-05
3.02102e-05
3.11291e-05
3.19053e-05
3.26228e-05
3.33528e-05
3.41527e-05
3.50737e-05
3.61759e-05
3.74953e-05
3.8938e-05
4.04443e-05
4.20196e-05
4.36644e-05
4.53856e-05
4.71855e-05
4.9082e-05
5.1041e-05
5.30591e-05
5.51193e-05
5.72211e-05
5.93408e-05
6.14742e-05
6.36002e-05
6.5718e-05
6.78062e-05
6.98702e-05
7.18898e-05
7.38737e-05
7.58038e-05
7.7692e-05
7.95226e-05
8.13092e-05
8.30378e-05
8.47233e-05
8.63528e-05
8.79416e-05
8.94778e-05
9.0976e-05
9.24249e-05
9.38396e-05
9.52086e-05
9.65463e-05
9.78414e-05
9.91081e-05
0.000100337
0.000101541
0.000102708
0.000103853
0.000104964
0.000106053
0.000107109
0.000108144
0.000109146
0.000110128
0.000111078
0.000112007
0.000112904
0.00011378
0.000114623
0.000115446
0.000116234
0.000117002
0.000117737
0.000118452
0.000119131
0.000119788
0.000120409
0.000121007
0.00012157
0.000122112
0.000122623
0.000123118
0.000123585
0.000124027
0.000124424
0.000124783
0.000125183
0.000125542
0.000125881
0.00012623
0.000126554
0.000126885
0.00012721
0.000127538
0.000127868
0.000128275
0.000128761
0.000128788
0.000128468
0.000128689
0.000128629
0.000128298
0.000127263
0.000128732
0.00013086
0.000128245
0.000129358
0.000128688
0.000129707
0.000131813
0.000131261
0.000131354
0.000129206
0.000130013
0.000131296
0.000128841
0.000129674
0.000129642
0.000130456
0.000129652
0.000130568
0.000129915
0.000129552
0.000130579
0.000130072
0.000130046
0.000129678
0.000129377
0.000129002
0.000128592
0.000128136
0.000127631
0.000127081
0.000126486
0.00012584
0.000125136
0.000124372
0.000123545
0.000122657
0.000121739
0.00012073
0.000119634
0.000118492
0.000117277
0.000115996
0.000114664
0.000113292
0.00011179
0.000110271
0.00010891
0.000106579
0.000104489
0.000103321
0.000102267
0.000101205
0.000100124
9.90258e-05
9.79187e-05
9.68279e-05
9.57211e-05
9.4583e-05
9.34021e-05
9.22923e-05
9.12232e-05
9.01118e-05
8.8989e-05
8.78783e-05
8.67923e-05
8.57227e-05
8.46693e-05
8.36385e-05
8.26303e-05
8.16448e-05
8.06833e-05
7.97444e-05
7.88278e-05
7.79262e-05
7.70498e-05
7.61472e-05
7.53251e-05
7.42609e-05
7.33393e-05
7.12886e-05
9.86379e-06
6.14661e-05
0.000124937
0.000173563
0.000207396
0.00023119
0.000247709
0.000258457
0.000263998
0.00026666
0.00026825
0.000269824
0.000271904
0.000274687
0.000278113
0.000281995
0.000286203
0.000290907
0.000296257
0.000302335
0.000309179
0.000316841
0.000325357
0.000334797
0.000345189
0.000356543
0.000368835
0.000382036
0.000396046
0.000410898
0.000426486
0.000442706
0.000459445
0.000476595
0.000494039
0.000511666
0.000529365
0.000547048
0.000564632
0.000582052
0.000599245
0.000616171
0.000632792
0.000649085
0.000665029
0.000680615
0.000695834
0.000710685
0.000725161
0.000739258
0.000752961
0.000766313
0.000779352
0.000792089
0.000804531
0.000816689
0.000828565
0.000840165
0.000851489
0.000862542
0.000873319
0.000883821
0.000894044
0.000903983
0.00091363
0.000922979
0.000932022
0.00094075
0.000949158
0.00095724
0.000964996
0.000972432
0.000979536
0.000986252
0.000992576
0.000998505
0.00100404
0.00100917
0.00101391
0.00101822
0.00102214
0.00102571
0.00102905
0.00103217
0.00103492
0.0010375
0.0010399
0.00104209
0.00104415
0.00104605
0.00104783
0.00104944
0.00105082
0.00105178
0.00105158
0.00105268
0.00105531
0.00105778
0.00106135
0.00106588
0.00107183
0.00107512
0.00107704
0.00108676
0.00108484
0.00109515
0.00109372
0.00109997
0.00109524
0.00109579
0.00109991
0.00110106
0.0011017
0.00110969
0.00110971
0.00111596
0.00111578
0.00112101
0.0011227
0.00112151
0.00112598
0.00112952
0.00113493
0.00113763
0.00114028
0.0011426
0.00114458
0.00114613
0.00114723
0.00114781
0.00114788
0.0011474
0.00114618
0.00114421
0.00114147
0.00113793
0.00113367
0.00112871
0.00112284
0.00111619
0.00110875
0.00110056
0.00109166
0.00108219
0.00107193
0.00106083
0.00105017
0.00103704
0.00101982
0.00100138
0.000982394
0.000963142
0.000943791
0.000924485
0.000905266
0.000886291
0.000867302
0.000848717
0.000830407
0.000812662
0.000795513
0.000778589
0.000762051
0.000745985
0.000730379
0.000715124
0.000700264
0.000685841
0.000671824
0.000658213
0.000644988
0.000632144
0.000619579
0.000607438
0.000595191
0.000583773
0.000570938
0.000560271
0.000541382
0.00048998
1.24732e-05
9.00885e-05
0.000188975
0.000272192
0.000337957
0.000388356
0.000426343
0.000454487
0.000474829
0.00048939
0.000500037
0.000508334
0.000515515
0.000522496
0.000529928
0.000538257
0.000547809
0.000558832
0.00057149
0.000585864
0.000601995
0.000619898
0.00063959
0.000661079
0.000684345
0.00070932
0.000735874
0.000764242
0.000794876
0.00082704
0.000860285
0.000894351
0.000929046
0.000964201
0.000999645
0.0010352
0.00107062
0.00110581
0.00114068
0.00117513
0.00120909
0.00124248
0.00127528
0.00130743
0.00133894
0.00136977
0.00139994
0.00142943
0.00145826
0.00148643
0.00151397
0.00154089
0.00156722
0.00159298
0.00161819
0.00164286
0.001667
0.00169061
0.0017137
0.00173628
0.00175834
0.00177989
0.00180091
0.00182141
0.00184137
0.00186078
0.00187963
0.00189791
0.0019156
0.00193268
0.00194915
0.00196499
0.00198018
0.00199469
0.0020085
0.0020216
0.00203398
0.00204563
0.00205655
0.00206676
0.00207627
0.00208516
0.00209345
0.00210113
0.0021082
0.00211474
0.00212076
0.00212627
0.00213131
0.0021359
0.00214007
0.00214381
0.00214715
0.00215017
0.0021529
0.00215669
0.00216112
0.00216571
0.00217086
0.00217623
0.00218142
0.00218535
0.00218977
0.00219612
0.00219836
0.00220496
0.00220609
0.00220952
0.0022087
0.00221127
0.00221517
0.00221767
0.00222136
0.0022259
0.00222834
0.00223293
0.00223695
0.00224239
0.00224437
0.0022445
0.00224814
0.00225136
0.00225475
0.00225701
0.0022587
0.00225972
0.00225999
0.0022594
0.00225784
0.00225522
0.00225145
0.00224647
0.00224012
0.00223237
0.00222315
0.00221242
0.00220023
0.0021866
0.00217146
0.0021549
0.00213685
0.00211741
0.00209669
0.00207481
0.00205172
0.00202743
0.00200266
0.00197601
0.00194603
0.00191414
0.00188124
0.0018478
0.00181414
0.00178047
0.00174691
0.00171366
0.00168081
0.00164863
0.00161705
0.00158705
0.00155799
0.00152889
0.00150057
0.0014732
0.00144669
0.00142063
0.00139526
0.00137067
0.00134674
0.00132347
0.00130083
0.00127877
0.00125713
0.00123604
0.00121485
0.00119449
0.00117254
0.00115121
0.0011311
0.00105787
1.44013e-05
0.000117334
0.000243138
0.000350473
0.0004375
0.000506586
0.00056064
0.00060238
0.000634257
0.000658511
0.000677207
0.000692209
0.000705161
0.000717448
0.00073019
0.000744227
0.000760163
0.000778387
0.000799129
0.00082249
0.000848504
0.000877154
0.000908405
0.000942202
0.000978484
0.00101718
0.00105826
0.00110132
0.00114574
0.00119138
0.00123811
0.00128569
0.00133386
0.00138257
0.00143167
0.00148103
0.00153036
0.00157938
0.00162792
0.00167587
0.00172314
0.00176966
0.00181538
0.00186028
0.00190431
0.00194747
0.00198977
0.00203118
0.00207174
0.00211144
0.00215032
0.00218838
0.00222565
0.00226216
0.00229791
0.00233292
0.00236721
0.00240078
0.00243365
0.00246581
0.00249727
0.00252803
0.00255809
0.00258743
0.00261604
0.00264393
0.00267106
0.00269742
0.002723
0.00274777
0.00277171
0.00279481
0.00281703
0.00283835
0.00285874
0.00287819
0.00289668
0.00291419
0.00293073
0.0029463
0.00296095
0.00297469
0.00298754
0.00299952
0.00301064
0.00302093
0.00303043
0.00303915
0.00304714
0.00305444
0.00306108
0.00306713
0.00307267
0.00307784
0.00308283
0.00308807
0.00309341
0.00309868
0.00310391
0.00310887
0.00311336
0.00311728
0.00312129
0.00312546
0.00312848
0.00313213
0.0031339
0.00313585
0.00313677
0.00313879
0.00314081
0.00314184
0.00314473
0.00314865
0.0031503
0.00315162
0.00315359
0.00315544
0.00315598
0.00315594
0.00315679
0.00315733
0.00315751
0.00315691
0.00315555
0.00315335
0.00315019
0.00314595
0.0031405
0.00313372
0.00312549
0.00311571
0.00310425
0.00309101
0.00307593
0.00305897
0.00304011
0.00301939
0.00299683
0.00297265
0.00294662
0.00291881
0.00288936
0.00285841
0.00282604
0.00279231
0.00275754
0.00272113
0.00268236
0.00264182
0.00260018
0.0025579
0.00251531
0.00247266
0.00243012
0.00238788
0.00234613
0.00230506
0.00226471
0.00222556
0.00218752
0.00215064
0.00211532
0.00208139
0.00204878
0.00201638
0.00198497
0.00195469
0.00192519
0.00189652
0.00186866
0.00184148
0.00181483
0.0017887
0.00176262
0.0017371
0.00171055
0.00168329
0.00166025
0.00159264
1.59276e-05
0.000140618
0.000290214
0.000418096
0.000522737
0.000607087
0.000674308
0.000727515
0.000769458
0.000802604
0.000829211
0.000851337
0.000870843
0.000889348
0.000908207
0.00092848
0.000950949
0.000976133
0.00100434
0.00103572
0.00107031
0.00110806
0.00114888
0.00119263
0.00123917
0.00128828
0.00133974
0.00139322
0.00144838
0.00150494
0.0015627
0.00162144
0.00168093
0.00174085
0.00180093
0.00186093
0.0019206
0.00197984
0.00203852
0.00209654
0.00215381
0.00221024
0.00226579
0.00232041
0.00237406
0.00242674
0.00247843
0.00252912
0.00257883
0.00262757
0.00267536
0.0027222
0.00276812
0.00281314
0.00285727
0.00290054
0.00294294
0.00298451
0.00302524
0.00306514
0.00310421
0.00314246
0.00317987
0.00321644
0.00325217
0.00328702
0.003321
0.00335407
0.00338622
0.00341742
0.00344764
0.00347687
0.00350506
0.00353218
0.00355821
0.00358312
0.00360687
0.00362946
0.00365087
0.0036711
0.00369017
0.0037081
0.00372488
0.00374054
0.00375509
0.00376856
0.00378096
0.00379233
0.00380271
0.00381213
0.00382066
0.00382835
0.0038353
0.00384162
0.00384745
0.00385296
0.0038581
0.00386283
0.0038671
0.0038708
0.00387384
0.00387632
0.00387845
0.00388027
0.00388159
0.00388256
0.00388278
0.00388275
0.00388268
0.00388294
0.003883
0.00388149
0.00388133
0.0038809
0.00387962
0.00387821
0.00387672
0.00387499
0.00387262
0.0038699
0.0038672
0.00386414
0.0038606
0.00385637
0.00385137
0.00384551
0.00383865
0.00383068
0.00382145
0.00381083
0.00379869
0.00378488
0.00376929
0.00375179
0.0037323
0.00371076
0.00368714
0.00366145
0.00363374
0.00360424
0.00357255
0.00353891
0.00350347
0.00346639
0.00342777
0.00338772
0.00334638
0.00330351
0.00325887
0.00321275
0.0031656
0.0031178
0.00306967
0.00302147
0.00297338
0.0029256
0.00287831
0.0028317
0.00278586
0.00274107
0.00269738
0.00265486
0.00261374
0.00257441
0.00253713
0.00250125
0.00246689
0.00243408
0.00240196
0.00237077
0.00234055
0.00231106
0.00228218
0.00225376
0.0022255
0.0021976
0.0021692
0.0021398
0.00211445
0.00205048
1.71488e-05
0.000160738
0.000331767
0.000478064
0.000598254
0.000696158
0.000775156
0.000838777
0.000890063
0.000931699
0.000966101
0.000995458
0.00102174
0.00104669
0.00107178
0.00109819
0.00112681
0.00115827
0.00119296
0.00123107
0.00127265
0.00131765
0.00136595
0.00141736
0.00147167
0.00152863
0.00158793
0.00164929
0.00171239
0.00177693
0.00184265
0.00190928
0.00197656
0.0020442
0.00211197
0.00217963
0.00224698
0.00231388
0.0023802
0.00244581
0.00251064
0.00257459
0.00263761
0.00269965
0.00276068
0.00282067
0.00287962
0.00293751
0.00299436
0.00305016
0.00310494
0.0031587
0.00321146
0.00326325
0.00331407
0.00336395
0.00341289
0.00346092
0.00350804
0.00355426
0.00359958
0.00364399
0.0036875
0.00373009
0.00377176
0.00381248
0.00385224
0.003891
0.00392876
0.00396547
0.00400111
0.00403563
0.004069
0.00410119
0.00413215
0.00416185
0.00419024
0.0042173
0.004243
0.00426735
0.00429032
0.00431192
0.00433215
0.00435102
0.00436853
0.0043847
0.00439954
0.0044131
0.00442539
0.00443647
0.00444637
0.00445517
0.00446291
0.0044697
0.00447562
0.00448076
0.00448513
0.00448872
0.00449152
0.00449347
0.00449457
0.00449489
0.00449451
0.00449353
0.00449224
0.00449
0.00448713
0.00448416
0.00448172
0.00447835
0.00447418
0.00446954
0.00446495
0.00446002
0.00445461
0.0044489
0.00444296
0.00443674
0.00443014
0.00442323
0.00441609
0.0044086
0.00440065
0.00439213
0.00438295
0.004373
0.00436217
0.00435034
0.00433737
0.00432312
0.00430743
0.00429018
0.0042712
0.00425038
0.0042276
0.00420279
0.00417589
0.00414689
0.00411582
0.00408273
0.00404759
0.0040105
0.00397159
0.00393098
0.0038888
0.00384516
0.00380018
0.0037538
0.00370601
0.00365699
0.00360704
0.00355647
0.00350557
0.00345456
0.00340365
0.00335301
0.00330283
0.00325328
0.0032045
0.00315665
0.00310984
0.00306415
0.00301975
0.00297686
0.00293571
0.00289676
0.00286002
0.00282544
0.00279247
0.00276094
0.00273054
0.00270062
0.00267127
0.00264229
0.00261352
0.00258501
0.00255629
0.00252676
0.00250001
0.00244373
1.81518e-05
0.000178414
0.000368237
0.000530964
0.000665204
0.00077554
0.000865504
0.000938962
0.000999209
0.00104911
0.0010912
0.00112776
0.00116082
0.00119216
0.00122331
0.00125551
0.00128974
0.00132669
0.00136682
0.00141038
0.00145745
0.00150799
0.00156188
0.00161892
0.00167887
0.00174145
0.00180637
0.00187333
0.00194202
0.00201213
0.00208339
0.00215551
0.00222824
0.00230131
0.0023745
0.00244759
0.00252041
0.00259279
0.00266459
0.00273572
0.00280606
0.00287554
0.0029441
0.00301169
0.00307826
0.00314379
0.00320827
0.00327169
0.00333405
0.00339534
0.00345559
0.0035148
0.00357299
0.00363017
0.00368638
0.00374161
0.00379588
0.00384921
0.00390161
0.00395308
0.00400363
0.00405326
0.00410195
0.00414969
0.00419649
0.0042423
0.00428711
0.00433089
0.00437362
0.00441524
0.00445572
0.00449502
0.00453309
0.00456989
0.00460535
0.00463944
0.0046721
0.00470329
0.00473297
0.00476111
0.00478768
0.00481268
0.00483608
0.00485787
0.00487806
0.00489664
0.00491363
0.00492905
0.00494293
0.00495528
0.00496617
0.00497562
0.00498369
0.00499044
0.00499594
0.00500024
0.00500339
0.00500541
0.00500631
0.00500607
0.00500469
0.00500229
0.00499882
0.00499423
0.00498905
0.00498374
0.00497813
0.00497148
0.00496416
0.00495611
0.00494736
0.00493806
0.0049284
0.00491832
0.0049078
0.00489692
0.00488575
0.00487429
0.00486254
0.00485053
0.00483828
0.00482575
0.00481288
0.0047996
0.00478585
0.00477153
0.00475656
0.0047408
0.00472415
0.00470644
0.00468753
0.00466728
0.00464551
0.0046221
0.0045969
0.00456981
0.00454076
0.00450971
0.00447666
0.00444165
0.0044047
0.00436588
0.0043253
0.00428306
0.00423928
0.00419407
0.00414754
0.00409974
0.00405072
0.00400065
0.00394975
0.00389828
0.00384648
0.00379454
0.00374266
0.00369102
0.0036398
0.00358914
0.00353921
0.00349013
0.00344202
0.00339497
0.0033491
0.00330457
0.00326157
0.00322039
0.00318173
0.00314595
0.00311248
0.00308091
0.00305083
0.00302174
0.00299348
0.00296532
0.00293739
0.00290959
0.00288171
0.00285327
0.00282632
0.00277773
1.90979e-05
0.000193243
0.000399096
0.000576417
0.000723476
0.000845373
0.000945697
0.00102857
0.00109748
0.00115545
0.00120509
0.00124873
0.00128842
0.00132597
0.00136291
0.00140051
0.00143978
0.00148148
0.00152611
0.00157398
0.00162521
0.00167981
0.00173766
0.00179858
0.00186235
0.00192868
0.0019973
0.0020679
0.00214019
0.00221387
0.00228867
0.00236431
0.00244054
0.00251713
0.00259385
0.00267051
0.00274693
0.00282296
0.00289848
0.00297336
0.00304751
0.00312085
0.00319332
0.00326486
0.00333543
0.003405
0.00347356
0.00354109
0.00360758
0.00367304
0.00373748
0.00380091
0.00386334
0.00392478
0.00398527
0.00404481
0.00410341
0.0041611
0.00421788
0.00427376
0.00432873
0.00438281
0.00443597
0.00448822
0.00453952
0.00458986
0.00463921
0.00468753
0.00473478
0.00478093
0.00482591
0.00486967
0.00491217
0.00495332
0.00499308
0.00503138
0.00506814
0.00510332
0.00513686
0.00516869
0.00519878
0.0052271
0.0052536
0.00527825
0.00530105
0.00532198
0.00534104
0.00535823
0.00537356
0.00538707
0.00539876
0.00540869
0.00541687
0.00542337
0.00542823
0.00543151
0.00543326
0.00543353
0.00543233
0.00542969
0.00542555
0.00541962
0.00541241
0.00540461
0.00539641
0.00538754
0.00537721
0.00536585
0.00535357
0.00534041
0.00532644
0.00531178
0.00529654
0.00528077
0.00526451
0.00524785
0.00523085
0.00521356
0.00519604
0.00517832
0.00516045
0.00514241
0.0051242
0.0051058
0.00508718
0.00506826
0.00504898
0.00502923
0.00500891
0.00498786
0.00496596
0.00494304
0.00491893
0.00489347
0.00486649
0.00483789
0.00480755
0.00477541
0.00474146
0.00470571
0.00466819
0.00462895
0.00458807
0.00454564
0.00450174
0.00445648
0.00440996
0.00436227
0.0043135
0.00426379
0.00421334
0.00416235
0.00411102
0.00405954
0.00400808
0.00395681
0.0039059
0.00385549
0.00380574
0.00375678
0.00370872
0.00366164
0.00361564
0.00357086
0.00352747
0.00348567
0.00344596
0.00340957
0.00337606
0.0033448
0.00331531
0.00328714
0.00326001
0.00323349
0.00320736
0.00318115
0.00315485
0.00312814
0.00310195
0.00306005
2.0203e-05
0.000203154
0.000422644
0.000613381
0.000772414
0.000905196
0.00101537
0.00110724
0.0011845
0.00125025
0.00130719
0.00135769
0.00140379
0.00144727
0.00148967
0.00153225
0.00157604
0.00162182
0.00167014
0.00172135
0.00177564
0.00183304
0.00189348
0.00195683
0.00202287
0.00209136
0.00216203
0.0022346
0.00230879
0.00238434
0.00246097
0.00253843
0.00261648
0.00269491
0.00277351
0.0028521
0.00293052
0.00300861
0.00308626
0.00316336
0.00323981
0.00331552
0.00339045
0.00346452
0.00353771
0.00360997
0.00368129
0.00375166
0.00382105
0.00388949
0.00395696
0.00402349
0.00408909
0.00415377
0.00421756
0.00428047
0.00434252
0.00440372
0.00446408
0.00452362
0.00458233
0.00464022
0.00469727
0.00475347
0.0048088
0.00486322
0.00491672
0.00496924
0.00502074
0.00507116
0.00512044
0.00516852
0.00521532
0.00526076
0.00530478
0.00534728
0.00538818
0.0054274
0.00546486
0.00550049
0.00553422
0.00556599
0.00559573
0.00562341
0.00564897
0.0056724
0.00569367
0.00571276
0.00572969
0.00574444
0.00575705
0.00576752
0.00577588
0.00578218
0.00578645
0.00578876
0.00578916
0.00578772
0.00578448
0.00577932
0.00577202
0.00576297
0.00575281
0.00574184
0.00572985
0.00571625
0.00570123
0.00568494
0.00566747
0.00564894
0.00562942
0.00560904
0.00558789
0.00556608
0.00554369
0.00552083
0.00549759
0.00547406
0.00545034
0.00542649
0.00540258
0.00537867
0.00535479
0.00533096
0.00530719
0.00528345
0.0052597
0.00523586
0.00521184
0.00518751
0.00516274
0.00513737
0.00511123
0.00508411
0.00505585
0.00502631
0.00499534
0.00496287
0.00492885
0.00489326
0.00485613
0.00481749
0.00477739
0.00473587
0.004693
0.00464886
0.00460355
0.00455714
0.00450975
0.00446151
0.00441257
0.00436313
0.00431336
0.0042634
0.00421341
0.00416356
0.00411399
0.00406485
0.00401632
0.00396851
0.00392152
0.00387542
0.00383032
0.00378633
0.00374362
0.00370237
0.00366298
0.00362671
0.0035937
0.00356312
0.00353447
0.00350733
0.0034814
0.00345635
0.00343196
0.00340792
0.00338371
0.00335905
0.00333423
0.00329799
2.10711e-05
0.000209664
0.000440066
0.000642338
0.000812026
0.000954666
0.00107409
0.00117442
0.00125954
0.00133265
0.00139652
0.00145351
0.00150565
0.0015547
0.00160215
0.00164927
0.00169706
0.00174632
0.00179763
0.00185137
0.00190778
0.00196694
0.00202884
0.00209338
0.00216039
0.00222966
0.00230097
0.00237406
0.00244869
0.00252459
0.00260155
0.00267932
0.00275769
0.00283645
0.00291543
0.00299446
0.00307338
0.00315207
0.00323041
0.00330828
0.00338561
0.00346232
0.00353833
0.0036136
0.00368809
0.00376177
0.0038346
0.00390657
0.00397769
0.00404794
0.00411733
0.00418589
0.00425361
0.00432054
0.00438668
0.00445206
0.0045167
0.00458061
0.00464381
0.00470631
0.00476812
0.00482922
0.00488962
0.00494929
0.00500822
0.00506638
0.00512372
0.00518019
0.00523574
0.00529031
0.00534381
0.00539618
0.00544731
0.00549712
0.00554551
0.00559238
0.00563761
0.00568111
0.00572277
0.00576249
0.00580017
0.00583572
0.00586907
0.00590012
0.00592883
0.00595513
0.00597899
0.00600036
0.00601923
0.00603559
0.00604944
0.00606078
0.00606963
0.00607602
0.00608
0.00608162
0.00608094
0.00607802
0.00607294
0.00606532
0.00605554
0.0060438
0.00603079
0.00601634
0.00600007
0.00598207
0.0059624
0.00594119
0.00591855
0.0058946
0.00586943
0.0058432
0.00581601
0.00578799
0.00575928
0.00573
0.00570028
0.00567026
0.00564005
0.00560979
0.00557957
0.00554951
0.00551968
0.00549016
0.005461
0.00543222
0.00540382
0.00537576
0.00534797
0.00532033
0.00529274
0.00526504
0.00523709
0.00520861
0.00517943
0.00514938
0.00511831
0.00508609
0.00505264
0.00501791
0.00498193
0.0049447
0.00490621
0.00486649
0.00482556
0.00478347
0.00474029
0.0046961
0.00465099
0.00460509
0.00455854
0.00451151
0.00446414
0.00441655
0.00436888
0.00432128
0.00427388
0.00422682
0.00418031
0.00413447
0.00408937
0.00404507
0.00400166
0.00395928
0.00391809
0.00387829
0.00384023
0.00380512
0.00377318
0.00374367
0.00371612
0.00369014
0.00366546
0.00364182
0.00361901
0.00359682
0.00357488
0.00355239
0.00352925
0.00349775
2.1778e-05
0.000213909
0.000452465
0.000664083
0.000842963
0.000994137
0.00112166
0.00122959
0.00132184
0.00140169
0.0014719
0.00153483
0.00159249
0.0016466
0.00169861
0.00174974
0.00180098
0.00185313
0.00190676
0.00196231
0.00202003
0.00208007
0.00214245
0.00220713
0.00227398
0.00234285
0.00241355
0.00248586
0.00255959
0.0026345
0.0027104
0.00278708
0.00286435
0.00294203
0.00301997
0.00309801
0.00317602
0.00325389
0.0033315
0.00340877
0.0034856
0.00356193
0.00363769
0.00371283
0.00378732
0.00386112
0.0039342
0.00400657
0.0040782
0.00414911
0.00421929
0.00428878
0.00435758
0.00442573
0.00449326
0.0045602
0.00462657
0.00469239
0.00475768
0.00482244
0.0048867
0.00495045
0.00501368
0.00507639
0.00513855
0.00520012
0.00526106
0.00532131
0.00538081
0.00543949
0.00549724
0.00555399
0.00560961
0.005664
0.00571704
0.00576859
0.00581853
0.00586672
0.00591302
0.00595732
0.00599947
0.00603935
0.00607686
0.00611188
0.00614432
0.0061741
0.00620114
0.00622538
0.0062468
0.00626534
0.00628101
0.00629377
0.00630365
0.00631067
0.00631486
0.00631627
0.00631497
0.00631103
0.00630441
0.00629503
0.00628325
0.00626923
0.00625334
0.00623544
0.00621542
0.00619333
0.00616928
0.00614338
0.00611575
0.00608651
0.00605582
0.00602381
0.00599064
0.00595644
0.00592139
0.00588564
0.00584937
0.00581274
0.00577593
0.0057391
0.0057024
0.00566599
0.00563002
0.0055946
0.00555985
0.00552584
0.00549262
0.0054602
0.00542853
0.00539753
0.00536709
0.00533712
0.00530754
0.00527789
0.00524805
0.00521784
0.00518707
0.00515557
0.0051232
0.00508986
0.0050556
0.00502042
0.00498424
0.00494702
0.00490875
0.00486945
0.00482916
0.00478792
0.00474584
0.00470301
0.00465956
0.00461563
0.00457139
0.00452688
0.00448222
0.00443755
0.004393
0.00434868
0.00430487
0.00426169
0.00421916
0.00417732
0.00413627
0.00409616
0.0040572
0.00401959
0.00398371
0.00395064
0.00392033
0.00389225
0.00386603
0.00384136
0.00381799
0.00379573
0.0037744
0.00375383
0.00373375
0.00371336
0.00369198
0.00366447
2.23344e-05
0.000216204
0.000460306
0.000678969
0.00086519
0.00102339
0.00115772
0.00127213
0.00137056
0.00145626
0.001532
0.00160011
0.00166256
0.00172103
0.00177692
0.00183141
0.00188545
0.00193982
0.0019951
0.00205172
0.00210999
0.00217007
0.00223204
0.0022959
0.00236157
0.00242895
0.00249789
0.00256823
0.0026398
0.00271242
0.00278594
0.00286018
0.002935
0.00301022
0.0030857
0.00316134
0.00323703
0.00331267
0.00338815
0.0034634
0.00353834
0.0036129
0.00368704
0.0037607
0.00383385
0.00390646
0.00397851
0.00405
0.00412092
0.00419128
0.00426109
0.00433036
0.00439913
0.00446745
0.00453539
0.00460296
0.00467018
0.00473709
0.00480369
0.00487002
0.0049361
0.00500193
0.00506752
0.00513284
0.00519789
0.00526261
0.00532698