/*--------------------------------*- C++ -*----------------------------------*\
| =========                 |                                                 |
| \\      /  F ield         | OpenFOAM: The Open Source CFD Toolbox           |
|  \\    /   O peration     | Version:  4.1                                   |
|   \\  /    A nd           | Web:      www.OpenFOAM.org                      |
|    \\/     M anipulation  |                                                 |
\*---------------------------------------------------------------------------*/
FoamFile
{
    version     2.0;
    format      ascii;
    class       volScalarField;
    location    "100";
    object      p;
}
// * * * * * * * * * * * * * * * * * * * * * * * * * * * * * * * * * * * * * //

dimensions      [0 2 -2 0 0 0 0];

internalField   nonuniform List<scalar> 
12225
(
-2.64975
-4.88267
-5.99717
-6.30773
-6.48399
-6.66518
-6.81603
-6.93064
-7.02582
-7.11293
-7.19521
-7.27407
-7.35126
-7.42887
-7.50996
-7.59501
-7.70029
-7.77619
-5.83787
-6.66898
-6.87328
-6.77505
-6.74789
-6.81473
-6.90129
-6.97954
-7.05341
-7.12736
-7.20127
-7.27459
-7.34796
-7.42264
-7.50083
-7.58462
-7.68004
-7.80227
-6.23473
-6.16138
-6.27501
-6.36643
-6.4831
-6.63345
-6.77493
-6.89139
-6.99091
-7.08187
-7.16725
-7.24837
-7.32687
-7.4046
-7.484
-7.56681
-7.65842
-7.7555
-6.10752
-6.00978
-6.27511
-6.48165
-6.6119
-6.7364
-6.85292
-6.95059
-7.03512
-7.11398
-7.18989
-7.26353
-7.33587
-7.40818
-7.48202
-7.55829
-7.6379
-7.71356
-6.103
-6.11639
-6.3663
-6.53947
-6.63469
-6.73317
-6.83745
-6.9314
-7.01526
-7.09446
-7.17108
-7.24539
-7.31796
-7.38977
-7.46177
-7.53407
-7.60568
-7.67148
-6.17112
-6.21749
-6.39968
-6.5432
-6.63622
-6.73363
-6.83685
-6.93101
-7.01513
-7.09391
-7.16957
-7.24246
-7.31313
-7.38233
-7.45056
-7.51741
-7.58151
-7.63907
-6.24162
-6.28399
-6.42018
-6.55176
-6.64937
-6.74455
-6.84224
-6.9326
-7.01427
-7.09086
-7.1643
-7.23495
-7.30317
-7.3694
-7.43376
-7.49556
-7.55341
-7.60443
-6.29574
-6.33248
-6.44545
-6.56671
-6.6627
-6.7532
-6.84521
-6.93201
-7.01162
-7.08647
-7.15815
-7.22697
-7.29314
-7.35687
-7.41806
-7.47601
-7.52949
-7.57634
-6.34102
-6.3747
-6.47123
-6.58128
-6.67367
-6.76018
-6.84763
-6.93135
-7.009
-7.08214
-7.15207
-7.2191
-7.28327
-7.34465
-7.40305
-7.45779
-7.50786
-7.55164
-6.38815
-6.41893
-6.50012
-6.59787
-6.68559
-6.76804
-6.85076
-6.93088
-7.00607
-7.07705
-7.14485
-7.2097
-7.27157
-7.33036
-7.38582
-7.43736
-7.48425
-7.52527
-6.43635
-6.4637
-6.5314
-6.61703
-6.69898
-6.7769
-6.85458
-6.93055
-7.00274
-7.07114
-7.1364
-7.19872
-7.25798
-7.31399
-7.36642
-7.41484
-7.45875
-7.49738
-6.4844
-6.50809
-6.56439
-6.63856
-6.71369
-6.78649
-6.85892
-6.93035
-6.99904
-7.06443
-7.12676
-7.18619
-7.24258
-7.29566
-7.34508
-7.39052
-7.43173
-7.4682
-6.53094
-6.55109
-6.59791
-6.66159
-6.72925
-6.79644
-6.86354
-6.93015
-6.99488
-7.05684
-7.11594
-7.17219
-7.22551
-7.27557
-7.32208
-7.36474
-7.40348
-7.43807
-6.57434
-6.5913
-6.63034
-6.68475
-6.74487
-6.80617
-6.86793
-6.92958
-6.98998
-7.04824
-7.10389
-7.15683
-7.20693
-7.25401
-7.29771
-7.33786
-7.37438
-7.4073
-6.61256
-6.62683
-6.65961
-6.70617
-6.75922
-6.81468
-6.87121
-6.92796
-6.98397
-7.03836
-7.09053
-7.14015
-7.18708
-7.23121
-7.27234
-7.31023
-7.34485
-7.37624
-6.643
-6.65514
-6.68307
-6.72335
-6.7703
-6.8204
-6.87209
-6.92433
-6.97617
-7.02684
-7.07566
-7.12215
-7.16614
-7.20757
-7.24636
-7.28229
-7.31529
-7.3454
-6.66217
-6.67277
-6.69726
-6.73297
-6.77524
-6.82103
-6.86874
-6.91724
-6.96558
-7.01301
-7.0589
-7.10272
-7.14423
-7.18341
-7.22024
-7.25453
-7.2862
-7.31529
-6.66501
-6.67481
-6.69756
-6.7309
-6.77069
-6.81402
-6.8594
-6.90562
-6.95181
-6.99714
-7.04112
-7.08313
-7.12306
-7.16075
-7.19631
-7.22946
-7.26027
-7.28867
-6.65175
-6.66148
-6.68411
-6.71737
-6.75703
-6.80013
-6.84503
-6.89075
-6.93633
-6.9811
-7.02433
-7.06572
-7.10492
-7.14207
-7.17698
-7.20972
-7.24002
-7.26826
-6.62732
-6.63744
-6.66112
-6.69611
-6.73765
-6.78217
-6.82808
-6.87457
-6.92086
-6.96604
-7.0096
-7.05108
-7.09044
-7.12756
-7.1625
-7.19507
-7.22538
-7.25353
-6.59511
-6.60574
-6.63138
-6.66986
-6.71487
-6.7619
-6.80982
-6.8582
-6.90605
-6.95241
-6.99677
-7.03894
-7.07886
-7.11645
-7.15167
-7.18449
-7.21496
-7.24338
-6.55766
-6.56823
-6.59662
-6.64092
-6.69082
-6.74072
-6.79107
-6.84208
-6.89225
-6.94034
-6.98594
-7.02915
-7.06987
-7.10814
-7.14377
-7.17697
-7.20764
-7.23632
-6.51726
-6.52604
-6.55758
-6.61055
-6.66692
-6.72008
-6.77322
-6.8271
-6.87966
-6.92957
-6.97672
-7.02121
-7.06304
-7.10209
-7.13843
-7.17209
-7.20334
-7.23244
-6.47571
-6.48048
-6.51688
-6.57981
-6.64164
-6.69872
-6.75664
-6.81451
-6.86948
-6.92094
-6.9694
-7.01499
-7.05761
-7.0972
-7.13386
-7.16781
-7.19921
-7.22843
-6.43287
-6.42735
-6.48209
-6.55799
-6.61758
-6.67417
-6.73724
-6.80062
-6.85926
-6.91342
-6.96425
-7.01187
-7.05603
-7.09674
-7.13419
-7.16873
-7.20065
-7.23056
-6.39509
-6.3401
-6.44032
-6.55202
-6.6115
-6.66183
-6.72303
-6.78598
-6.84415
-6.89826
-6.9496
-6.99801
-7.04304
-7.08462
-7.1229
-7.15826
-7.19094
-7.22122
-6.4156
-6.2191
-6.33295
-6.49491
-6.59187
-6.66702
-6.74194
-6.81062
-6.87075
-6.92523
-6.97599
-7.0231
-7.06638
-7.10599
-7.14215
-7.17542
-7.20634
-7.23603
-6.55385
-6.30313
-6.27264
-6.32219
-6.39696
-6.49588
-6.59867
-6.68978
-6.76933
-6.8413
-6.9072
-6.96695
-7.02074
-7.06895
-7.11207
-7.15089
-7.1863
-7.2197
-6.30964
-6.88053
-6.98983
-6.85914
-6.7732
-6.77578
-6.81205
-6.85153
-6.89212
-6.93563
-6.9804
-7.02417
-7.06574
-7.10449
-7.1401
-7.17265
-7.20268
-7.2319
-3.33994
-4.98423
-5.95762
-6.24017
-6.36665
-6.50579
-6.63222
-6.73001
-6.80952
-6.88
-6.9437
-7.00074
-7.0516
-7.09688
-7.137
-7.17225
-7.20297
-7.22803
-8.36621
-8.3653
-8.36446
-8.3655
-8.36842
-8.37251
-8.37735
-8.38246
-8.38745
-8.39213
-8.39666
-8.40126
-8.40625
-8.41175
-8.41785
-8.42464
-8.43237
-8.44117
-8.45125
-8.46273
-8.47585
-8.49074
-8.50764
-8.52663
-8.54792
-8.57155
-8.59767
-8.62622
-8.65724
-8.69053
-8.72602
-8.76338
-8.80242
-8.84269
-8.88394
-8.92567
-8.9676
-9.00923
-9.05033
-9.09042
-9.12934
-9.16669
-9.20238
-9.23609
-9.2678
-9.29723
-9.32442
-9.34915
-9.37149
-9.39127
-9.40857
-9.42325
-9.43542
-9.44495
-9.45196
-9.45634
-9.4582
-9.45745
-9.4542
-9.44838
-9.44008
-9.42927
-9.41605
-9.40041
-9.38246
-9.3622
-9.33974
-9.31511
-9.2884
-9.25966
-9.229
-9.19647
-9.16218
-9.12621
-9.08861
-9.0495
-9.0089
-8.96697
-8.92368
-8.8792
-8.83346
-8.78659
-8.73839
-8.68891
-8.63793
-8.58559
-8.53155
-8.47572
-8.41745
-8.35632
-8.29228
-8.2249
-8.15379
-8.07846
-7.99846
-7.91323
-7.82203
-7.72413
-7.61866
-7.50479
-7.38148
-7.24786
-7.10282
-6.94518
-6.77358
-6.58698
-6.38404
-6.16396
-5.92575
-5.66875
-5.39189
-5.09443
-4.77558
-4.43487
-4.07156
-3.68552
-3.27644
-2.84439
-2.38927
-1.91158
-1.41179
-0.890877
-0.349893
0.209649
0.786162
1.37766
1.98203
2.59682
3.21941
3.84696
4.47649
5.10498
5.7294
6.34675
6.9541
7.54863
8.12766
8.68883
9.23002
9.74936
10.2453
10.7166
11.1625
11.5826
11.977
12.3461
12.6905
13.0114
13.3097
13.5857
13.84
14.0734
14.2868
14.4815
14.6586
14.8194
14.9651
15.0967
15.2154
15.3224
15.4185
15.5048
15.5821
15.6513
15.7131
15.7683
15.8175
15.8615
15.9009
15.9363
15.9684
15.9979
16.0257
16.053
16.0816
16.114
16.1565
16.2164
16.321
16.4587
-8.36918
-8.36772
-8.36711
-8.36955
-8.37322
-8.37668
-8.37965
-8.38218
-8.38431
-8.38606
-8.38761
-8.38916
-8.39096
-8.39327
-8.39642
-8.40057
-8.40576
-8.41202
-8.41949
-8.42832
-8.43876
-8.451
-8.46533
-8.48189
-8.50097
-8.52264
-8.54705
-8.57423
-8.6042
-8.63681
-8.67194
-8.70926
-8.74851
-8.78926
-8.83113
-8.87364
-8.91638
-8.95888
-9.00079
-9.04168
-9.08131
-9.11934
-9.15562
-9.18988
-9.22204
-9.25191
-9.27947
-9.30458
-9.32723
-9.34734
-9.36491
-9.3799
-9.39232
-9.40212
-9.40934
-9.41395
-9.41599
-9.41543
-9.41231
-9.40661
-9.39838
-9.38763
-9.37441
-9.35875
-9.34071
-9.32033
-9.29768
-9.27282
-9.24583
-9.21678
-9.18575
-9.15283
-9.11811
-9.08168
-9.0436
-9.004
-8.96291
-8.92047
-8.8767
-8.83172
-8.78555
-8.73826
-8.6898
-8.64018
-8.58928
-8.53712
-8.48353
-8.42833
-8.37098
-8.3113
-8.24902
-8.18376
-8.11508
-8.04238
-7.96518
-7.88272
-7.79448
-7.69959
-7.59731
-7.48668
-7.36691
-7.23675
-7.09507
-6.94084
-6.77317
-6.59088
-6.39307
-6.17855
-5.94643
-5.69561
-5.42528
-5.13459
-4.82275
-4.48914
-4.13333
-3.75488
-3.35352
-2.92912
-2.48182
-2.01185
-1.51977
-1.00638
-0.472759
0.0797824
0.649679
1.23509
1.83393
2.44386
3.06233
3.68655
4.3136
4.94049
5.56418
6.18165
6.78997
7.38621
7.9677
8.53193
9.07674
9.60019
10.1006
10.5768
11.0278
11.4532
11.8529
12.2272
12.5765
12.9015
13.2035
13.4833
13.7416
13.9791
14.1968
14.3958
14.5773
14.7423
14.8921
15.0278
15.1505
15.2612
15.3609
15.4506
15.5312
15.6035
15.6682
15.7262
15.7781
15.8245
15.8663
15.9039
15.9381
15.9696
15.9994
16.0287
16.0591
16.0932
16.136
16.1922
16.286
16.4005
-8.3664
-8.36555
-8.36545
-8.36793
-8.3712
-8.37365
-8.37497
-8.37534
-8.37496
-8.37399
-8.37271
-8.37144
-8.37056
-8.37034
-8.371
-8.37261
-8.37529
-8.37917
-8.38448
-8.39143
-8.40034
-8.41144
-8.42498
-8.44114
-8.46012
-8.48202
-8.50694
-8.53477
-8.56543
-8.59865
-8.6342
-8.6717
-8.71082
-8.75113
-8.79226
-8.83381
-8.87542
-8.91672
-8.95739
-8.9971
-9.03561
-9.07264
-9.10803
-9.14156
-9.17311
-9.20251
-9.2297
-9.25456
-9.27704
-9.29707
-9.31461
-9.32963
-9.34211
-9.35202
-9.35936
-9.3641
-9.36627
-9.36585
-9.36285
-9.35726
-9.34913
-9.33845
-9.32528
-9.30963
-9.29156
-9.27112
-9.24837
-9.22337
-9.19619
-9.16692
-9.13564
-9.10244
-9.06741
-9.03067
-8.99229
-8.95237
-8.911
-8.86827
-8.82427
-8.77906
-8.73271
-8.68527
-8.63676
-8.5872
-8.53652
-8.48471
-8.4317
-8.37723
-8.32098
-8.26268
-8.2022
-8.13912
-8.07295
-8.00318
-7.92928
-7.8505
-7.76623
-7.67559
-7.57786
-7.47202
-7.35725
-7.23229
-7.09615
-6.94769
-6.78607
-6.61007
-6.41894
-6.21147
-5.98675
-5.74355
-5.48109
-5.19844
-4.89497
-4.56983
-4.22271
-3.85307
-3.46067
-3.0452
-2.60686
-2.14586
-1.66276
-1.15825
-0.633364
-0.0892723
0.472509
1.05026
1.64194
2.24534
2.85795
3.47709
4.0999
4.7234
5.34461
5.96051
6.56814
7.16456
7.74707
8.31312
8.86053
9.38729
9.89181
10.3728
10.8294
11.2612
11.668
12.0498
12.4071
12.7405
13.0509
13.3389
13.6052
13.8504
14.0757
14.2819
14.4703
14.642
14.7981
14.9397
15.068
15.184
15.2887
15.3831
15.468
15.5444
15.6129
15.6744
15.7297
15.7792
15.8239
15.8642
15.901
15.935
15.967
15.9983
16.0306
16.066
16.1088
16.1614
16.2416
16.321
-8.35617
-8.35796
-8.36007
-8.36325
-8.36639
-8.36845
-8.36926
-8.36904
-8.36801
-8.36635
-8.36432
-8.36219
-8.36028
-8.35886
-8.35822
-8.35858
-8.36021
-8.36332
-8.36818
-8.37499
-8.384
-8.39538
-8.40933
-8.42594
-8.44534
-8.46753
-8.49253
-8.52024
-8.55058
-8.58329
-8.61816
-8.65484
-8.69302
-8.73233
-8.77242
-8.81291
-8.85346
-8.89369
-8.93332
-8.97202
-9.00955
-9.04567
-9.08019
-9.11291
-9.14371
-9.17243
-9.199
-9.22329
-9.24527
-9.26484
-9.28199
-9.29664
-9.3088
-9.31841
-9.32547
-9.32997
-9.33189
-9.33124
-9.328
-9.3222
-9.31383
-9.30292
-9.28949
-9.27358
-9.25524
-9.2345
-9.21143
-9.18609
-9.15857
-9.12894
-9.09729
-9.06374
-9.02837
-8.9913
-8.95263
-8.91247
-8.87092
-8.82808
-8.78404
-8.73888
-8.69266
-8.64545
-8.59726
-8.54814
-8.49804
-8.44694
-8.39478
-8.34134
-8.28628
-8.22953
-8.17077
-8.10967
-8.04576
-7.97857
-7.90749
-7.8319
-7.75101
-7.66413
-7.57035
-7.46882
-7.35849
-7.23832
-7.10716
-6.96401
-6.80781
-6.63755
-6.45225
-6.2509
-6.03239
-5.79563
-5.53965
-5.26368
-4.96695
-4.64871
-4.30847
-3.94578
-3.56026
-3.15168
-2.72013
-2.26587
-1.78943
-1.29149
-0.773001
-0.235095
0.320784
0.892962
1.47948
2.07815
2.68654
3.30201
3.92174
4.5428
5.16221
5.77693
6.38399
6.98046
7.56361
8.1309
8.68014
9.20933
9.71694
10.2017
10.6629
11.0998
11.5123
11.9003
12.2641
12.6042
12.9212
13.2156
13.4882
13.7397
13.971
14.1831
14.3772
14.5543
14.7156
14.8623
14.9953
15.1157
15.2246
15.3229
15.4116
15.4914
15.5631
15.6277
15.6857
15.7379
15.785
15.8276
15.8665
15.9024
15.9361
15.9689
16.0021
16.0377
16.0788
16.126
16.1908
16.2393
-8.33775
-8.34248
-8.34842
-8.35394
-8.35826
-8.36104
-8.36232
-8.36238
-8.36151
-8.35992
-8.35791
-8.35575
-8.35377
-8.35226
-8.35156
-8.35195
-8.35373
-8.35713
-8.36241
-8.36977
-8.37943
-8.39151
-8.4062
-8.42358
-8.44372
-8.46659
-8.49218
-8.52032
-8.55088
-8.58359
-8.61823
-8.65446
-8.69201
-8.7305
-8.76962
-8.80901
-8.84837
-8.88735
-8.92571
-8.96315
-8.99945
-9.03437
-9.06775
-9.0994
-9.12919
-9.15697
-9.18267
-9.20616
-9.22738
-9.24626
-9.26276
-9.27681
-9.28839
-9.29745
-9.30399
-9.30797
-9.30938
-9.30822
-9.30448
-9.29815
-9.28926
-9.27781
-9.26384
-9.24736
-9.22843
-9.2071
-9.18342
-9.15747
-9.12933
-9.09908
-9.06684
-9.03271
-8.9968
-8.95924
-8.92014
-8.87964
-8.83784
-8.79487
-8.75083
-8.7058
-8.65988
-8.61311
-8.56555
-8.51721
-8.46809
-8.41815
-8.36733
-8.31541
-8.26218
-8.20733
-8.15084
-8.09219
-8.03096
-7.9667
-7.89876
-7.82657
-7.74929
-7.66631
-7.57661
-7.47946
-7.37364
-7.25829
-7.13208
-6.99417
-6.84322
-6.67843
-6.49855
-6.30277
-6.08974
-5.85867
-5.60832
-5.33805
-5.04687
-4.73427
-4.39947
-4.04217
-3.6618
-3.25832
-2.83161
-2.38208
-1.91007
-1.41639
-0.901826
-0.367598
0.184971
0.754171
1.33812
1.93463
2.54131
3.1555
3.7744
4.3951
5.01456
5.62978
6.2377
6.83545
7.4202
7.9895
8.54109
9.0731
9.58388
10.0723
10.5373
10.9785
11.3953
11.7879
12.1564
12.5011
12.8227
13.1217
13.3987
13.6545
13.8901
14.1064
14.3046
14.4857
14.6508
14.8011
14.9377
15.0615
15.1736
15.275
15.3664
15.4489
15.5231
15.5899
15.65
15.7042
15.7531
15.7974
15.8378
15.8749
15.9097
15.943
15.9763
16.0108
16.0488
16.0894
16.1401
16.164
-8.31351
-8.32114
-8.33204
-8.34077
-8.34699
-8.35118
-8.35361
-8.3546
-8.35452
-8.35365
-8.35229
-8.35074
-8.34936
-8.34846
-8.34841
-8.3495
-8.35206
-8.35634
-8.3626
-8.37102
-8.3818
-8.39504
-8.41088
-8.42934
-8.45048
-8.4742
-8.50046
-8.52908
-8.55989
-8.59261
-8.62702
-8.66279
-8.69967
-8.7373
-8.77543
-8.8137
-8.85187
-8.88961
-8.92671
-8.96289
-8.99795
-9.03166
-9.06388
-9.09441
-9.12315
-9.14993
-9.17468
-9.19728
-9.21767
-9.23575
-9.25149
-9.26481
-9.27568
-9.28405
-9.28991
-9.2932
-9.29394
-9.29208
-9.28763
-9.28058
-9.27094
-9.25872
-9.24396
-9.22667
-9.20691
-9.18473
-9.16019
-9.13337
-9.10436
-9.07326
-9.04019
-9.00527
-8.96862
-8.93038
-8.89069
-8.8497
-8.80754
-8.76435
-8.72024
-8.67533
-8.62971
-8.58347
-8.53665
-8.48928
-8.44137
-8.39288
-8.34375
-8.2938
-8.24269
-8.19044
-8.13665
-8.081
-8.02304
-7.96222
-7.89801
-7.82968
-7.75658
-7.67786
-7.59276
-7.50025
-7.39941
-7.28907
-7.16817
-7.03553
-6.89008
-6.73068
-6.55633
-6.3659
-6.15836
-5.93266
-5.68777
-5.42272
-5.13672
-4.82908
-4.49914
-4.1464
-3.77046
-3.37111
-2.94834
-2.5024
-2.03372
-1.54297
-1.031
-0.498958
0.051814
0.619653
1.20267
1.79869
2.4053
3.01985
3.63953
4.26139
4.88239
5.49947
6.10956
6.70976
7.29727
7.86962
8.42454
8.96011
9.47466
9.96696
10.436
10.8812
11.302
11.6986
12.071
12.4195
12.7448
13.0473
13.3277
13.5868
13.8257
14.0452
14.2465
14.4306
14.5987
14.7518
14.8911
15.0176
15.1323
15.236
15.3298
15.4144
15.4906
15.5592
15.621
15.6767
15.727
15.7724
15.8138
15.8517
15.887
15.9203
15.9529
15.9855
16.0196
16.0532
16.0915
16.0958
-8.28716
-8.29749
-8.31353
-8.32565
-8.33402
-8.34
-8.344
-8.34635
-8.34749
-8.34777
-8.34755
-8.34712
-8.34688
-8.34713
-8.34826
-8.35057
-8.35438
-8.35994
-8.36751
-8.37726
-8.38937
-8.40391
-8.42098
-8.44056
-8.46265
-8.48715
-8.51398
-8.54293
-8.57385
-8.60648
-8.64059
-8.67588
-8.71211
-8.74895
-8.78617
-8.82344
-8.86053
-8.89716
-8.93311
-8.96812
-9.00202
-9.0346
-9.06571
-9.09516
-9.12286
-9.14865
-9.17245
-9.19413
-9.21364
-9.23087
-9.24579
-9.2583
-9.26838
-9.27596
-9.28102
-9.28351
-9.28341
-9.28071
-9.27538
-9.26743
-9.25685
-9.24366
-9.22789
-9.20957
-9.18875
-9.16549
-9.13985
-9.11193
-9.08183
-9.04966
-9.01555
-8.97963
-8.94206
-8.90298
-8.86256
-8.82096
-8.77833
-8.73483
-8.6906
-8.64578
-8.60047
-8.55478
-8.50876
-8.46248
-8.41592
-8.36907
-8.32187
-8.27411
-8.22561
-8.17611
-8.12551
-8.07329
-8.01902
-7.96211
-7.90207
-7.83808
-7.76959
-7.69561
-7.61547
-7.52802
-7.43246
-7.32745
-7.21206
-7.08486
-6.94496
-6.79103
-6.62225
-6.43721
-6.23512
-6.01464
-5.77497
-5.51488
-5.23377
-4.93067
-4.60517
-4.25649
-3.88444
-3.48861
-3.06915
-2.6261
-2.15999
-1.67135
-1.16111
-0.630318
-0.0803887
0.487097
1.0702
1.66675
2.27432
2.89024
3.51167
4.13564
4.75909
5.37889
5.99202
6.59548
7.18656
7.76266
8.32154
8.86112
9.37981
9.8762
10.3493
10.7985
11.2233
11.6237
11.9996
12.3516
12.6801
12.9856
13.2689
13.5309
13.7724
13.9945
14.1983
14.3849
14.5554
14.7109
14.8524
14.981
15.0977
15.2035
15.2991
15.3855
15.4635
15.5337
15.5969
15.6538
15.7051
15.7515
15.7935
15.8319
15.8672
15.9001
15.9314
15.9616
15.9915
16.0181
16.0456
16.0342
-8.26234
-8.27482
-8.29541
-8.31057
-8.321
-8.32882
-8.33453
-8.33841
-8.34099
-8.34266
-8.34381
-8.34478
-8.34595
-8.34764
-8.35021
-8.35397
-8.35924
-8.36623
-8.37522
-8.38633
-8.39974
-8.4155
-8.43368
-8.45423
-8.47715
-8.5023
-8.52959
-8.5588
-8.58979
-8.6223
-8.65611
-8.69094
-8.72657
-8.7627
-8.79909
-8.83545
-8.87158
-8.90719
-8.9421
-8.97607
-9.00893
-9.04048
-9.07058
-9.09905
-9.12579
-9.15066
-9.17356
-9.19437
-9.21302
-9.22942
-9.24351
-9.2552
-9.26445
-9.27119
-9.27538
-9.27698
-9.27597
-9.2723
-9.26597
-9.25697
-9.24529
-9.23096
-9.21399
-9.19443
-9.17234
-9.14777
-9.12082
-9.09158
-9.06017
-9.02671
-8.99135
-8.95426
-8.91559
-8.87552
-8.83423
-8.79191
-8.74873
-8.70488
-8.66051
-8.61578
-8.57082
-8.52575
-8.48065
-8.43557
-8.39054
-8.34552
-8.30048
-8.25523
-8.20949
-8.16324
-8.1161
-8.06769
-8.01744
-7.96489
-7.90935
-7.85021
-7.78664
-7.71791
-7.64304
-7.56114
-7.47106
-7.37174
-7.2619
-7.14038
-7.00604
-6.85782
-6.69454
-6.51506
-6.31823
-6.10297
-5.86822
-5.61296
-5.33634
-5.03758
-4.71601
-4.37106
-4.00235
-3.6096
-3.1928
-2.75207
-2.28782
-1.80063
-1.29137
-0.761098
-0.211213
0.356681
0.940651
1.5385
2.14777
2.76578
3.38966
4.01642
4.64297
5.26615
5.88294
6.4903
7.08545
7.66575
8.22888
8.77274
9.29568
9.79626
10.2735
10.7266
11.1551
11.559
11.9384
12.2935
12.6249
12.9331
13.219
13.4834
13.7272
13.9516
14.1575
14.3462
14.5186
14.676
14.8194
14.9498
15.0682
15.1756
15.2729
15.3608
15.4402
15.5118
15.5762
15.6343
15.6865
15.7336
15.7761
15.8146
15.8496
15.8818
15.9115
15.939
15.9645
15.9845
16.0027
15.9786
-8.24167
-8.25565
-8.27972
-8.29729
-8.30943
-8.31888
-8.32617
-8.33154
-8.33555
-8.33863
-8.34122
-8.34365
-8.3463
-8.34948
-8.35356
-8.3588
-8.36551
-8.37391
-8.38423
-8.39661
-8.41118
-8.42798
-8.44708
-8.46842
-8.49197
-8.51759
-8.54518
-8.57454
-8.60551
-8.63785
-8.67135
-8.70574
-8.74081
-8.77628
-8.81194
-8.8475
-8.88279
-8.91752
-8.95154
-8.98461
-9.01657
-9.04723
-9.07646
-9.10409
-9.13
-9.15405
-9.17615
-9.19617
-9.21405
-9.22967
-9.24297
-9.25386
-9.26229
-9.26817
-9.27148
-9.27215
-9.27014
-9.26542
-9.25798
-9.2478
-9.23488
-9.21923
-9.20089
-9.17991
-9.15634
-9.13026
-9.10177
-9.07098
-9.03803
-9.00307
-8.96627
-8.9278
-8.88785
-8.84663
-8.80434
-8.7612
-8.71739
-8.67314
-8.62862
-8.58401
-8.53945
-8.49509
-8.45102
-8.40731
-8.36398
-8.32103
-8.27839
-8.23589
-8.19334
-8.15052
-8.10723
-8.06295
-8.0171
-7.96925
-7.91862
-7.86468
-7.80647
-7.74335
-7.67416
-7.59811
-7.51383
-7.42039
-7.3163
-7.20067
-7.0721
-6.92972
-6.77203
-6.59811
-6.40651
-6.19641
-5.96644
-5.71585
-5.44348
-5.14877
-4.83081
-4.48923
-4.12341
-3.73328
-3.3186
-2.87966
-2.41668
-1.93035
-1.42142
-0.891062
-0.340587
0.228319
0.813752
1.41347
2.025
2.64565
3.27251
3.90262
4.53281
5.15996
5.7809
6.39264
6.99222
7.57703
8.14459
8.69289
9.22009
9.72485
10.206
10.6629
11.0951
11.5024
11.8849
12.2429
12.5769
12.8876
13.1758
13.4423
13.6882
13.9145
14.1223
14.3127
14.4869
14.6459
14.7909
14.9228
15.0427
15.1515
15.2502
15.3394
15.42
15.4928
15.5583
15.6173
15.6703
15.718
15.7608
15.7993
15.8339
15.8651
15.893
15.9177
15.9388
15.9526
15.9627
15.9284
-8.2268
-8.2417
-8.26782
-8.28696
-8.30032
-8.311
-8.31956
-8.32619
-8.33145
-8.33582
-8.33975
-8.34354
-8.34759
-8.35218
-8.35765
-8.36426
-8.37229
-8.38194
-8.39343
-8.40687
-8.42239
-8.44003
-8.45983
-8.48173
-8.50569
-8.53159
-8.55932
-8.58869
-8.61954
-8.65163
-8.68478
-8.71873
-8.75327
-8.78815
-8.82316
-8.85803
-8.8926
-8.9266
-8.95988
-8.99221
-9.02344
-9.05338
-9.0819
-9.10882
-9.13405
-9.15742
-9.17885
-9.19821
-9.2154
-9.23033
-9.24291
-9.25304
-9.26067
-9.26572
-9.26812
-9.26781
-9.26476
-9.25891
-9.25025
-9.23876
-9.22445
-9.20733
-9.18744
-9.16483
-9.13958
-9.11177
-9.08152
-9.04896
-9.01426
-8.97757
-8.9391
-8.89906
-8.85766
-8.81513
-8.7717
-8.72762
-8.68311
-8.63841
-8.59372
-8.54925
-8.50516
-8.4616
-8.41869
-8.37651
-8.33508
-8.29441
-8.25445
-8.215
-8.17584
-8.13687
-8.09772
-8.05786
-8.01681
-7.97393
-7.92865
-7.88019
-7.82781
-7.77053
-7.70746
-7.63742
-7.5593
-7.47183
-7.37388
-7.26423
-7.14174
-7.00515
-6.85323
-6.68473
-6.49849
-6.29333
-6.06815
-5.82193
-5.55371
-5.2627
-4.94816
-4.60952
-4.24633
-3.85834
-3.44544
-3.00779
-2.54568
-2.05973
-1.55076
-1.01987
-0.468434
0.101884
0.689133
1.29109
1.90527
2.52898
3.15933
3.79328
4.42764
5.05921
5.68476
6.30121
6.90554
7.49504
8.06722
8.61998
9.15149
9.66034
10.1454
10.606
11.0415
11.452
11.8373
12.198
12.5345
12.8474
13.1376
13.4061
13.6538
13.8818
14.0913
14.2833
14.459
14.6194
14.7658
14.899
15.0202
15.1303
15.2301
15.3204
15.4021
15.4759
15.5424
15.6023
15.656
15.7042
15.7472
15.7856
15.8196
15.8497
15.8757
15.8975
15.9144
15.9225
15.9257
15.883
-8.21856
-8.23373
-8.26035
-8.28011
-8.29412
-8.30554
-8.31494
-8.32249
-8.32875
-8.33417
-8.3392
-8.34416
-8.3494
-8.3552
-8.36187
-8.36964
-8.37877
-8.38945
-8.40187
-8.41613
-8.43237
-8.45059
-8.47085
-8.49309
-8.51726
-8.54325
-8.57096
-8.60019
-8.63081
-8.66259
-8.69536
-8.72885
-8.7629
-8.79724
-8.83168
-8.86597
-8.89995
-8.93336
-8.96606
-8.99781
-9.02847
-9.05785
-9.08583
-9.11222
-9.13692
-9.15977
-9.18066
-9.19947
-9.21609
-9.23041
-9.24235
-9.25178
-9.25865
-9.26285
-9.26433
-9.26302
-9.25885
-9.25178
-9.24179
-9.22887
-9.21301
-9.19424
-9.1726
-9.14815
-9.12099
-9.09122
-9.05897
-9.02441
-8.98771
-8.94908
-8.90873
-8.86692
-8.82388
-8.77988
-8.73518
-8.69006
-8.64478
-8.59959
-8.55473
-8.51042
-8.46686
-8.42421
-8.3826
-8.34212
-8.3028
-8.26465
-8.2276
-8.19148
-8.15609
-8.12117
-8.0865
-8.0514
-8.01544
-7.97788
-7.93825
-7.89561
-7.84931
-7.79819
-7.74143
-7.67764
-7.60586
-7.52461
-7.43297
-7.32944
-7.21306
-7.08228
-6.9361
-6.77298
-6.59198
-6.39164
-6.17111
-5.92908
-5.66484
-5.37731
-5.06599
-4.73005
-4.36926
-3.98316
-3.57182
-3.13519
-2.67376
-2.188
-1.67884
-1.14726
-0.594687
-0.0227393
0.566607
1.17115
1.7884
2.41563
3.04991
3.68813
4.32708
4.9634
5.59387
6.21522
6.82449
7.41875
7.9956
8.55278
9.08856
9.60138
10.0902
10.5542
10.993
11.4064
11.7945
12.1576
12.4962
12.8112
13.1033
13.3735
13.6229
13.8525
14.0634
14.2568
14.4338
14.5956
14.7432
14.8777
15
15.1112
15.2121
15.3034
15.3861
15.4609
15.5282
15.5888
15.6432
15.6917
15.7349
15.773
15.8064
15.8353
15.8594
15.8783
15.8914
15.8942
15.8913
15.842
-8.21681
-8.23164
-8.25731
-8.2768
-8.2909
-8.30252
-8.31229
-8.32037
-8.32726
-8.33342
-8.33927
-8.34511
-8.35127
-8.358
-8.3656
-8.37427
-8.38425
-8.39569
-8.40878
-8.42361
-8.4403
-8.45886
-8.47935
-8.50169
-8.52588
-8.55178
-8.57931
-8.60828
-8.63858
-8.66998
-8.70232
-8.73537
-8.76895
-8.8028
-8.83675
-8.87057
-8.90407
-8.93703
-8.96929
-9.00062
-9.03089
-9.05989
-9.08749
-9.11352
-9.13785
-9.16031
-9.18081
-9.19919
-9.21535
-9.22915
-9.2405
-9.24928
-9.2554
-9.25876
-9.2593
-9.25692
-9.25155
-9.24316
-9.2317
-9.21718
-9.19959
-9.17897
-9.15536
-9.12885
-9.09953
-9.06755
-9.03305
-8.99623
-8.95729
-8.91647
-8.87402
-8.83023
-8.78537
-8.73975
-8.69367
-8.64742
-8.6013
-8.5556
-8.51059
-8.4665
-8.42355
-8.38193
-8.34177
-8.30317
-8.26617
-8.23077
-8.19692
-8.1644
-8.13297
-8.10251
-8.07254
-8.04256
-8.01188
-7.98003
-7.94622
-7.90975
-7.86964
-7.82498
-7.77458
-7.71732
-7.65189
-7.57713
-7.49173
-7.39448
-7.28404
-7.15917
-7.01852
-6.86084
-6.68485
-6.48936
-6.27324
-6.03543
-5.77499
-5.49102
-5.18279
-4.84964
-4.49116
-4.10702
-3.69715
-3.26161
-2.80077
-2.31516
-1.80561
-1.27315
-0.719149
-0.145264
0.446554
1.05408
1.67479
2.30592
2.94448
3.58731
4.23109
4.87238
5.50789
6.13429
6.74849
7.34756
7.929
8.49056
9.03042
9.54709
10.0395
10.5067
10.9485
11.3646
11.7552
12.1205
12.4612
12.778
13.0718
13.3436
13.5944
13.8254
14.0377
14.2324
14.4107
14.5737
14.7224
14.858
14.9815
15.0937
15.1956
15.2879
15.3715
15.4471
15.5153
15.5766
15.6314
15.6803
15.7235
15.7614
15.7941
15.8217
15.844
15.8602
15.8695
15.8678
15.8596
15.8049
-8.2208
-8.23471
-8.25838
-8.27684
-8.29045
-8.30175
-8.3114
-8.31957
-8.32672
-8.33325
-8.33958
-8.34597
-8.35273
-8.36008
-8.36831
-8.37757
-8.38809
-8.40002
-8.41351
-8.42864
-8.44554
-8.4642
-8.48468
-8.50694
-8.53094
-8.55659
-8.5838
-8.61241
-8.64229
-8.67326
-8.70516
-8.73777
-8.77091
-8.80434
-8.83789
-8.87132
-8.90447
-8.9371
-8.96905
-9.00011
-9.03013
-9.05889
-9.08627
-9.11208
-9.13618
-9.1584
-9.17862
-9.19668
-9.21246
-9.22582
-9.23664
-9.24479
-9.25017
-9.25266
-9.25219
-9.24865
-9.24197
-9.2321
-9.21901
-9.20269
-9.18316
-9.16044
-9.13461
-9.10575
-9.074
-9.03951
-9.00246
-8.96308
-8.9216
-8.87832
-8.83351
-8.78749
-8.7406
-8.69317
-8.64554
-8.59805
-8.55102
-8.50477
-8.4596
-8.41577
-8.37351
-8.33303
-8.29447
-8.25794
-8.22347
-8.19107
-8.16066
-8.13201
-8.1049
-8.07912
-8.05418
-8.02956
-8.00451
-7.9786
-7.95093
-7.92084
-7.8872
-7.84917
-7.80537
-7.75479
-7.69591
-7.62773
-7.54868
-7.45775
-7.35334
-7.2344
-7.09933
-6.94712
-6.77619
-6.58563
-6.37401
-6.14051
-5.8839
-5.60352
-5.29836
-4.96802
-4.6118
-4.22958
-3.82107
-3.38649
-2.92603
-2.44035
-1.93013
-1.39649
-0.840771
-0.264645
0.329954
0.940762
1.56522
2.20052
2.84357
3.49118
4.13987
4.78621
5.42671
6.0581
6.67711
7.28087
7.86672
8.43249
8.97624
9.49654
9.99222
10.4626
10.9071
11.3257
11.7185
12.0859
12.4284
12.7469
13.0423
13.3155
13.5677
13.8
14.0135
14.2094
14.3889
14.553
14.7029
14.8396
14.9641
15.0773
15.1802
15.2735
15.358
15.4344
15.5033
15.5652
15.6205
15.6696
15.7128
15.7504
15.7825
15.8089
15.8294
15.843
15.849
15.8431
15.8303
15.7712
-8.22943
-8.24198
-8.26297
-8.27979
-8.2924
-8.30289
-8.31196
-8.31979
-8.32678
-8.3333
-8.33973
-8.3463
-8.35331
-8.36095
-8.36946
-8.37901
-8.38977
-8.40188
-8.41548
-8.43065
-8.44749
-8.46602
-8.48629
-8.50825
-8.5319
-8.55715
-8.58393
-8.61208
-8.64151
-8.67201
-8.70344
-8.73559
-8.76829
-8.80131
-8.83451
-8.86763
-8.90051
-8.93291
-8.96469
-8.99559
-9.02549
-9.05415
-9.08144
-9.10714
-9.13113
-9.15321
-9.17324
-9.19105
-9.2065
-9.21944
-9.22972
-9.2372
-9.24176
-9.24327
-9.24163
-9.23674
-9.22855
-9.21698
-9.20201
-9.18362
-9.16184
-9.1367
-9.10828
-9.07669
-9.04211
-9.00472
-8.96473
-8.9224
-8.87803
-8.83192
-8.78443
-8.73591
-8.68673
-8.63728
-8.58794
-8.53908
-8.49107
-8.44425
-8.39895
-8.35545
-8.31401
-8.27484
-8.23809
-8.20388
-8.17223
-8.14315
-8.11653
-8.09212
-8.06972
-8.04899
-8.02954
-8.01061
-7.99167
-7.972
-7.95092
-7.92746
-7.90073
-7.86952
-7.83273
-7.78896
-7.73699
-7.67543
-7.60302
-7.51839
-7.42024
-7.30719
-7.17793
-7.03109
-6.86541
-6.67965
-6.47263
-6.24327
-5.99053
-5.71354
-5.41146
-5.08368
-4.72967
-4.34913
-3.94187
-3.50798
-3.04771
-2.56165
-2.05053
-1.51543
-0.957723
-0.379083
0.218534
0.832818
1.46117
2.10072
2.74832
3.40065
4.0542
4.70545
5.35083
5.98697
6.61057
7.21872
7.80873
8.37836
8.92569
9.44927
9.94796
10.421
10.868
11.2889
11.6837
12.0529
12.3971
12.7171
13.0139
13.2885
13.5419
13.7754
13.9902
14.1872
14.3678
14.5331
14.684
14.8218
14.9474
15.0616
15.1655
15.2597
15.3451
15.4224
15.492
15.5545
15.6102
15.6596
15.7028
15.7401
15.7714
15.7967
15.8154
15.8267
15.8296
15.8201
15.8032
15.7407
-8.24155
-8.25248
-8.27043
-8.28516
-8.29631
-8.30557
-8.31361
-8.32067
-8.32709
-8.3332
-8.33932
-8.3457
-8.35258
-8.36013
-8.36858
-8.37804
-8.3887
-8.40067
-8.41407
-8.42898
-8.4455
-8.46364
-8.48347
-8.50494
-8.52807
-8.55276
-8.57896
-8.60652
-8.63536
-8.6653
-8.6962
-8.72785
-8.76011
-8.79275
-8.82563
-8.85849
-8.89117
-8.92342
-8.95508
-8.98593
-9.01579
-9.04443
-9.0717
-9.09737
-9.1213
-9.14328
-9.16314
-9.1807
-9.1958
-9.20825
-9.21792
-9.22462
-9.22822
-9.22858
-9.22558
-9.21913
-9.20915
-9.19556
-9.17834
-9.15747
-9.133
-9.10498
-9.07352
-9.03877
-9.00091
-8.96017
-8.9168
-8.87111
-8.82344
-8.77417
-8.72367
-8.67237
-8.62069
-8.56907
-8.51791
-8.46764
-8.41866
-8.37135
-8.32605
-8.28308
-8.2427
-8.20513
-8.17054
-8.13903
-8.11062
-8.0853
-8.06292
-8.04327
-8.02602
-8.01085
-7.99731
-7.98459
-7.97217
-7.95922
-7.9451
-7.92868
-7.90914
-7.88511
-7.85554
-7.81884
-7.77389
-7.71908
-7.65336
-7.5751
-7.48323
-7.37609
-7.2526
-7.11111
-6.95062
-6.76958
-6.56708
-6.34173
-6.09274
-5.81896
-5.5198
-5.19437
-4.84237
-4.46326
-4.05701
-3.62353
-3.16322
-2.67651
-2.16425
-1.62748
-1.06763
-0.486369
0.114311
0.732071
1.36429
2.00802
2.66008
3.31698
3.97521
4.63108
5.28105
5.92153
6.54933
7.16137
7.75506
8.32804
8.8785
9.40489
9.90618
10.3816
10.8307
11.2534
11.65
12.0207
12.3664
12.6878
12.9859
13.2617
13.5164
13.7511
13.967
14.1652
14.347
14.5133
14.6654
14.8043
14.9309
15.0463
15.1511
15.2464
15.3327
15.4108
15.4811
15.5442
15.6003
15.6499
15.6932
15.7301
15.7608
15.785
15.8022
15.8113
15.8114
15.7987
15.7783
15.7132
-8.25611
-8.26536
-8.28019
-8.29256
-8.30189
-8.30952
-8.31613
-8.32199
-8.32741
-8.33268
-8.33809
-8.34385
-8.35018
-8.35723
-8.36518
-8.37415
-8.38429
-8.3957
-8.40851
-8.42278
-8.4386
-8.45602
-8.47508
-8.49576
-8.51809
-8.54196
-8.56736
-8.59414
-8.62224
-8.6515
-8.68179
-8.7129
-8.74471
-8.77698
-8.80955
-8.84218
-8.87468
-8.90683
-8.93843
-8.96925
-8.99911
-9.02776
-9.05502
-9.08066
-9.10451
-9.12634
-9.14598
-9.1632
-9.17783
-9.18967
-9.19855
-9.20427
-9.20671
-9.20566
-9.20105
-9.19271
-9.18059
-9.16461
-9.14476
-9.12102
-9.09344
-9.06211
-9.02718
-8.98879
-8.94719
-8.90263
-8.85547
-8.80603
-8.75475
-8.70202
-8.6483
-8.59404
-8.53975
-8.48589
-8.43295
-8.38136
-8.33158
-8.28399
-8.23898
-8.19685
-8.15793
-8.12239
-8.09042
-8.0621
-8.03747
-8.01644
-7.99888
-7.98449
-7.97292
-7.96389
-7.9567
-7.95074
-7.94522
-7.93948
-7.93257
-7.9236
-7.91142
-7.89489
-7.87257
-7.84313
-7.8051
-7.75717
-7.69794
-7.62612
-7.54028
-7.43906
-7.32104
-7.18488
-7.02925
-6.85286
-6.65453
-6.43309
-6.18749
-5.91678
-5.62016
-5.29692
-4.94655
-4.56867
-4.16312
-3.7299
-3.26933
-2.78191
-2.26844
-1.73002
-1.16807
-0.584276
0.0193482