/*--------------------------------*- C++ -*----------------------------------*\
| =========                 |                                                 |
| \\      /  F ield         | OpenFOAM: The Open Source CFD Toolbox           |
|  \\    /   O peration     | Version:  4.1                                   |
|   \\  /    A nd           | Web:      www.OpenFOAM.org                      |
|    \\/     M anipulation  |                                                 |
\*---------------------------------------------------------------------------*/
FoamFile
{
    version     2.0;
    format      ascii;
    class       surfaceScalarField;
    location    "100";
    object      phi;
}
// * * * * * * * * * * * * * * * * * * * * * * * * * * * * * * * * * * * * * //

dimensions      [0 3 -1 0 0 0 0];

internalField   nonuniform List<scalar> 
24170
(
3.05909e-06
7.48056e-08
2.95472e-06
1.04369e-07
2.85737e-06
9.73553e-08
2.76473e-06
9.26503e-08
2.67763e-06
8.71003e-08
2.59944e-06
7.8194e-08
2.53125e-06
6.81921e-08
2.47233e-06
5.89244e-08
2.42149e-06
5.0842e-08
2.37761e-06
4.38842e-08
2.33971e-06
3.79112e-08
2.30694e-06
3.27688e-08
2.27865e-06
2.82926e-08
2.25431e-06
2.43405e-08
2.23368e-06
2.06399e-08
2.21636e-06
1.73199e-08
2.20235e-06
1.40172e-08
9.5719e-09
2.19278e-06
3.51041e-06
2.0837e-08
3.5283e-06
8.64885e-08
3.53464e-06
9.10202e-08
3.53279e-06
9.45003e-08
3.52378e-06
9.61216e-08
3.50903e-06
9.29458e-08
3.48992e-06
8.7301e-08
3.46774e-06
8.1115e-08
3.44362e-06
7.49672e-08
3.41849e-06
6.90133e-08
3.39309e-06
6.33232e-08
3.36792e-06
5.7943e-08
3.34337e-06
5.28416e-08
3.31973e-06
4.79825e-08
3.29721e-06
4.31636e-08
3.27606e-06
3.84782e-08
3.25711e-06
3.29689e-08
2.54514e-08
3.24123e-06
3.81758e-06
1.54539e-08
3.83016e-06
7.39125e-08
3.84036e-06
8.08142e-08
3.8511e-06
8.37631e-08
3.86093e-06
8.63025e-08
3.86861e-06
8.52613e-08
3.87405e-06
8.18732e-08
3.87744e-06
7.77201e-08
3.87907e-06
7.33416e-08
3.87921e-06
6.88726e-08
3.87815e-06
6.43928e-08
3.87612e-06
5.99687e-08
3.87337e-06
5.5599e-08
3.87011e-06
5.12493e-08
3.86649e-06
4.67784e-08
3.86291e-06
4.20663e-08
3.85937e-06
3.65056e-08
2.94848e-08
3.85534e-06
4.20346e-06
1.65529e-08
4.2151e-06
6.2271e-08
4.22337e-06
7.25558e-08
4.23102e-06
7.61137e-08
4.2383e-06
7.90218e-08
4.24461e-06
7.89573e-08
4.25003e-06
7.64546e-08
4.2548e-06
7.29522e-08
4.25904e-06
6.91116e-08
4.2628e-06
6.5116e-08
4.26615e-06
6.10486e-08
4.26915e-06
5.69711e-08
4.27186e-06
5.28842e-08
4.27437e-06
4.87467e-08
4.27671e-06
4.44364e-08
4.27898e-06
3.98029e-08
4.28095e-06
3.45408e-08
2.83266e-08
4.28211e-06
4.63768e-06
1.61759e-08
4.64716e-06
5.28008e-08
4.65398e-06
6.57371e-08
4.65998e-06
7.01122e-08
4.666e-06
7.30056e-08
4.67159e-06
7.33638e-08
4.67667e-06
7.13842e-08
4.68133e-06
6.82919e-08
4.68566e-06
6.47835e-08
4.68971e-06
6.1071e-08
4.69352e-06
5.72397e-08
4.69714e-06
5.33474e-08
4.70063e-06
4.94018e-08
4.70401e-06
4.53659e-08
4.7073e-06
4.11465e-08
4.71048e-06
3.66277e-08
4.71337e-06
3.16552e-08
2.60959e-08
4.7156e-06
5.11603e-06
1.47373e-08
5.12365e-06
4.51889e-08
5.13011e-06
5.92824e-08
5.13589e-06
6.43279e-08
5.14176e-06
6.71476e-08
5.14734e-06
6.77846e-08
5.15245e-06
6.62753e-08
5.15716e-06
6.35873e-08
5.16155e-06
6.03945e-08
5.16569e-06
5.69359e-08
5.16962e-06
5.3308e-08
5.1734e-06
4.95712e-08
5.17706e-06
4.57458e-08
5.18062e-06
4.18081e-08
5.18407e-06
3.76989e-08
5.18736e-06
3.33449e-08
5.19033e-06
2.86837e-08
2.36927e-08
5.19274e-06
5.64262e-06
1.31241e-08
5.64912e-06
3.86965e-08
5.65569e-06
5.2709e-08
5.66167e-06
5.83511e-08
5.6676e-06
6.12153e-08
5.6733e-06
6.20896e-08
5.67857e-06
6.1006e-08
5.68346e-06
5.87061e-08
5.68803e-06
5.58189e-08
5.69236e-06
5.26084e-08
5.69649e-06
4.9184e-08
5.70045e-06
4.56125e-08
5.70427e-06
4.19271e-08
5.70796e-06
3.81225e-08
5.71149e-06
3.41712e-08
5.71479e-06
3.00398e-08
5.71775e-06
2.57259e-08
2.1267e-08
5.72018e-06
4.4073e-06
1.1941e-08
4.41142e-06
3.45774e-08
4.41614e-06
4.799e-08
4.42057e-06
5.39231e-08
4.4249e-06
5.68868e-08
4.42911e-06
5.78915e-08
4.43306e-06
5.70588e-08
4.43674e-06
5.50226e-08
4.44021e-06
5.23577e-08
4.44349e-06
4.93313e-08
4.44661e-06
4.60632e-08
4.4496e-06
4.26266e-08
4.45246e-06
3.90639e-08
4.45521e-06
3.53833e-08
4.4578e-06
3.15773e-08
4.46021e-06
2.76372e-08
4.46235e-06
2.35862e-08
1.94806e-08
4.46414e-06
5.14111e-06
1.06936e-08
5.14523e-06
3.04566e-08
5.1502e-06
4.30167e-08
5.15504e-06
4.90863e-08
5.15982e-06
5.21091e-08
5.1645e-06
5.32152e-08
5.16894e-06
5.26189e-08
5.17312e-06
5.0849e-08
5.17706e-06
4.84202e-08
5.1808e-06
4.55986e-08
5.18435e-06
4.2512e-08
5.18774e-06
3.92396e-08
5.19097e-06
3.58333e-08
5.19404e-06
3.23151e-08
5.19692e-06
2.86969e-08
5.19957e-06
2.49899e-08
5.20192e-06
2.12348e-08
1.74941e-08
5.20391e-06
5.9971e-06
9.38314e-09
6.00117e-06
2.63923e-08
6.00632e-06
3.78676e-08
6.01154e-06
4.3875e-08
6.01676e-06
4.6889e-08
6.02193e-06
4.80529e-08
6.02689e-06
4.76633e-08
6.03159e-06
4.61513e-08
6.03604e-06
4.39649e-08
6.04028e-06
4.1365e-08
6.04431e-06
3.84849e-08
6.04814e-06
3.54089e-08
6.05178e-06
3.21968e-08
6.05521e-06
2.8885e-08
6.05841e-06
2.54986e-08
6.06134e-06
2.20677e-08
6.06393e-06
1.86382e-08
1.52741e-08
6.06616e-06
6.99562e-06
8.03279e-09
6.99959e-06
2.24264e-08
7.00485e-06
3.26032e-08
7.01041e-06
3.83263e-08
7.01605e-06
4.1251e-08
7.02168e-06
4.2419e-08
7.02716e-06
4.21889e-08
7.0324e-06
4.09139e-08
7.0374e-06
3.8969e-08
7.04216e-06
3.66034e-08
7.0467e-06
3.3953e-08
7.051e-06
3.11064e-08
7.05507e-06
2.81286e-08
7.05889e-06
2.50662e-08
7.06244e-06
2.19576e-08
7.06566e-06
1.88398e-08
7.06854e-06
1.57639e-08
1.2782e-08
7.07103e-06
8.16037e-06
6.67407e-09
8.16423e-06
1.85746e-08
8.16955e-06
2.72877e-08
8.17538e-06
3.24963e-08
8.18141e-06
3.52276e-08
8.18749e-06
3.63361e-08
8.19348e-06
3.62071e-08
8.19926e-06
3.51349e-08
8.2048e-06
3.34257e-08
8.21011e-06
3.13031e-08
8.21516e-06
2.89051e-08
8.21995e-06
2.63193e-08
8.22446e-06
2.36159e-08
8.22868e-06
2.08452e-08
8.23259e-06
1.80542e-08
8.23615e-06
1.52831e-08
8.23933e-06
1.25797e-08
9.98763e-09
8.24213e-06
9.51907e-06
5.33312e-09
9.52281e-06
1.48372e-08
9.52813e-06
2.19738e-08
9.53418e-06
2.64491e-08
9.54055e-06
2.88555e-08
9.54706e-06
2.98291e-08
9.55354e-06
2.97338e-08
9.55985e-06
2.88227e-08
9.56595e-06
2.73339e-08
9.57179e-06
2.54624e-08
9.57736e-06
2.33353e-08
9.58264e-06
2.10431e-08
9.58761e-06
1.8649e-08
9.59224e-06
1.62111e-08
9.59653e-06
1.37712e-08
9.60044e-06
1.13752e-08
9.60396e-06
9.05907e-09
6.86038e-09
9.60709e-06
1.1104e-05
4.02286e-09
1.11077e-05
1.12042e-08
1.11129e-05
1.66897e-08
1.11192e-05
2.02389e-08
1.11258e-05
2.21723e-08
1.11327e-05
2.29207e-08
1.11397e-05
2.27885e-08
1.11465e-05
2.19857e-08
1.11532e-05
2.06967e-08
1.11596e-05
1.90758e-08
1.11657e-05
1.72383e-08
1.11714e-05
1.52637e-08
1.11769e-05
1.32152e-08
1.1182e-05
1.11403e-08
1.11866e-05
9.08461e-09
1.11909e-05
7.08231e-09
1.11948e-05
5.16943e-09
3.36533e-09
1.11983e-05
1.29529e-05
2.74413e-09
1.29565e-05
7.64974e-09
1.29617e-05
1.14272e-08
1.29681e-05
1.38916e-08
1.29751e-05
1.52009e-08
1.29824e-05
1.5622e-08
1.29898e-05
1.53767e-08
1.29971e-05
1.46267e-08
1.30043e-05
1.35067e-08
1.30113e-05
1.21319e-08
1.30179e-05
1.05935e-08
1.30242e-05
8.95904e-09
1.30302e-05
7.27999e-09
1.30357e-05
5.59787e-09
1.30408e-05
3.9479e-09
1.30456e-05
2.35965e-09
1.30499e-05
8.58328e-10
-5.42982e-10
1.30538e-05
1.51097e-05
1.48231e-09
1.51132e-05
4.12045e-09
1.51185e-05
6.13111e-09
1.51251e-05
7.37469e-09
1.51323e-05
7.91808e-09
1.51401e-05
7.90454e-09
1.5148e-05
7.46801e-09
1.51559e-05
6.71439e-09
1.51637e-05
5.72999e-09
1.51712e-05
4.59067e-09
1.51785e-05
3.35711e-09
1.51853e-05
2.07778e-09
1.51918e-05
7.88819e-10
1.51979e-05
-4.79818e-10
1.52036e-05
-1.70403e-09
1.52088e-05
-2.86342e-09
1.52136e-05
-3.94144e-09
-4.93283e-09
1.5218e-05
1.76257e-05
2.05567e-10
1.76293e-05
5.17055e-10
1.76348e-05
6.67418e-10
1.76416e-05
5.56479e-10
1.76493e-05
2.01654e-10
1.76576e-05
-3.52231e-10
1.76661e-05
-1.05207e-09
1.76747e-05
-1.86093e-09
1.76832e-05
-2.73654e-09
1.76914e-05
-3.65071e-09
1.76993e-05
-4.57176e-09
1.77069e-05
-5.48229e-09
1.77141e-05
-6.36026e-09
1.77208e-05
-7.19549e-09
1.7727e-05
-7.9727e-09
1.77329e-05
-8.68635e-09
1.77383e-05
-9.32511e-09
-9.89406e-09
1.77432e-05
1.78274e-05
-9.84859e-10
1.78308e-05
-2.85752e-09
1.78359e-05
-4.4852e-09
1.78424e-05
-5.91679e-09
1.78498e-05
-7.16936e-09
1.78577e-05
-8.26698e-09
1.78659e-05
-9.24892e-09
1.78742e-05
-1.01271e-08
1.78823e-05
-1.09191e-08
1.78903e-05
-1.16241e-08
1.7898e-05
-1.22585e-08
1.79054e-05
-1.28185e-08
1.79123e-05
-1.33148e-08
1.79189e-05
-1.37401e-08
1.7925e-05
-1.41037e-08
1.79307e-05
-1.43991e-08
1.7936e-05
-1.4634e-08
-1.48083e-08
1.79409e-05
1.58824e-05
-2.03842e-09
1.58854e-05
-5.84108e-09
1.589e-05
-9.05858e-09
1.58957e-05
-1.16688e-08
1.59022e-05
-1.3694e-08
1.59092e-05
-1.52579e-08
1.59165e-05
-1.64715e-08
1.59237e-05
-1.74087e-08
1.59309e-05
-1.81096e-08
1.59379e-05
-1.86285e-08
1.59447e-05
-1.89977e-08
1.59511e-05
-1.92539e-08
1.59572e-05
-1.94088e-08
1.5963e-05
-1.94847e-08
1.59684e-05
-1.94857e-08
1.59734e-05
-1.9429e-08
1.59781e-05
-1.93133e-08
-1.91569e-08
1.59824e-05
1.41496e-05
-3.01385e-09
1.41524e-05
-8.61562e-09
1.41567e-05
-1.33497e-08
1.41621e-05
-1.70355e-08
1.41681e-05
-1.97148e-08
1.41745e-05
-2.16503e-08
1.41811e-05
-2.30475e-08
1.41877e-05
-2.40016e-08
1.41942e-05
-2.45987e-08
1.42005e-05
-2.4921e-08
1.42065e-05
-2.50415e-08
1.42123e-05
-2.50062e-08
1.42177e-05
-2.48519e-08
1.42228e-05
-2.46038e-08
1.42276e-05
-2.42847e-08
1.42321e-05
-2.39085e-08
1.42363e-05
-2.34881e-08
-2.30336e-08
1.42402e-05
1.26059e-05
-3.91914e-09
1.26086e-05
-1.12867e-08
1.26128e-05
-1.75547e-08
1.2618e-05
-2.22131e-08
1.26237e-05
-2.54103e-08
1.26297e-05
-2.76419e-08
1.26358e-05
-2.91667e-08
1.26419e-05
-3.00923e-08
1.26479e-05
-3.05462e-08
1.26536e-05
-3.06598e-08
1.26591e-05
-3.05291e-08
1.26643e-05
-3.02134e-08
1.26692e-05
-2.97648e-08
1.26738e-05
-2.92158e-08
1.26781e-05
-2.8601e-08
1.26822e-05
-2.79352e-08
1.26859e-05
-2.72389e-08
-2.65207e-08
1.26894e-05
1.12306e-05
-4.69135e-09
1.12332e-05
-1.3923e-08
1.12375e-05
-2.18505e-08
1.12426e-05
-2.73036e-08
1.1248e-05
-3.08501e-08
1.12537e-05
-3.33232e-08
1.12595e-05
-3.49372e-08
1.12652e-05
-3.57824e-08
1.12707e-05
-3.60552e-08
1.1276e-05
-3.59405e-08
1.1281e-05
-3.55489e-08
1.12858e-05
-3.49571e-08
1.12902e-05
-3.42193e-08
1.12944e-05
-3.33888e-08
1.12983e-05
-3.24929e-08
1.13019e-05
-3.15644e-08
1.13053e-05
-3.06093e-08
-2.9651e-08
1.13084e-05
1.00051e-05
-5.19673e-09
1.00078e-05
-1.65557e-08
1.00123e-05
-2.63891e-08
1.00174e-05
-3.23592e-08
1.00226e-05
-3.60762e-08
1.0028e-05
-3.87387e-08
1.00334e-05
-4.03836e-08
1.00388e-05
-4.10981e-08
1.00439e-05
-4.1169e-08
1.00488e-05
-4.08191e-08
1.00534e-05
-4.01686e-08
1.00577e-05
-3.93005e-08
1.00618e-05
-3.82872e-08
1.00656e-05
-3.71829e-08
1.00691e-05
-3.60301e-08
1.00724e-05
-3.48515e-08
1.00755e-05
-3.36718e-08
-3.24991e-08
1.00783e-05
8.9132e-06
-5.29609e-09
8.91594e-06
-1.92954e-08
8.92066e-06
-3.11075e-08
8.92557e-06
-3.7274e-08
8.93064e-06
-4.11469e-08
8.93589e-06
-4.39793e-08
8.94106e-06
-4.55581e-08
8.94604e-06
-4.60758e-08
8.9508e-06
-4.59254e-08
8.95532e-06
-4.53415e-08
8.95959e-06
-4.44379e-08
8.9636e-06
-4.33065e-08
8.96734e-06
-4.20299e-08
8.97084e-06
-4.06714e-08
8.97408e-06
-3.92743e-08
8.9771e-06
-3.78693e-08
8.97991e-06
-3.64699e-08
-3.50801e-08
8.98248e-06
7.93988e-06
-4.51193e-09
7.94341e-06
-2.28252e-08
7.94804e-06
-3.57351e-08
7.95247e-06
-4.17043e-08
7.95735e-06
-4.60243e-08
7.96252e-06
-4.91508e-08
7.9676e-06
-5.06347e-08
7.97244e-06
-5.09204e-08
7.97705e-06
-5.05267e-08
7.9814e-06
-4.96894e-08
7.98548e-06
-4.85188e-08
7.98929e-06
-4.71174e-08
7.99284e-06
-4.55757e-08
7.99613e-06
-4.3964e-08
7.99919e-06
-4.23297e-08
8.00203e-06
-4.07057e-08
8.00468e-06
-3.91168e-08
-3.75783e-08
8.00718e-06
7.07054e-06
-7.24711e-10
7.07635e-06
-2.86309e-08
7.08138e-06
-4.07698e-08
7.0857e-06
-4.6018e-08
7.09059e-06
-5.09168e-08
7.09577e-06
-5.4332e-08
7.10085e-06
-5.5714e-08
7.10573e-06
-5.58026e-08
7.1104e-06
-5.51865e-08
7.1148e-06
-5.40926e-08
7.11892e-06
-5.26403e-08
7.12276e-06
-5.09504e-08
7.12631e-06
-4.91288e-08
7.12959e-06
-4.72465e-08
7.13263e-06
-4.53621e-08
7.13543e-06
-4.35077e-08
7.13801e-06
-4.16972e-08
-3.98879e-08
7.14033e-06
6.2931e-06
8.69108e-09
6.30155e-06
-3.70819e-08
6.30854e-06
-4.77659e-08
6.31495e-06
-5.24185e-08
6.32153e-06
-5.75012e-08
6.32775e-06
-6.05472e-08
6.33343e-06
-6.14005e-08
6.33873e-06
-6.10963e-08
6.34371e-06
-6.01688e-08
6.34837e-06
-5.87512e-08
6.35269e-06
-5.69607e-08
6.35667e-06
-5.49306e-08
6.36031e-06
-5.27719e-08
6.36364e-06
-5.05711e-08
6.36666e-06
-4.8386e-08
6.36942e-06
-4.62602e-08
6.37195e-06
-4.42279e-08
-4.23079e-08
6.37437e-06
5.60783e-06
1.57636e-08
5.61535e-06
-4.45988e-08
5.62304e-06
-5.54645e-08
5.63261e-06
-6.19793e-08
5.64322e-06
-6.8112e-08
5.6533e-06
-7.06284e-08
5.66228e-06
-7.03788e-08
5.67016e-06
-6.89759e-08
5.67699e-06
-6.70063e-08
5.68284e-06
-6.4598e-08
5.68775e-06
-6.1868e-08
5.69178e-06
-5.89644e-08
5.69501e-06
-5.60009e-08
5.69751e-06
-5.30708e-08
5.69936e-06
-5.02323e-08
5.70065e-06
-4.75489e-08
5.70146e-06
-4.50397e-08
-4.27683e-08
5.70192e-06
5.0423e-06
-2.42322e-08
5.05632e-06
-5.8618e-08
5.06717e-06
-6.63122e-08
5.07692e-06
-7.17293e-08
5.08572e-06
-7.69075e-08
5.09227e-06
-7.71785e-08
5.09569e-06
-7.37965e-08
5.09572e-06
-6.90062e-08
5.09255e-06
-6.38456e-08
5.08662e-06
-5.86602e-08
5.07839e-06
-5.3639e-08
5.06834e-06
-4.89101e-08
5.05687e-06
-4.45358e-08
5.04436e-06
-4.05559e-08
5.03109e-06
-3.69723e-08
5.01735e-06
-3.38087e-08
5.00341e-06
-3.10975e-08
-2.93066e-08
4.98995e-06
4.43232e-06
4.3737e-06
4.30739e-06
4.23566e-06
4.15875e-06
4.08157e-06
4.00778e-06
3.93877e-06
3.87492e-06
3.81626e-06
3.76262e-06
3.71371e-06
3.66918e-06
3.62862e-06
3.59165e-06
3.55784e-06
3.52674e-06
3.49744e-06
1.31659e-08
-1.32843e-08
3.84284e-08
-2.53474e-08
6.53523e-08
-2.70756e-08
8.98394e-08
-2.4526e-08
1.09412e-07
-1.97089e-08
1.23196e-07
-1.38027e-08
1.30484e-07
-7.42261e-09
1.31377e-07
-9.04064e-10
1.25804e-07
5.42857e-09
1.14594e-07
1.11991e-08
9.82675e-08
1.61595e-08
7.80088e-08
2.02455e-08
5.43354e-08
2.34941e-08
2.8299e-08
2.60372e-08
5.22466e-11
2.80473e-08
-2.98739e-08
2.99496e-08
-6.22233e-08
3.21739e-08
-9.67795e-08
3.46049e-08
-1.3414e-07
3.72042e-08
-1.74129e-07
4.00388e-08
-2.17367e-07
4.30766e-08
-2.63579e-07
4.62537e-08
-3.13211e-07
4.94773e-08
-3.65861e-07
5.26783e-08
-4.21773e-07
5.57421e-08
-4.80341e-07
5.85803e-08
-5.41601e-07
6.10946e-08
-6.04832e-07
6.32285e-08
-6.69928e-07
6.49181e-08
-7.36079e-07
6.61397e-08
-8.03114e-07
6.68619e-08
-8.7023e-07
6.71085e-08
-9.37283e-07
6.68947e-08
-1.00356e-06
6.62822e-08
-1.06902e-06
6.53095e-08
-1.13307e-06
6.4053e-08
-1.19575e-06
6.25546e-08
-1.25663e-06
6.08906e-08
-1.31585e-06
5.90987e-08
-1.37306e-06
5.72455e-08
-1.42852e-06
5.53526e-08
-1.48196e-06
5.34737e-08
-1.53367e-06
5.16158e-08
-1.58347e-06
4.98164e-08
-1.63165e-06
4.80705e-08
-1.67806e-06
4.64089e-08
-1.72301e-06
4.4818e-08
-1.76634e-06
4.33192e-08
-1.80838e-06
4.1892e-08
-1.84897e-06
4.05579e-08
-1.88841e-06
3.92931e-08
-1.92655e-06
3.81136e-08
-1.9637e-06
3.69931e-08
-1.99969e-06
3.59504e-08
-2.0348e-06
3.49579e-08
-2.06889e-06
3.40326e-08
-2.1022e-06
3.31482e-08
-2.13459e-06
3.23253e-08
-2.16629e-06
3.1537e-08
-2.19715e-06
3.08062e-08
-2.22741e-06
3.01048e-08
-2.2569e-06
2.94577e-08
-2.28588e-06
2.88361e-08
-2.31416e-06
2.82668e-08
-2.34201e-06
2.77208e-08
-2.36925e-06
2.72272e-08
-2.39613e-06
2.67568e-08
-2.42249e-06
2.63411e-08
-2.44857e-06
2.595e-08
-2.47421e-06
2.56171e-08
-2.49966e-06
2.53106e-08
-2.52476e-06
2.50639e-08
-2.54975e-06
2.4845e-08
-2.57449e-06
2.46883e-08
-2.59921e-06
2.45602e-08
-2.62378e-06
2.44937e-08
-2.64841e-06
2.44537e-08
-2.67298e-06
2.44687e-08
-2.69767e-06
2.45024e-08
-2.72239e-06
2.45924e-08
-2.74732e-06
2.47356e-08
-2.77239e-06
2.49226e-08
-2.79766e-06
2.50651e-08
-2.82308e-06
2.52379e-08
-2.84873e-06
2.54568e-08
-2.87459e-06
2.5654e-08
-2.90061e-06
2.582e-08
-2.92678e-06
2.59666e-08
-2.95305e-06
2.60837e-08
-2.97936e-06
2.61629e-08
-3.00569e-06
2.6158e-08
-3.03188e-06
2.60278e-08
-3.05794e-06
2.58658e-08
-3.08358e-06
2.54191e-08
-3.10884e-06
2.49883e-08
-3.13375e-06
2.45808e-08
-3.15783e-06
2.37141e-08
-3.18094e-06
2.27105e-08
-3.20291e-06
2.15601e-08
-3.22343e-06
2.00858e-08
-3.24196e-06
1.81265e-08
-3.25834e-06
1.5958e-08
-3.27286e-06
1.41327e-08
-3.28474e-06
1.1478e-08
-3.29349e-06
8.38949e-09
-3.29894e-06
5.07236e-09
-3.30073e-06
1.45721e-09
-3.29915e-06
-1.92981e-09
-3.29402e-06
-5.41541e-09
-3.28575e-06
-8.59381e-09
-3.27383e-06
-1.21706e-08
-3.25779e-06
-1.63179e-08
-3.23791e-06
-2.00766e-08
-3.21392e-06
-2.42145e-08
-3.18536e-06
-2.86938e-08
-3.15223e-06
-3.3303e-08
-3.11451e-06
-3.77976e-08
-3.0722e-06
-4.24106e-08
-3.02476e-06
-4.74399e-08
-2.97239e-06
-5.23969e-08
-2.91505e-06
-5.7269e-08
-2.85265e-06
-6.23394e-08
-2.78513e-06
-6.73693e-08
-2.71258e-06
-7.2409e-08
-2.63497e-06
-7.73767e-08
-2.55243e-06
-8.23076e-08
-2.465e-06
-8.7117e-08
-2.37287e-06
-9.18195e-08
-2.27615e-06
-9.63382e-08
-2.17508e-06
-1.00679e-07
-2.06986e-06
-1.0477e-07
-1.96082e-06
-1.08608e-07
-1.84825e-06
-1.12137e-07
-1.73252e-06
-1.15342e-07
-1.61394e-06
-1.18185e-07
-1.49289e-06
-1.20648e-07
-1.36975e-06
-1.22708e-07
-1.24494e-06
-1.24354e-07
-1.11888e-06
-1.25585e-07
-9.91973e-07
-1.26409e-07
-8.64609e-07
-1.26861e-07
-7.37154e-07
-1.26943e-07
-6.09971e-07
-1.26724e-07
-4.83436e-07
-1.26109e-07
-3.57953e-07
-1.2515e-07
-2.33369e-07
-1.24322e-07
-1.09132e-07
-1.24109e-07
1.58767e-08
-1.24971e-07
1.40607e-07
-1.24767e-07
2.6267e-07
-1.22126e-07
3.81209e-07
-1.18615e-07
4.95823e-07
-1.14698e-07
6.06307e-07
-1.10575e-07
7.12552e-07
-1.06338e-07
8.14515e-07
-1.02055e-07
9.12196e-07
-9.77683e-08
1.00565e-06
-9.35335e-08
1.09493e-06
-8.93537e-08
1.18011e-06
-8.52531e-08
1.26132e-06
-8.12755e-08
1.33868e-06
-7.74117e-08
1.41228e-06
-7.36475e-08
1.48223e-06
-6.99994e-08
1.54867e-06
-6.64806e-08
1.61172e-06
-6.30903e-08
1.6715e-06
-5.97989e-08
1.72807e-06
-5.66052e-08
1.78156e-06
-5.3507e-08
1.83203e-06
-5.04952e-08
1.87956e-06
-4.75426e-08
1.92415e-06
-4.46175e-08
1.96578e-06
-4.16488e-08
2.0043e-06
-3.85386e-08
2.03939e-06
-3.51174e-08
2.07044e-06
-3.10772e-08
2.09622e-06
-2.58107e-08
2.11383e-06
-1.7643e-08
2.11439e-06
-5.9397e-10
2.07592e-06
3.84462e-08
1.06582e-07
1.96932e-06
2.77289e-08
-4.10912e-08
4.75458e-08
-4.52194e-08
5.9065e-08
-3.86506e-08
6.50293e-08
-3.05157e-08
6.66751e-08
-2.13961e-08
6.44993e-08
-1.16453e-08
5.86513e-08
-1.61301e-09
4.93018e-08
8.42854e-09
3.64302e-08
1.82602e-08
1.99478e-08
2.76622e-08
-3.61106e-10
3.6424e-08
-2.45461e-08
4.44085e-08
-5.26845e-08
5.15896e-08
-8.47193e-08
5.80548e-08
-1.207e-07
6.39888e-08
-1.60398e-07
6.96348e-08
-2.03471e-07
7.5213e-08
-2.49716e-07
8.08466e-08
-2.99131e-07
8.6587e-08
-3.5152e-07
9.2421e-08
-4.0675e-07
9.82707e-08
-4.64514e-07
1.04013e-07
-5.24577e-07
1.09502e-07
-5.86498e-07
1.14588e-07
-6.49921e-07
1.19122e-07
-7.1433e-07
1.22977e-07
-7.7934e-07
1.26057e-07
-8.44434e-07
1.28304e-07
-9.09259e-07
1.2969e-07
-9.7336e-07
1.3022e-07
-1.03648e-06
1.29926e-07
-1.09827e-06
1.28879e-07
-1.15859e-06
1.27167e-07
-1.21722e-06
1.24896e-07
-1.27413e-06
1.2217e-07
-1.32919e-06
1.19094e-07
-1.38244e-06
1.15763e-07
-1.43383e-06
1.12266e-07
-1.48345e-06
1.0868e-07
-1.53129e-06
1.05076e-07
-1.57748e-06
1.01503e-07
-1.62202e-06
9.80088e-08
-1.66506e-06
9.46197e-08
-1.70662e-06
9.13622e-08
-1.74684e-06
8.82475e-08
-1.78574e-06
8.52879e-08
-1.82346e-06
8.24824e-08
-1.86001e-06
7.98349e-08
-1.89551e-06
7.73378e-08
-1.92998e-06
7.49898e-08
-1.96353e-06
7.27789e-08
-1.99616e-06
7.07015e-08
-2.02797e-06
6.87448e-08
-2.05897e-06
6.69055e-08
-2.08925e-06
6.51703e-08
-2.1188e-06
6.35368e-08
-2.14771e-06
6.19932e-08
-2.17597e-06
6.05402e-08
-2.20367e-06
5.91667e-08
-2.23079e-06
5.78753e-08
-2.2574e-06
5.66562e-08
-2.2835e-06
5.55137e-08
-2.30915e-06
5.44385e-08
-2.33435e-06
5.3437e-08
-2.35918e-06
5.25009e-08
-2.38363e-06
5.16386e-08
-2.40776e-06
5.08427e-08
-2.43158e-06
5.01234e-08
-2.45515e-06
4.94733e-08
-2.47847e-06
4.89029e-08
-2.50162e-06
4.84039e-08
-2.52459e-06
4.79867e-08
-2.54745e-06
4.76407e-08
-2.57019e-06
4.73756e-08
-2.59288e-06
4.71787e-08
-2.61551e-06
4.70579e-08
-2.63814e-06
4.6998e-08
-2.66075e-06
4.70053e-08
-2.68341e-06
4.7065e-08
-2.70609e-06
4.71868e-08
-2.72882e-06
4.73595e-08
-2.75157e-06
4.75662e-08
-2.77438e-06
4.7761e-08
-2.79721e-06
4.79534e-08
-2.82001e-06
4.81417e-08
-2.84278e-06
4.82919e-08
-2.86546e-06
4.83724e-08
-2.88799e-06
4.83742e-08
-2.91029e-06
4.8284e-08
-2.93229e-06
4.80572e-08
-2.9539e-06
4.76637e-08
-2.97504e-06
4.70617e-08
-2.99554e-06
4.62396e-08
-3.01542e-06
4.51468e-08
-3.03443e-06
4.38057e-08
-3.05227e-06
4.22016e-08
-3.06899e-06
4.01798e-08
-3.08432e-06
3.77837e-08
-3.09806e-06
3.5018e-08
-3.11006e-06
3.18139e-08
-3.12035e-06
2.81389e-08
-3.12878e-06
2.41235e-08
-3.13482e-06
1.99039e-08
-3.13876e-06
1.51744e-08
-3.14057e-06
9.94314e-09
-3.1401e-06
4.37225e-09
-3.13734e-06
-1.54042e-09
-3.1317e-06
-7.77931e-09
-3.12293e-06
-1.44011e-08
-3.1104e-06
-2.13041e-08
-3.09414e-06
-2.86237e-08
-3.07421e-06
-3.64029e-08
-3.05004e-06
-4.44026e-08
-3.02156e-06
-5.28139e-08
-2.98876e-06
-6.16151e-08
-2.95143e-06
-7.07141e-08
-2.90932e-06
-7.99913e-08
-2.86227e-06
-8.94943e-08
-2.81045e-06
-9.92931e-08
-2.75361e-06
-1.09218e-07
-2.69163e-06
-1.19233e-07
-2.62453e-06
-1.29376e-07
-2.55228e-06
-1.39548e-07
-2.47486e-06
-1.49715e-07
-2.39233e-06
-1.59784e-07
-2.30474e-06
-1.69734e-07
-2.21221e-06
-1.79479e-07
-2.11485e-06
-1.88973e-07
-2.01285e-06
-1.98125e-07
-1.9064e-06
-2.0688e-07
-1.79576e-06
-2.1515e-07
-1.68123e-06
-2.22882e-07
-1.56314e-06
-2.29991e-07
-1.44184e-06
-2.36425e-07
-1.31769e-06
-2.42116e-07
-1.1911e-06
-2.47021e-07
-1.06247e-06
-2.511e-07
-9.32253e-07
-2.54335e-07
-8.00874e-07
-2.56711e-07
-6.68771e-07
-2.58253e-07
-5.36363e-07
-2.59005e-07
-4.04059e-07
-2.58997e-07
-2.72217e-07
-2.58336e-07
-1.40897e-07
-2.57235e-07
-1.01117e-08
-2.55783e-07
1.19478e-07
-2.53817e-07
2.4672e-07
-2.51306e-07
3.69949e-07
-2.48206e-07
4.8898e-07
-2.43825e-07
6.04737e-07
-2.37925e-07
7.17171e-07
-2.3109e-07
8.26105e-07
-2.23685e-07
9.31396e-07
-2.15918e-07
1.03294e-06
-2.07943e-07
1.13068e-06
-1.99855e-07
1.22461e-06
-1.91752e-07
1.31472e-06
-1.83696e-07
1.40104e-06
-1.75736e-07
1.48364e-06
-1.67903e-07
1.56257e-06
-1.60255e-07
1.63791e-06
-1.52795e-07
1.70976e-06
-1.4554e-07
1.77822e-06
-1.38497e-07
1.84339e-06
-1.31689e-07
1.90538e-06
-1.25104e-07
1.96427e-06
-1.18715e-07
2.02014e-06
-1.12509e-07
2.0731e-06
-1.06488e-07
2.12321e-06
-1.00622e-07
2.17052e-06
-9.48691e-08
2.21503e-06
-8.91548e-08
2.25672e-06
-8.33544e-08
2.29543e-06
-7.727e-08
2.33089e-06
-7.05943e-08
2.36253e-06
-6.27464e-08
2.38941e-06
-5.2712e-08
2.40981e-06
-3.80622e-08
2.42325e-06
-1.40643e-08
2.42902e-06
3.26592e-08
1.22416e-07
2.41318e-06
1.78491e-08
-5.89969e-08
2.55935e-08
-5.30005e-08
2.66999e-08
-3.97946e-08
2.3235e-08
-2.70666e-08
1.62509e-08
-1.44387e-08
6.33597e-09
-1.74199e-09
-6.29393e-09
1.09932e-08
-2.15451e-08
2.36688e-08
-3.94755e-08
3.61672e-08
-6.01773e-08
4.83526e-08
-8.38604e-08
6.0083e-08
-1.1071e-07
7.12453e-08
-1.40934e-07
8.1789e-08
-1.74627e-07
9.1737e-08
-2.11836e-07
1.01175e-07
-2.52431e-07
1.1022e-07
-2.96219e-07
1.1898e-07
-3.42903e-07
1.27524e-07
-3.92204e-07
1.35866e-07
-4.43752e-07
1.43961e-07
-4.97213e-07
1.51709e-07
-5.52179e-07
1.58972e-07
-6.08299e-07
1.65599e-07
-6.65157e-07
1.71438e-07
-7.22419e-07
1.76359e-07
-7.79712e-07
1.80261e-07
-8.36758e-07
1.83078e-07
-8.93247e-07
1.84783e-07
-9.48969e-07
1.85386e-07
-1.0037e-06
1.84942e-07
-1.05734e-06
1.8354e-07
-1.10976e-06
1.81289e-07
-1.16093e-06
1.78308e-07
-1.21077e-06
1.74725e-07
-1.25929e-06
1.70664e-07
-1.30645e-06
1.66246e-07
-1.35229e-06
1.6158e-07
-1.3968e-06
1.56763e-07
-1.44003e-06
1.51883e-07
-1.48197e-06
1.47011e-07
-1.5227e-06
1.42206e-07
-1.56222e-06
1.37514e-07
-1.60059e-06
1.32969e-07
-1.63784e-06
1.28596e-07
-1.67403e-06
1.24411e-07
-1.70919e-06
1.20423e-07
-1.74338e-06
1.16635e-07
-1.77662e-06
1.13047e-07
-1.80897e-06
1.09654e-07
-1.84046e-06
1.0645e-07
-1.87114e-06
1.03426e-07
-1.90104e-06
1.00573e-07
-1.93021e-06
9.788e-08
-1.95868e-06
9.53384e-08
-1.98648e-06
9.29374e-08
-2.01364e-06
9.06691e-08
-2.04021e-06
8.85246e-08
-2.0662e-06
8.64977e-08
-2.09165e-06
8.45818e-08
-2.11658e-06
8.27733e-08
-2.14102e-06
8.10668e-08
-2.16499e-06
7.94607e-08
-2.18853e-06
7.79516e-08
-2.21166e-06
7.65397e-08
-2.23441e-06
7.52236e-08
-2.2568e-06
7.40054e-08
-2.27887e-06
7.28849e-08
-2.30064e-06
7.18654e-08
-2.32214e-06
7.0947e-08
-2.3434e-06
7.01335e-08
-2.36445e-06
6.94235e-08
-2.38532e-06
6.88196e-08
-2.40603e-06
6.83188e-08
-2.42662e-06
6.79215e-08
-2.44711e-06
6.76219e-08
-2.46751e-06
6.74177e-08
-2.48787e-06
6.73001e-08
-2.50818e-06
6.72646e-08
-2.52847e-06
6.73013e-08
-2.54875e-06
6.74041e-08
-2.56902e-06
6.75598e-08
-2.58927e-06
6.7748e-08
-2.60952e-06
6.79357e-08
-2.62975e-06
6.81041e-08
-2.64993e-06
6.82365e-08
-2.67002e-06
6.83018e-08
-2.69e-06
6.82647e-08
-2.7098e-06
6.80992e-08
-2.72937e-06
6.77714e-08
-2.74863e-06
6.72489e-08
-2.76751e-06
6.64737e-08
-2.78594e-06
6.54057e-08
-2.80381e-06
6.40109e-08
-2.82104e-06
6.22541e-08
-2.83748e-06
6.00982e-08
-2.85296e-06
5.75181e-08
-2.8674e-06
5.44432e-08
-2.88066e-06
5.08535e-08
-2.89257e-06
4.67339e-08
-2.903e-06
4.2058e-08
-2.91187e-06
3.68032e-08
-2.91894e-06
3.10211e-08
-2.92397e-06
2.47414e-08
-2.92686e-06
1.7894e-08
-2.92751e-06
1.04065e-08
-2.92566e-06
2.36834e-09
-2.92112e-06
-6.24929e-09
-2.91357e-06
-1.5471e-08
-2.90281e-06
-2.53184e-08
-2.8885e-06
-3.57424e-08
-2.87052e-06
-4.67383e-08
-2.84874e-06
-5.82896e-08
-2.8229e-06
-7.0355e-08
-2.79284e-06
-8.29502e-08
-2.75847e-06
-9.60745e-08
-2.71958e-06
-1.09652e-07
-2.67601e-06
-1.23624e-07
-2.6276e-06
-1.37917e-07
-2.57438e-06
-1.52543e-07
-2.51618e-06
-1.67397e-07
-2.45295e-06
-1.82457e-07
-2.38461e-06
-1.97657e-07
-2.31117e-06
-2.12934e-07
-2.23261e-06
-2.28189e-07
-2.14898e-06
-2.43326e-07
-2.06034e-06
-2.58257e-07
-1.9668e-06
-2.72892e-07
-1.8685e-06
-2.87123e-07
-1.76563e-06
-3.00844e-07
-1.65839e-06
-3.13938e-07
-1.54706e-06
-3.263e-07
-1.43193e-06
-3.37822e-07
-1.31336e-06
-3.48396e-07
-1.19171e-06
-3.57927e-07
-1.06735e-06
-3.66322e-07
-9.40712e-07
-3.73509e-07
-8.12215e-07
-3.79437e-07
-6.82308e-07
-3.84077e-07
-5.51434e-07
-3.87411e-07
-4.20033e-07
-3.89476e-07
-2.88533e-07
-3.90328e-07
-1.5727e-07
-3.90096e-07
-2.65518e-08
-3.88908e-07
1.03089e-07
-3.86757e-07
2.30953e-07
-3.83557e-07
3.5645e-07
-3.79258e-07
4.7906e-07
-3.73893e-07
5.98233e-07
-3.67378e-07
7.13863e-07
-3.59466e-07
8.26135e-07
-3.50205e-07
9.34988e-07
-3.39953e-07
1.04031e-06
-3.29014e-07
1.142e-06
-3.17617e-07
1.24e-06
-3.05939e-07
1.33425e-06
-2.94117e-07
1.42477e-06
-2.82267e-07
1.51155e-06
-2.70482e-07
1.59465e-06
-2.58829e-07
1.67411e-06
-2.47362e-07
1.75001e-06
-2.36146e-07
1.82243e-06
-2.2522e-07
1.8915e-06
-2.14599e-07
1.9573e-06
-2.04293e-07
2.01993e-06
-1.94315e-07
2.0795e-06
-1.84662e-07
2.13609e-06
-1.75301e-07
2.18981e-06
-1.66218e-07
2.24073e-06
-1.57401e-07
2.28893e-06
-1.48811e-07
2.33445e-06
-1.40384e-07
2.37731e-06
-1.32013e-07
2.41748e-06
-1.23516e-07
2.45483e-06
-1.1462e-07
2.48914e-06
-1.04895e-07
2.51997e-06
-9.35818e-08
2.54665e-06
-7.93963e-08
2.56822e-06
-5.96423e-08
2.58395e-06
-2.9793e-08
2.59573e-06
2.08723e-08
1.10861e-07
2.60729e-06
4.09229e-09
-6.31339e-08
-7.93189e-11
-4.88526e-08
-7.48552e-09
-3.24149e-08
-1.75342e-08
-1.70279e-08
-2.99076e-08
-2.08447e-09
-4.43885e-08
1.27315e-08
-6.09309e-08
2.75184e-08
-7.95371e-08
4.2268e-08
-1.00305e-07
5.69181e-08
-1.23336e-07
7.13753e-08
-1.48803e-07
8.55328e-08
-1.76857e-07
9.92905e-08
-2.07661e-07
1.12575e-07
-2.41281e-07
1.25349e-07
-2.77732e-07
1.37607e-07
-3.16887e-07
1.49366e-07
-3.58565e-07
1.60639e-07
-4.02471e-07
1.71421e-07
-4.48296e-07
1.81672e-07
-4.9566e-07
1.91317e-07
-5.4422e-07
2.00249e-07
-5.93596e-07
2.0834e-07
-6.43476e-07
2.15459e-07
-6.93533e-07
2.21488e-07
-7.43522e-07
2.2633e-07
-7.93191e-07
2.29924e-07
-8.42377e-07
2.32246e-07
-8.90908e-07
2.33309e-07
-9.38704e-07
2.33165e-07
-9.85668e-07
2.31899e-07
-1.03177e-06
2.29622e-07
-1.07694e-06
2.26459e-07
-1.12119e-06
2.22542e-07
-1.16448e-06
2.18004e-07
-1.20681e-06
2.12975e-07
-1.24815e-06
2.07581e-07
-1.28852e-06
2.01933e-07
-1.3279e-06
1.96137e-07
-1.36632e-06
1.9028e-07
-1.40376e-06
1.84439e-07
-1.44025e-06
1.78674e-07
-1.47578e-06
1.73034e-07
-1.51039e-06
1.67557e-07
-1.54408e-06
1.62271e-07
-1.57689e-06
1.57193e-07
-1.60882e-06
1.52337e-07
-1.63992e-06
1.47706e-07
-1.6702e-06
1.43302e-07
-1.6997e-06
1.39122e-07
-1.72843e-06
1.35158e-07
-1.75643e-06
1.31404e-07
-1.78373e-06
1.27849e-07
-1.81036e-06
1.24482e-07
-1.83634e-06
1.21294e-07
-1.8617e-06
1.18274e-07
-1.88647e-06
1.15412e-07
-1.91067e-06
1.127e-07
-1.93432e-06
1.10129e-07
-1.95746e-06
1.07694e-07
-1.98009e-06
1.05389e-07
-2.00226e-06
1.03209e-07
-2.02396e-06
1.01152e-07
-2.04525e-06
9.92157e-08
-2.06613e-06
9.73997e-08
-2.08663e-06
9.57041e-08
-2.10677e-06
9.41304e-08
-2.12659e-06
9.26801e-08
-2.1461e-06
9.1356e-08
-2.16534e-06
9.016e-08
-2.18432e-06
8.90944e-08
-2.20308e-06
8.81603e-08
-2.22165e-06
8.73585e-08
-2.24004e-06
8.66873e-08
-2.2583e-06
8.61448e-08
-2.27643e-06
8.57261e-08
-2.29448e-06
8.54256e-08
-2.31245e-06
8.52346e-08
-2.33037e-06
8.5144e-08
-2.34826e-06
8.5142e-08
-2.36612e-06
8.52156e-08
-2.38396e-06
8.53472e-08
-2.40178e-06
8.55127e-08
-2.41958e-06
8.56807e-08
-2.43736e-06
8.58211e-08
-2.45509e-06
8.59043e-08
-2.47275e-06
8.5894e-08
-2.4903e-06
8.57501e-08
-2.5077e-06
8.54339e-08
-2.52489e-06
8.49071e-08
-2.54181e-06
8.411e-08
-2.55841e-06
8.30016e-08
-2.5746e-06
8.152e-08
-2.5903e-06
7.96202e-08
-2.60541e-06
7.72574e-08
-2.61983e-06
7.43822e-08
-2.63341e-06
7.09551e-08
-2.64604e-06
6.69232e-08
-2.6576e-06
6.2248e-08
-2.66792e-06
5.68978e-08
-2.67686e-06
5.08462e-08
-2.68428e-06
4.4067e-08
-2.68998e-06
3.65706e-08
-2.69374e-06
2.8354e-08
-2.69538e-06
1.9389e-08
-2.69473e-06
9.61666e-09
-2.69156e-06
-9.31953e-10
-2.68565e-06
-1.22908e-08
-2.67678e-06
-2.44693e-08
-2.66473e-06
-3.74833e-08
-2.64929e-06
-5.12891e-08
-2.63027e-06
-6.5857e-08
-2.60751e-06
-8.11427e-08
-2.58081e-06