/*--------------------------------*- C++ -*----------------------------------*\
| =========                 |                                                 |
| \\      /  F ield         | OpenFOAM: The Open Source CFD Toolbox           |
|  \\    /   O peration     | Version:  4.1                                   |
|   \\  /    A nd           | Web:      www.OpenFOAM.org                      |
|    \\/     M anipulation  |                                                 |
\*---------------------------------------------------------------------------*/
FoamFile
{
    version     2.0;
    format      ascii;
    class       volVectorField;
    location    "100";
    object      U;
}
// * * * * * * * * * * * * * * * * * * * * * * * * * * * * * * * * * * * * * //

dimensions      [0 1 -1 0 0 0 0];

internalField   nonuniform List<vector> 
12225
(
(9.83554 -0.969395 0)
(9.5767 -0.895708 0)
(9.29115 -0.596697 0)
(8.97715 -0.36938 0)
(8.67892 -0.224443 0)
(8.41303 -0.13642 0)
(8.18046 -0.0832785 0)
(7.9784 -0.0508698 0)
(7.80372 -0.0309866 0)
(7.65307 -0.0186132 0)
(7.52317 -0.0109291 0)
(7.41083 -0.00619899 0)
(7.3138 -0.00337981 0)
(7.23009 -0.00184779 0)
(7.1581 -0.00116828 0)
(7.09907 -0.00182296 0)
(7.04365 0.000896189 0)
(7.02195 -0.0207795 0)
(10.0744 0.265629 0)
(10.1924 0.434343 0)
(10.2332 0.398369 0)
(10.2322 0.321208 0)
(10.2112 0.253635 0)
(10.1765 0.201257 0)
(10.1277 0.161915 0)
(10.0674 0.132814 0)
(9.99954 0.111211 0)
(9.92771 0.094856 0)
(9.85417 0.0821943 0)
(9.78075 0.0721593 0)
(9.70855 0.0639686 0)
(9.63872 0.0571075 0)
(9.57171 0.0508813 0)
(9.5085 0.0456796 0)
(9.44971 0.0382471 0)
(9.39772 0.0370033 0)
(10.0026 0.0614187 0)
(10.0298 0.0474478 0)
(10.0598 0.00567519 0)
(10.0889 -0.00538391 0)
(10.1152 0.00335916 0)
(10.1386 0.0155678 0)
(10.1564 0.0260453 0)
(10.1681 0.0342645 0)
(10.1744 0.0403769 0)
(10.1765 0.0446087 0)
(10.1752 0.047293 0)
(10.171 0.048757 0)
(10.1646 0.0492405 0)
(10.1566 0.0488821 0)
(10.1475 0.0476855 0)
(10.1378 0.0455862 0)
(10.1283 0.0421648 0)
(10.1181 0.0357709 0)
(9.99667 0.00935276 0)
(10.0076 0.0254898 0)
(10.0332 0.0384686 0)
(10.0551 0.0549596 0)
(10.0723 0.0674537 0)
(10.0879 0.0730578 0)
(10.102 0.0740518 0)
(10.1142 0.0729591 0)
(10.1248 0.0709754 0)
(10.1342 0.0685745 0)
(10.1427 0.0659692 0)
(10.1502 0.0632814 0)
(10.157 0.0605096 0)
(10.1631 0.0575978 0)
(10.1689 0.0543588 0)
(10.1743 0.0505753 0)
(10.1793 0.0456254 0)
(10.1834 0.0383076 0)
(9.999 0.00654343 0)
(10.0077 0.0346484 0)
(10.0277 0.0493494 0)
(10.0436 0.0559117 0)
(10.0558 0.0589919 0)
(10.0678 0.0597307 0)
(10.0794 0.0591502 0)
(10.0901 0.0581475 0)
(10.0997 0.0570441 0)
(10.1087 0.0558395 0)
(10.1171 0.0544959 0)
(10.1251 0.0529828 0)
(10.1328 0.0512474 0)
(10.1402 0.0491993 0)
(10.1474 0.0466778 0)
(10.1543 0.0434664 0)
(10.1609 0.0391775 0)
(10.1667 0.0334711 0)
(10.0002 0.00920901 0)
(10.0078 0.0333611 0)
(10.0233 0.0442271 0)
(10.0367 0.048374 0)
(10.0476 0.051597 0)
(10.0584 0.0539154 0)
(10.069 0.0549247 0)
(10.0788 0.0550215 0)
(10.0876 0.0545797 0)
(10.0959 0.0537347 0)
(10.1038 0.0525369 0)
(10.1113 0.0510188 0)
(10.1185 0.0491757 0)
(10.1256 0.0469563 0)
(10.1324 0.0442483 0)
(10.1391 0.0408975 0)
(10.1452 0.036717 0)
(10.1506 0.031575 0)
(10.0004 0.00899827 0)
(10.0068 0.0279762 0)
(10.0194 0.0382314 0)
(10.0316 0.0434157 0)
(10.0421 0.0474269 0)
(10.0521 0.0501779 0)
(10.0619 0.0513547 0)
(10.071 0.0514443 0)
(10.0794 0.0509228 0)
(10.0872 0.0499829 0)
(10.0947 0.0486905 0)
(10.1019 0.047077 0)
(10.1088 0.0451421 0)
(10.1154 0.0428418 0)
(10.1218 0.0400952 0)
(10.1279 0.0367986 0)
(10.1335 0.0328681 0)
(10.1384 0.02827 0)
(10.0004 0.00798928 0)
(10.0059 0.0240488 0)
(10.0167 0.0343157 0)
(10.0279 0.0399828 0)
(10.0379 0.0439065 0)
(10.0474 0.0464847 0)
(10.0567 0.0476413 0)
(10.0654 0.0477918 0)
(10.0735 0.0473427 0)
(10.0811 0.0464645 0)
(10.0884 0.045217 0)
(10.0953 0.0436299 0)
(10.102 0.0417088 0)
(10.1083 0.039424 0)
(10.1144 0.0367236 0)
(10.1201 0.0335469 0)
(10.1253 0.0298674 0)
(10.1298 0.0257066 0)
(10.0004 0.00713184 0)
(10.0052 0.0212551 0)
(10.0145 0.0310652 0)
(10.0248 0.0367344 0)
(10.0343 0.0405102 0)
(10.0434 0.0430032 0)
(10.0523 0.0442155 0)
(10.0607 0.0444624 0)
(10.0686 0.0440894 0)
(10.076 0.0432622 0)
(10.0831 0.0420466 0)
(10.0899 0.0404776 0)
(10.0963 0.0385695 0)
(10.1024 0.0363075 0)
(10.1082 0.0336631 0)
(10.1137 0.0306071 0)
(10.1185 0.0271462 0)
(10.1228 0.023328 0)
(10.0004 0.00631226 0)
(10.0045 0.0185936 0)
(10.0125 0.0276039 0)
(10.0218 0.0331056 0)
(10.0307 0.0367436 0)
(10.0392 0.0391578 0)
(10.0477 0.0404054 0)
(10.0558 0.0407247 0)
(10.0635 0.0404101 0)
(10.0707 0.0396261 0)
(10.0776 0.0384441 0)
(10.0841 0.0369036 0)
(10.0904 0.0350272 0)
(10.0963 0.032816 0)
(10.1018 0.030262 0)
(10.1069 0.0273626 0)
(10.1116 0.0241456 0)
(10.1156 0.0206713 0)
(10.0004 0.00548078 0)
(10.0039 0.0159653 0)
(10.0107 0.0240135 0)
(10.0189 0.0292271 0)
(10.0271 0.0326809 0)
(10.0351 0.0349589 0)
(10.0431 0.0361804 0)
(10.0508 0.0365316 0)
(10.0581 0.0362551 0)
(10.0651 0.0355072 0)
(10.0717 0.0343628 0)
(10.0781 0.0328647 0)
(10.084 0.0310425 0)
(10.0897 0.0289118 0)
(10.095 0.0264829 0)
(10.0998 0.0237725 0)
(10.1042 0.020821 0)
(10.1081 0.01769 0)
(10.0003 0.00463235 0)
(10.0033 0.0133965 0)
(10.009 0.0203766 0)
(10.0162 0.0251442 0)
(10.0237 0.0283259 0)
(10.0311 0.0304022 0)
(10.0385 0.0315365 0)
(10.0458 0.031879 0)
(10.0527 0.0316197 0)
(10.0594 0.0308986 0)
(10.0657 0.0297931 0)
(10.0718 0.028349 0)
(10.0775 0.0266025 0)
(10.0828 0.0245796 0)
(10.0878 0.0223058 0)
(10.0924 0.0198096 0)
(10.0965 0.017137 0)
(10.1003 0.0143431 0)
(10.0003 0.00378526 0)
(10.0028 0.0109056 0)
(10.0076 0.0167354 0)
(10.0138 0.0208915 0)
(10.0205 0.0236971 0)
(10.0273 0.0255061 0)
(10.0342 0.0264906 0)
(10.0409 0.0267765 0)
(10.0475 0.0265063 0)
(10.0537 0.0257988 0)
(10.0597 0.0247306 0)
(10.0654 0.0233518 0)
(10.0708 0.0217004 0)
(10.0759 0.0198108 0)
(10.0806 0.0177153 0)
(10.0849 0.0154511 0)
(10.0888 0.0130613 0)
(10.0923 0.0105938 0)
(10.0002 0.00295276 0)
(10.0023 0.0084892 0)
(10.0063 0.0131111 0)
(10.0117 0.0165102 0)
(10.0177 0.0188268 0)
(10.0239 0.0202931 0)
(10.0301 0.0210596 0)
(10.0364 0.0212317 0)
(10.0424 0.0209148 0)
(10.0483 0.0202043 0)
(10.054 0.0191708 0)
(10.0593 0.0178653 0)
(10.0644 0.0163261 0)
(10.0691 0.0145894 0)
(10.0735 0.0126905 0)
(10.0776 0.0106673 0)
(10.0813 0.00855986 0)
(10.0846 0.00640408 0)
(10.0002 0.0021388 0)
(10.002 0.00613396 0)
(10.0053 0.00950861 0)
(10.0099 0.0120304 0)
(10.0152 0.0137427 0)
(10.0208 0.0147802 0)
(10.0265 0.0152557 0)
(10.0322 0.015252 0)
(10.0379 0.0148466 0)
(10.0434 0.0141109 0)
(10.0486 0.0131051 0)
(10.0536 0.0118746 0)
(10.0584 0.010457 0)
(10.0628 0.00888503 0)
(10.0669 0.00719296 0)
(10.0707 0.00541366 0)
(10.0742 0.00358276 0)
(10.0774 0.00172425 0)
(10.0002 0.00133895 0)
(10.0017 0.00381476 0)
(10.0045 0.00590697 0)
(10.0086 0.0074511 0)
(10.0132 0.0084472 0)
(10.0183 0.00896363 0)
(10.0235 0.00907123 0)
(10.0287 0.00882809 0)
(10.0339 0.00828711 0)
(10.039 0.00749803 0)
(10.0439 0.00650482 0)
(10.0486 0.00534451 0)
(10.0531 0.00404851 0)
(10.0572 0.00264472 0)
(10.0611 0.00116056 0)
(10.0647 -0.000377483 0)
(10.068 -0.00194216 0)
(10.0711 -0.00351787 0)
(10.0002 0.000538537 0)
(10.0014 0.00148706 0)
(10.004 0.00225229 0)
(10.0075 0.00272848 0)
(10.0118 0.00290428 0)
(10.0163 0.00280561 0)
(10.0211 0.00246738 0)
(10.026 0.00191962 0)
(10.0309 0.00119307 0)
(10.0356 0.000315404 0)
(10.0402 -0.000686356 0)
(10.0447 -0.00178935 0)
(10.0488 -0.00297113 0)
(10.0528 -0.0042128 0)
(10.0565 -0.00549499 0)
(10.0599 -0.00680076 0)
(10.0631 -0.0081111 0)
(10.066 -0.00941941 0)
(10.0001 -0.000241216 0)
(10.0013 -0.000781558 0)
(10.0037 -0.00133307 0)
(10.007 -0.0019457 0)
(10.011 -0.00262822 0)
(10.0153 -0.00338057 0)
(10.0199 -0.0042018 0)
(10.0245 -0.00508643 0)
(10.0292 -0.00602741 0)
(10.0337 -0.0070154 0)
(10.0381 -0.00804375 0)
(10.0424 -0.00910341 0)
(10.0464 -0.0101866 0)
(10.0502 -0.0112827 0)
(10.0537 -0.0123839 0)
(10.057 -0.0134802 0)
(10.0601 -0.014563 0)
(10.063 -0.0156308 0)
(10.0001 -0.000952262 0)
(10.0013 -0.00285375 0)
(10.0037 -0.00462308 0)
(10.007 -0.00625023 0)
(10.0109 -0.0077303 0)
(10.0153 -0.00908931 0)
(10.0198 -0.0103587 0)
(10.0244 -0.0115577 0)
(10.0289 -0.0126982 0)
(10.0334 -0.0137908 0)
(10.0378 -0.0148458 0)
(10.0419 -0.0158702 0)
(10.0459 -0.0168677 0)
(10.0496 -0.0178392 0)
(10.0531 -0.0187852 0)
(10.0564 -0.019705 0)
(10.0595 -0.0205959 0)
(10.0623 -0.0214625 0)
(10.0001 -0.00159528 0)
(10.0014 -0.00474127 0)
(10.0038 -0.00763447 0)
(10.0073 -0.0101791 0)
(10.0114 -0.012358 0)
(10.0159 -0.0142417 0)
(10.0205 -0.0158957 0)
(10.0252 -0.0173569 0)
(10.0298 -0.0186546 0)
(10.0344 -0.019823 0)
(10.0388 -0.0208892 0)
(10.0429 -0.0218747 0)
(10.0469 -0.0227915 0)
(10.0506 -0.0236514 0)
(10.0541 -0.024461 0)
(10.0574 -0.0252278 0)
(10.0605 -0.0259536 0)
(10.0633 -0.0266471 0)
(10.0002 -0.00219011 0)
(10.0015 -0.0065363 0)
(10.0041 -0.0105323 0)
(10.0079 -0.0139146 0)
(10.0124 -0.0166851 0)
(10.0171 -0.0190125 0)
(10.0219 -0.0209985 0)
(10.0268 -0.0226768 0)
(10.0316 -0.0240921 0)
(10.0362 -0.0253013 0)
(10.0407 -0.0263548 0)
(10.045 -0.0272842 0)
(10.049 -0.028115 0)
(10.0528 -0.0288636 0)
(10.0563 -0.0295472 0)
(10.0596 -0.0301751 0)
(10.0627 -0.0307569 0)
(10.0656 -0.0313007 0)
(10.0001 -0.00272311 0)
(10.0015 -0.00827664 0)
(10.0045 -0.0134306 0)
(10.0088 -0.0175934 0)
(10.0137 -0.0208433 0)
(10.0187 -0.0235189 0)
(10.0238 -0.0257597 0)
(10.0289 -0.0275976 0)
(10.034 -0.0290935 0)
(10.0388 -0.0303253 0)
(10.0434 -0.0313523 0)
(10.0477 -0.0322164 0)
(10.0518 -0.0329508 0)
(10.0557 -0.0335838 0)
(10.0593 -0.0341368 0)
(10.0626 -0.0346269 0)
(10.0657 -0.0350634 0)
(10.0686 -0.0354589 0)
(10.0001 -0.00316504 0)
(10.0014 -0.00998846 0)
(10.0048 -0.0163187 0)
(10.0099 -0.021185 0)
(10.0153 -0.0249051 0)
(10.0206 -0.0279273 0)
(10.026 -0.030347 0)
(10.0314 -0.0322313 0)
(10.0367 -0.0337172 0)
(10.0417 -0.034918 0)
(10.0464 -0.0358937 0)
(10.0509 -0.0366863 0)
(10.0551 -0.0373331 0)
(10.0591 -0.0378695 0)
(10.0627 -0.0383201 0)
(10.0662 -0.0387044 0)
(10.0693 -0.0390342 0)
(10.0723 -0.039323 0)
(9.99998 -0.00345443 0)
(10.0011 -0.0120391 0)
(10.0051 -0.0193272 0)
(10.0109 -0.0243692 0)
(10.0168 -0.0284607 0)
(10.0226 -0.0320129 0)
(10.0284 -0.0347681 0)
(10.0341 -0.0367495 0)
(10.0396 -0.0382015 0)
(10.0449 -0.0393049 0)
(10.0498 -0.0401436 0)
(10.0544 -0.0407729 0)
(10.0588 -0.0412456 0)
(10.0629 -0.0416059 0)
(10.0666 -0.0418869 0)
(10.0701 -0.04211 0)
(10.0734 -0.0422893 0)
(10.0764 -0.0424285 0)
(9.99968 -0.00293458 0)
(10.0004 -0.0150565 0)
(10.0054 -0.0238054 0)
(10.0119 -0.0281283 0)
(10.018 -0.031616 0)
(10.0242 -0.0351678 0)
(10.0306 -0.0381869 0)
(10.037 -0.0404855 0)
(10.043 -0.0422297 0)
(10.0486 -0.0435603 0)
(10.0539 -0.0445479 0)
(10.0589 -0.0452556 0)
(10.0635 -0.0457488 0)
(10.0678 -0.046084 0)
(10.0718 -0.0463052 0)
(10.0755 -0.0464441 0)
(10.079 -0.0465233 0)
(10.0822 -0.0465573 0)
(9.99821 0.000569289 0)
(9.99705 -0.0156343 0)
(10.0047 -0.0288886 0)
(10.0132 -0.0350401 0)
(10.0199 -0.038137 0)
(10.0265 -0.040172 0)
(10.0337 -0.0415804 0)
(10.0409 -0.0426591 0)
(10.0477 -0.0435808 0)
(10.0541 -0.044371 0)
(10.0601 -0.0450115 0)
(10.0658 -0.0455189 0)
(10.071 -0.0459181 0)
(10.0758 -0.0462373 0)
(10.0803 -0.0464967 0)
(10.0844 -0.0467141 0)
(10.0882 -0.0468945 0)
(10.0917 -0.047013 0)
(9.99426 0.00346646 0)
(9.9893 -0.00619745 0)
(10.0008 -0.0208019 0)
(10.0148 -0.0365316 0)
(10.0256 -0.0491061 0)
(10.0352 -0.0566554 0)
(10.0445 -0.0603911 0)
(10.0533 -0.0620488 0)
(10.0615 -0.0626323 0)
(10.0691 -0.062532 0)
(10.0762 -0.0619903 0)
(10.0828 -0.0611774 0)
(10.0889 -0.060235 0)
(10.0944 -0.0592448 0)
(10.0995 -0.0582751 0)
(10.104 -0.057359 0)
(10.1082 -0.0565233 0)
(10.1121 -0.0557217 0)
(9.99386 -0.0267507 0)
(9.99314 -0.0112052 0)
(10.005 0.0199921 0)
(10.0222 0.0290656 0)
(10.0406 0.0214702 0)
(10.0592 0.00967782 0)
(10.0766 -0.00134062 0)
(10.0918 -0.0110019 0)
(10.1049 -0.0192715 0)
(10.1161 -0.0261416 0)
(10.1257 -0.0316759 0)
(10.1336 -0.0360822 0)
(10.1401 -0.0395468 0)
(10.1452 -0.0422631 0)
(10.149 -0.044381 0)
(10.1518 -0.0460553 0)
(10.1537 -0.0474061 0)
(10.1545 -0.0485378 0)
(10.0315 -0.194364 0)
(10.095 -0.342907 0)
(10.1268 -0.333312 0)
(10.1422 -0.283927 0)
(10.1577 -0.237788 0)
(10.1736 -0.200124 0)
(10.1847 -0.169959 0)
(10.1885 -0.146214 0)
(10.1852 -0.127664 0)
(10.1758 -0.113004 0)
(10.1615 -0.101264 0)
(10.143 -0.0917374 0)
(10.1214 -0.083941 0)
(10.0973 -0.077493 0)
(10.0714 -0.0721329 0)
(10.0443 -0.0676903 0)
(10.0165 -0.0640231 0)
(9.98863 -0.0614061 0)
(9.93977 0.728684 0)
(9.86945 0.71393 0)
(9.75669 0.51013 0)
(9.5981 0.343019 0)
(9.42125 0.226196 0)
(9.24478 0.147279 0)
(9.07506 0.0943014 0)
(8.9146 0.0584641 0)
(8.76515 0.034039 0)
(8.62753 0.0173756 0)
(8.50155 0.0060747 0)
(8.3866 -0.00150829 0)
(8.28187 -0.00647584 0)
(8.18654 -0.00968671 0)
(8.09968 -0.0116574 0)
(8.02046 -0.0127845 0)
(7.94773 -0.0134018 0)
(7.88112 -0.0140576 0)
(0.00525626 -0.00818498 0)
(0.0235624 -0.0277916 0)
(0.0456233 -0.0364798 0)
(0.0687022 -0.036533 0)
(0.0888816 -0.0310293 0)
(0.104045 -0.0228216 0)
(0.113571 -0.0135923 -2.55273e-19)
(0.117516 -0.00418311 2.49684e-19)
(0.115517 0.00481186 0)
(0.107843 0.0128197 2.47421e-19)
(0.0953681 0.0195142 0)
(0.0789453 0.0247666 0)
(0.0593545 0.0286051 0)
(0.0372564 0.0312827 -2.89272e-19)
(0.0131035 0.0332435 0)
(-0.0128348 0.0347916 0)
(-0.0405309 0.0359788 2.90692e-19)
(-0.0702337 0.0370827 0)
(-0.102227 0.0384238 0)
(-0.136684 0.0401014 0)
(-0.173827 0.0420685 -1.88872e-19)
(-0.213804 0.0442518 0)
(-0.256653 0.0465466 -1.55529e-19)
(-0.302453 0.0489316 0)
(-0.35114 0.0512851 0)
(-0.402536 0.0535169 -1.19161e-19)
(-0.456401 0.0555283 0)
(-0.512415 0.0572574 1.01682e-19)
(-0.570224 0.0586289 0)
(-0.629403 0.0596121 -8.82031e-20)
(-0.689524 0.0601664 0)
(-0.750136 0.0603027 0)
(-0.810822 0.060023 0)
(-0.871191 0.0593734 0)
(-0.930908 0.05838 0)
(-0.989677 0.0571082 6.33739e-20)
(-1.04726 0.0555952 0)
(-1.10348 0.0539123 -1.16722e-19)
(-1.1582 0.0520975 0)
(-1.21134 0.0502143 1.08669e-19)
(-1.26284 0.0482872 0)
(-1.3127 0.0463678 0)
(-1.36094 0.0444666 -9.92345e-20)
(-1.4076 0.0426193 0)
(-1.45272 0.0408257 -9.42089e-20)
(-1.49638 0.039113 9.19815e-20)
(-1.53864 0.0374707 0)
(-1.57957 0.0359165 8.79696e-20)
(-1.61924 0.0344337 8.61477e-20)
(-1.65773 0.0330391 0)
(-1.69509 0.0317123 0)
(-1.73141 0.0304659 0)
(-1.76676 0.029278 0)
(-1.80117 0.0281625 0)
(-1.83473 0.0270962 -7.69721e-20)
(-1.86746 0.026092 0)
(-1.89944 0.025129 7.43473e-20)
(-1.9307 0.0242227 0)
(-1.96129 0.0233523 0)
(-1.99123 0.0225352 -7.06405e-20)
(-2.02056 0.0217497 0)
(-2.04932 0.0210149 6.82723e-20)
(-2.07755 0.0203094 0)
(-2.10528 0.0196542 0)
(-2.13256 0.0190281 0)
(-2.1594 0.0184543 -6.36778e-20)
(-2.18585 0.0179119 0)
(-2.21195 0.0174251 0)
(-2.23774 0.0169724 -6.02953e-20)
(-2.26325 0.0165791 0)
(-2.28852 0.0162219 -5.80546e-20)
(-2.3136 0.0159248 0)
(-2.33852 0.0156642 0)
(-2.36333 0.0154663 0)
(-2.38808 0.0153067 5.36019e-20)
(-2.41279 0.0152115 0)
(-2.43752 0.015157 0)
(-2.46231 0.0151683 5.02996e-20)
(-2.48719 0.0152231 4.921e-20)
(-2.51219 0.0153756 0)
(-2.53736 0.0156549 4.70587e-20)
(-2.56276 0.0159636 0)
(-2.5884 0.0161383 8.99205e-20)
(-2.61425 0.016419 0)
(-2.64032 0.0168828 8.58396e-20)
(-2.6667 0.0173192 0)
(-2.69332 0.0177381 -8.1923e-20)
(-2.72016 0.0181791 0)
(-2.74716 0.0186209 0)
(-2.7743 0.0190154 0)
(-2.80156 0.0193251 7.47344e-20)
(-2.82882 0.0194693 0)
(-2.85604 0.0197007 -7.15067e-20)
(-2.88308 0.0194068 0)
(-2.90979 0.0193848 6.8543e-20)
(-2.93626 0.0196734 6.7193e-20)
(-2.96227 0.0190229 6.58912e-20)
(-2.98751 0.0183492 0)
(-3.01182 0.0176638 0)
(-3.035 0.0166219 0)
(-3.05666 0.0149648 0)
(-3.07637 0.0136539 0)
(-3.09423 0.0138687 0)
(-3.11013 0.0127105 0)
(-3.12329 0.0110966 0)
(-3.13353 0.00960247 -5.72879e-20)
(-3.14023 0.00762515 -5.65663e-20)
(-3.14365 0.00617029 0)
(-3.14392 0.00454716 0)
(-3.14101 0.00395345 0)
(-3.13497 0.00257294 -5.35897e-20)
(-3.12514 0.000212351 0)
(-3.11149 -0.000983329 0)
(-3.09408 -0.00258596 0)
(-3.07245 -0.00476643 0)
(-3.04642 -0.00691311 4.85713e-20)
(-3.01592 -0.00869836 0)
(-2.98101 -0.0106116 0)
(-2.94131 -0.0134376 -4.39725e-20)
(-2.89665 -0.0159858 4.19436e-20)
(-2.84714 -0.0182828 0)
(-2.79267 -0.0209665 3.69852e-20)
(-2.73315 -0.0237133 0)
(-2.66859 -0.0265723 -3.05263e-20)
(-2.59896 -0.0295284 0)
(-2.52432 -0.0325827 0)
(-2.44472 -0.0356996 0)
(-2.36024 -0.0388825 0)
(-2.27102 -0.0420894 0)
(-2.1772 -0.0453134 -4.13893e-21)
(-2.07899 -0.0485076 -2.02225e-20)
(-1.97662 -0.0516554 0)
(-1.87038 -0.0547205 0)
(-1.76058 -0.0576855 0)
(-1.64753 -0.060521 1.05444e-19)
(-1.53156 -0.0632105 0)
(-1.41302 -0.0657272 0)
(-1.29232 -0.0680677 0)
(-1.16984 -0.0702424 2.35899e-19)
(-1.04598 -0.0722489 -2.78292e-19)
(-0.921133 -0.0741166 0)
(-0.795665 -0.0758586 0)
(-0.66994 -0.0775122 -4.3907e-19)
(-0.544316 -0.0790221 -5.07366e-19)
(-0.419257 -0.0803829 0)
(-0.29466 -0.0816812 0)
(-0.171898 -0.0830954 7.83475e-19)
(-0.0476915 -0.0828006 -8.26392e-19)
(0.0793753 -0.0798275 0)
(0.203815 -0.0760177 0)
(0.325483 -0.0721326 -7.25508e-19)
(0.44379 -0.0683305 0)
(0.558408 -0.0646625 0)
(0.669153 -0.0611337 -6.63037e-19)
(0.775948 -0.0577475 0)
(0.878737 -0.0545172 -6.33303e-19)
(0.977557 -0.0514618 0)
(1.07242 -0.0485425 0)
(1.16339 -0.0457379 0)
(1.25058 -0.0430926 5.89611e-19)
(1.33407 -0.0406061 0)
(1.41396 -0.0382476 0)
(1.49033 -0.0360074 0)
(1.56332 -0.0338837 0)
(1.63304 -0.0318762 0)
(1.69958 -0.0299703 0)
(1.76303 -0.0281578 5.40469e-19)
(1.82349 -0.0264336 5.35274e-19)
(1.88103 -0.0247905 0)
(1.93571 -0.0232168 0)
(1.98757 -0.0216995 0)
(2.03659 -0.0202127 -5.18143e-19)
(2.08267 -0.0187248 0)
(2.12556 -0.0171735 1.02411e-18)
(2.16481 -0.0154786 -1.01994e-18)
(2.19928 -0.0134201 -1.01752e-18)
(2.22781 -0.0105814 1.01873e-18)
(2.24265 -0.00506318 -1.02617e-18)
(2.24431 0.00787449 1.03722e-18)
(2.14196 0.0271085 0)
(0.0156169 -0.054367 0)
(0.0366742 -0.0714241 0)
(0.0478089 -0.0665006 2.54262e-19)
(0.055497 -0.056047 0)
(0.0591195 -0.0425242 -1.63461e-19)
(0.0589045 -0.0273423 -1.49106e-19)
(0.0553122 -0.0115344 -7.0628e-20)
(0.0485598 0.00421493 -6.86028e-20)
(0.0387938 0.0193545 0)
(0.0258643 0.0333424 -6.72938e-20)
(0.00955831 0.0457575 0)
(-0.0102072 0.0564379 0)
(-0.033463 0.0654586 1.32893e-19)
(-0.0602198 0.0730903 6.48539e-20)
(-0.0904868 0.0797223 -1.255e-19)
(-0.124193 0.0857803 -1.21393e-19)
(-0.161078 0.0916221 -5.87593e-20)
(-0.200918 0.097526 0)
(-0.243637 0.103655 0)
(-0.289145 0.110045 0)
(-0.3373 0.116602 -4.96383e-20)
(-0.387913 0.123169 0)
(-0.440748 0.129544 1.36948e-19)
(-0.495509 0.135527 0)
(-0.551841 0.140903 0)
(-0.609349 0.145494 3.99678e-20)
(-0.667629 0.149149 0)
(-0.726276 0.151785 -3.6606e-20)
(-0.784899 0.153346 -6.98764e-20)
(-0.843134 0.153819 3.36775e-20)
(-0.900657 0.153221 0)
(-0.957197 0.15164 0)
(-1.01254 0.149184 0)
(-1.06652 0.145999 -5.78167e-20)
(-1.11902 0.142219 -5.59472e-20)
(-1.16998 0.137993 -2.72358e-20)
(-1.21935 0.133443 0)
(-1.26713 0.1287 5.1427e-20)
(-1.31333 0.12386 0)
(-1.358 0.119025 -4.8841e-20)
(-1.40117 0.114254 0)
(-1.44292 0.109614 0)
(-1.4833 0.105133 4.56347e-20)
(-1.5224 0.100848 0)
(-1.56028 0.0967649 1.31148e-19)
(-1.59702 0.0929038 -4.30274e-20)
(-1.63267 0.0892549 0)
(-1.66732 0.0858263 -4.15316e-20)
(-1.70103 0.082599 -4.08409e-20)
(-1.73384 0.0795769 0)
(-1.76582 0.076736 0)
(-1.79701 0.0740763 0)
(-1.82747 0.0715727 0)
(-1.85725 0.069227 0)
(-1.88637 0.067014 3.7234e-20)
(-1.91489 0.0649359 7.31357e-20)
(-1.94283 0.06297 -3.61596e-20)
(-1.97024 0.0611226 0)
(-1.99715 0.0593721 7.00281e-20)
(-2.02358 0.0577279 -3.44092e-20)
(-2.04957 0.0561691 0)
(-2.07514 0.0547071 -3.35978e-20)
(-2.10032 0.0533217 0)
(-2.12514 0.0520267 0)
(-2.14963 0.0508028 -6.40468e-20)
(-2.17382 0.0496664 3.15961e-20)
(-2.19775 0.048599 -6.20646e-20)
(-2.22143 0.0476192 6.10701e-20)
(-2.24491 0.0467083 3.00933e-20)
(-2.26821 0.0458859 0)
(-2.29136 0.0451318 2.90853e-20)
(-2.31441 0.0444656 0)
(-2.33737 0.0438658 0)
(-2.36027 0.0433513 0)
(-2.38316 0.0428985 2.69644e-20)
(-2.40604 0.0425245 0)
(-2.42895 0.0422033 5.20109e-20)
(-2.45191 0.0419489 -7.6562e-20)
(-2.47493 0.0417355 -2.5059e-20)
(-2.49804 0.0415783 0)
(-2.52125 0.0414604 -2.40755e-20)
(-2.54455 0.0413935 0)
(-2.56794 0.0413441 -4.62291e-20)
(-2.59142 0.0412992 0)
(-2.61497 0.0412447 -4.43513e-20)
(-2.63855 0.0411819 8.65029e-20)
(-2.66214 0.0410811 4.25495e-20)
(-2.68569 0.0409375 0)
(-2.70912 0.0407431 0)
(-2.73237 0.0404753 0)
(-2.75535 0.040099 -3.92585e-20)
(-2.77801 0.0395869 0)
(-2.80019 0.0389124 3.78037e-20)
(-2.82188 0.0380849 0)
(-2.84291 0.0370587 -1.08845e-19)
(-2.86305 0.0358195 -3.5904e-20)
(-2.8822 0.0343649 -3.53237e-20)
(-2.90019 0.0326535 0)
(-2.91686 0.03069 0)
(-2.93199 0.0284492 0)
(-2.94555 0.0259153 0)
(-2.95746 0.023064 0)
(-2.9674 0.0199227 -6.43823e-20)
(-2.97528 0.0165391 -6.37277e-20)
(-2.98116 0.0128651 0)
(-2.98494 0.00899412 3.1551e-20)
(-2.98669 0.00506043 3.12177e-20)
(-2.98606 0.00102767 0)
(-2.98253 -0.00312348 6.05616e-20)
(-2.97574 -0.00748401 0)
(-2.9653 -0.0119494 -2.94555e-20)
(-2.95137 -0.0165519 0)
(-2.93364 -0.0213095 0)
(-2.91177 -0.0262652 5.69797e-20)
(-2.88575 -0.0313548 0)
(-2.85545 -0.0365898 -2.74841e-20)
(-2.82063 -0.0418606 0)
(-2.78104 -0.0471743 0)
(-2.73669 -0.0525167 -2.52656e-20)
(-2.68755 -0.0578941 -2.42406e-20)
(-2.63338 -0.0632963 0)
(-2.57414 -0.0687081 2.20537e-20)
(-2.50979 -0.0740776 0)
(-2.4403 -0.0793907 -1.91012e-20)
(-2.36564 -0.0845758 -3.40262e-20)
(-2.28586 -0.0896529 0)
(-2.20102 -0.0945668 0)
(-2.1112 -0.0993091 0)
(-2.01654 -0.103828 0)
(-1.91719 -0.108108 -6.95826e-21)
(-1.81337 -0.112105 -3.11125e-21)
(-1.70531 -0.1158 0)
(-1.59331 -0.119153 0)
(-1.47769 -0.122144 0)
(-1.35879 -0.124746 -3.4377e-20)
(-1.23695 -0.126945 0)
(-1.11258 -0.128734 0)
(-0.986079 -0.130112 1.28868e-19)
(-0.857865 -0.13108 7.37373e-20)
(-0.72836 -0.131667 9.23507e-20)
(-0.597983 -0.131909 0)
(-0.467146 -0.131833 0)
(-0.336213 -0.131488 1.35118e-19)
(-0.205596 -0.130934 -1.43912e-19)
(-0.0750145 -0.130282 0)
(0.0554597 -0.129668 0)
(0.184515 -0.129196 -1.79209e-19)
(0.310513 -0.127672 5.52205e-19)
(0.432732 -0.124352 0)
(0.551577 -0.120043 0)
(0.667513 -0.115329 2.05045e-19)
(0.780395 -0.11045 0)
(0.890038 -0.105527 4.27084e-19)
(0.996301 -0.100635 -2.16259e-19)
(1.09909 -0.0958179 0)
(1.19836 -0.0911113 2.29595e-19)
(1.29408 -0.086539 4.6303e-19)
(1.38627 -0.0821186 0)
(1.47496 -0.07786 0)
(1.56019 -0.0737787 -2.43244e-19)
(1.64201 -0.0698638 0)
(1.7205 -0.0661146 4.94043e-19)
(1.79575 -0.0625326 0)
(1.86787 -0.0591232 0)
(1.93692 -0.0558749 0)
(2.00301 -0.0527678 0)
(2.06621 -0.0497932 -2.5821e-19)
(2.1266 -0.0469479 -2.59727e-19)
(2.18424 -0.0442171 0)
(2.2392 -0.0415805 0)
(2.2915 -0.0390065 0)
(2.34111 -0.036443 2.64968e-19)
(2.38793 -0.03381 0)
(2.43173 -0.0309897 -5.35011e-19)
(2.47211 -0.0277454 5.3799e-19)
(2.50816 -0.0236929 5.41406e-19)
(2.53908 -0.0177685 5.44195e-19)
(2.56015 -0.00751872 5.5326e-19)
(2.58145 0.01361 5.55046e-19)
(2.57455 0.052601 0)
(0.00963323 -0.100999 0)
(0.0219671 -0.0982159 0)
(0.023705 -0.0773826 -1.7992e-19)
(0.0227232 -0.0565121 -1.30265e-19)
(0.0181961 -0.0355886 1.07513e-19)
(0.0106732 -0.0145697 9.52261e-20)
(0.000630914 0.00632165 7.98408e-23)
(-0.0117318 0.0268015 0)
(-0.0264147 0.0466037 0)
(-0.043517 0.0654609 0)
(-0.0631878 0.0831068 0)
(-0.0856067 0.0993515 0)
(-0.110953 0.114149 -2.10476e-19)
(-0.13937 0.127614 0)
(-0.170937 0.139992 6.721e-20)
(-0.205629 0.151596 6.55863e-20)
(-0.243306 0.162723 0)
(-0.283748 0.173562 0)
(-0.326693 0.184193 0)
(-0.371853 0.194572 0)
(-0.418916 0.204555 5.62101e-20)
(-0.467555 0.213927 0)
(-0.517434 0.222443 -5.22842e-20)
(-0.568209 0.229862 0)
(-0.619546 0.23597 0)
(-0.671125 0.240606 0)
(-0.722657 0.243665 -8.98834e-20)
(-0.773885 0.245106 0)
(-0.82457 0.24495 4.19017e-20)
(-0.87451 0.243282 -8.06421e-20)
(-0.923565 0.240236 0)
(-0.971637 0.235982 0)
(-1.01865 0.230713 0)
(-1.06457 0.22463 3.54906e-20)
(-1.10934 0.217932 3.44646e-20)
(-1.15297 0.210804 0)
(-1.19545 0.203411 0)
(-1.23679 0.195898 -6.33917e-20)
(-1.277 0.188386 -6.18705e-20)
(-1.31612 0.180981 6.04557e-20)
(-1.35416 0.173759 0)
(-1.39116 0.16678 0)
(-1.42715 0.160083 0)
(-1.46217 0.153696 0)
(-1.49626 0.147631 -5.48547e-20)
(-1.52945 0.141896 -5.36996e-20)
(-1.56178 0.136483 5.27916e-20)
(-1.59329 0.131388 0)
(-1.62402 0.126596 0)
(-1.65401 0.122094 0)
(-1.68329 0.117863 0)
(-1.7119 0.113887 -4.8837e-20)
(-1.73987 0.110147 0)
(-1.76723 0.10663 0)
(-1.79402 0.103315 -4.67793e-20)
(-1.82026 0.100191 -4.62599e-20)
(-1.84599 0.0972432 0)
(-1.87123 0.0944626 8.97057e-20)
(-1.896 0.091836 -4.43455e-20)
(-1.92034 0.0893587 4.37219e-20)
(-1.94426 0.0870192 0)
(-1.9678 0.0848156 0)
(-1.99096 0.0827384 0)
(-2.01379 0.080788 0)
(-2.03629 0.0789572 4.06486e-20)
(-2.05851 0.0772485 7.99099e-20)
(-2.08046 0.0756561 3.94215e-20)
(-2.10217 0.0741843 -3.88058e-20)
(-2.12366 0.0728274 0)
(-2.14497 0.0715902 7.4999e-20)
(-2.16611 0.0704657 7.37589e-20)
(-2.18712 0.0694574 7.25144e-20)
(-2.20803 0.0685571 -7.12665e-20)
(-2.22885 0.0677662 0)
(-2.24961 0.0670735 -1.03217e-19)
(-2.27035 0.0664783 0)
(-2.29106 0.065967 3.30534e-20)
(-2.31179 0.0655369 3.25877e-20)
(-2.33254 0.0651746 0)
(-2.35332 0.0648791 0)
(-2.37415 0.0646377 6.13128e-20)
(-2.39501 0.0644303 0)
(-2.41592 0.0642155 5.88957e-20)
(-2.43688 0.0639849 0)
(-2.45785 0.0637332 -5.65355e-20)
(-2.47882 0.06343 -1.11024e-19)
(-2.49976 0.0630449 0)
(-2.52062 0.0625615 0)
(-2.54134 0.0619594 0)
(-2.56187 0.0612077 -5.10835e-20)
(-2.58213 0.0602672 0)
(-2.60207 0.0591059 -4.91558e-20)
(-2.62159 0.0577066 0)
(-2.6406 0.0560432 0)
(-2.65901 0.0541004 9.36085e-20)
(-2.67664 0.0518702 0)
(-2.69341 0.0492738 4.51358e-20)
(-2.70917 0.0463102 0)
(-2.72379 0.0429874 4.38325e-20)
(-2.73713 0.0392765 0)
(-2.74907 0.0351675 0)
(-2.75949 0.0307374 0)
(-2.76812 0.0260652 1.25699e-19)
(-2.77481 0.0210411 4.17208e-20)
(-2.77947 0.0156174 0)
(-2.78186 0.00989109 0)
(-2.7819 0.00385223 0)
(-2.77921 -0.00251523 0)
(-2.7736 -0.00921545 -3.96732e-20)
(-2.76474 -0.016176 7.80251e-20)
(-2.75242 -0.0234132 3.88033e-20)
(-2.73654 -0.0309465 -7.62746e-20)
(-2.71686 -0.038687 -7.52264e-20)
(-2.6932 -0.0466717 -3.71265e-20)
(-2.66542 -0.0548911 0)
(-2.63338 -0.0632939 -7.11593e-20)
(-2.59681 -0.0718143 0)
(-2.55561 -0.08041 6.75811e-20)
(-2.50966 -0.0890942 3.25846e-20)
(-2.4589 -0.0977877 0)
(-2.4032 -0.106475 -5.9952e-20)
(-2.34247 -0.115128 -2.8044e-20)
(-2.27668 -0.123696 0)
(-2.20575 -0.132135 -2.48122e-20)
(-2.12971 -0.140378 6.56808e-20)
(-2.04859 -0.148388 0)
(-1.96244 -0.156109 0)
(-1.87138 -0.163491 0)
(-1.77552 -0.170475 0)
(-1.67505 -0.177008 1.2289e-20)
(-1.57018 -0.183034 1.93622e-21)
(-1.46117 -0.188506 0)
(-1.34832 -0.193371 0)
(-1.23196 -0.197592 0)
(-1.11244 -0.201126 0)
(-0.990141 -0.20395 0)
(-0.865464 -0.20605 0)
(-0.738832 -0.207428 -7.5814e-20)
(-0.610673 -0.208093 -3.45855e-21)
(-0.481413 -0.208083 0)
(-0.351478 -0.207445 0)
(-0.22129 -0.206245 -1.29193e-19)
(-0.0910893 -0.204592 0)
(0.0387848 -0.20257 1.59404e-19)
(0.167611 -0.200072 1.66256e-19)
(0.294723 -0.196954 0)
(0.419584 -0.193279 0)
(0.54161 -0.189097 -2.00141e-19)
(0.66047 -0.184194 -4.12053e-19)
(0.776236 -0.178533 0)
(0.888975 -0.172379 0)
(0.998582 -0.165931 0)
(1.10493 -0.159322 -2.44203e-19)
(1.20792 -0.152655 2.51932e-19)
(1.30749 -0.145999 0)
(1.4036 -0.139416 5.2725e-19)
(1.49624 -0.13295 2.67844e-19)
(1.58543 -0.126631 -5.53299e-19)
(1.67121 -0.120482 0)
(1.75361 -0.114537 0)
(1.83272 -0.108807 -5.86512e-19)
(1.90862 -0.103293 -3.00002e-19)
(1.98141 -0.0979951 0)
(2.05118 -0.0929195 0)
(2.11801 -0.0880563 0)
(2.18199 -0.0833864 0)
(2.24321 -0.0789 -6.36392e-19)
(2.30175 -0.0745903 0)
(2.35767 -0.0704373 0)
(2.41104 -0.0664107 0)
(2.46187 -0.0624621 0)
(2.51015 -0.058512 0)
(2.55579 -0.0544422 0)
(2.5986 -0.0500696 -6.77191e-19)
(2.63825 -0.0450662 0)
(2.67407 -0.0388719 0)
(2.70557 -0.0302391 -1.39496e-18)
(2.73004 -0.0169997 7.06103e-19)
(2.75252 0.00633035 -7.15625e-19)
(2.76191 0.0495064 7.31383e-19)
(0.000622425 -0.120887 0)
(0.00259411 -0.099612 5.22873e-19)
(-0.003114 -0.0704192 0)
(-0.0105762 -0.0432941 1.04097e-19)
(-0.0204303 -0.0172166 0)
(-0.0323476 0.00831307 0)
(-0.0461272 0.0334052 -6.5787e-20)
(-0.061716 0.0580026 0)
(-0.0791679 0.0819714 0)
(-0.0985874 0.105131 0)
(-0.120107 0.127288 0)
(-0.143876 0.148286 0)
(-0.170043 0.168041 2.03828e-19)
(-0.198721 0.186563 9.96177e-20)
(-0.229957 0.203939 -9.73827e-20)
(-0.263708 0.2203 0)
(-0.299838 0.235767 0)
(-0.338134 0.250406 0)
(-0.378325 0.264208 0)
(-0.4201 0.277082 0)
(-0.463138 0.28887 8.19631e-20)
(-0.507114 0.299375 7.92029e-20)
(-0.551721 0.308387 -7.64761e-20)
(-0.596673 0.315719 7.38086e-20)
(-0.641715 0.321224 0)
(-0.686626 0.324814 0)
(-0.731219 0.326463 6.64003e-20)
(-0.775344 0.326206 0)
(-0.818889 0.324138 0)
(-0.861779 0.320416 5.99629e-20)
(-0.903956 0.315238 5.80037e-20)
(-0.945381 0.308822 5.62383e-20)
(-0.986025 0.301388 0)
(-1.02587 0.293155 0)
(-1.0649 0.284331 -5.16096e-20)
(-1.10311 0.275109 0)
(-1.14049 0.265658 0)
(-1.17704 0.25613 4.79098e-20)
(-1.21275 0.24665 -4.66481e-20)
(-1.24764 0.237323 4.56252e-20)
(-1.2817 0.228231 0)
(-1.31496 0.219433 0)
(-1.34741 0.210975 8.6026e-20)
(-1.37908 0.202884 0)
(-1.40998 0.195176 8.29464e-20)
(-1.44013 0.187859 1.22371e-19)
(-1.46956 0.180929 -1.20354e-19)
(-1.49828 0.174378 7.89079e-20)
(-1.52632 0.168194 0)
(-1.5537 0.162362 0)
(-1.58045 0.156862 7.53843e-20)
(-1.6066 0.151675 3.72075e-20)
(-1.63217 0.146783 0)
(-1.65717 0.142166 0)
(-1.68165 0.137806 3.56559e-20)
(-1.70561 0.133687 7.02243e-20)
(-1.72909 0.129792 0)
(-1.75211 0.126109 -6.83971e-20)
(-1.77468 0.122626 6.73664e-20)
(-1.79683 0.119333 -6.64339e-20)
(-1.81857 0.11622 0)
(-1.83994 0.11328 0)
(-1.86094 0.110508 0)
(-1.88161 0.1079 0)
(-1.90196 0.105451 0)
(-1.92201 0.10316 -6.09603e-20)
(-1.9418 0.101024 0)
(-1.96133 0.0990438 0)
(-1.98064 0.0972173 0)
(-1.99974 0.0955443 -1.14379e-19)
(-2.01868 0.0940215 -5.62812e-20)
(-2.03746 0.0926473 -5.53344e-20)
(-2.05611 0.0914165 1.08687e-19)