/*--------------------------------*- C++ -*----------------------------------*\
| =========                 |                                                 |
| \\      /  F ield         | OpenFOAM: The Open Source CFD Toolbox           |
|  \\    /   O peration     | Version:  4.1                                   |
|   \\  /    A nd           | Web:      www.OpenFOAM.org                      |
|    \\/     M anipulation  |                                                 |
\*---------------------------------------------------------------------------*/
FoamFile
{
    version     2.0;
    format      ascii;
    class       volScalarField;
    location    "10";
    object      p;
}
// * * * * * * * * * * * * * * * * * * * * * * * * * * * * * * * * * * * * * //

dimensions      [0 2 -2 0 0 0 0];

internalField   nonuniform List<scalar> 
1705
(
7.51449e-29
3.912e-28
7.26548e-28
8.7896e-28
1.03148e-27
1.33136e-27
1.70882e-27
1.87156e-27
2.03407e-27
2.33219e-27
2.77273e-27
2.95433e-27
3.27269e-27
3.78275e-27
3.98892e-27
4.19509e-27
4.5348e-27
5.1559e-27
5.3988e-27
5.7845e-27
6.52857e-27
6.81613e-27
7.10406e-27
7.53735e-27
8.46393e-27
8.81244e-27
9.16066e-27
9.65743e-27
1.08264e-26
1.12554e-26
1.18478e-26
1.3295e-26
1.38218e-26
1.43489e-26
1.5038e-26
1.68947e-26
1.75544e-26
1.83828e-26
2.07188e-26
2.15357e-26
2.20981e-26
2.24307e-26
2.30205e-26
2.37317e-26
-8.41384e-27
2.5457e-26
2.51681e-26
2.49933e-26
2.50745e-26
2.51638e-26
2.52609e-26
2.56203e-26
2.61011e-26
-7.22578e-27
2.59812e-26
2.54776e-26
2.50961e-26
2.49814e-26
2.48787e-26
2.47877e-26
2.49601e-26
2.5255e-26
-8.59756e-27
2.36802e-26
2.30147e-26
2.24876e-26
2.22316e-26
2.19938e-26
2.17743e-26
2.18112e-26
2.19804e-26
-1.02353e-26
1.43554e-26
1.37466e-26
1.32713e-26
1.30458e-26
1.28707e-26
1.27423e-26
1.27725e-26
1.29233e-26
-4.09326e-27
-4.74022e-27
-5.18888e-27
-5.52657e-27
-5.91597e-27
-6.19665e-27
-6.60885e-27
-6.8841e-27
-7.07253e-27
-7.35229e-27
-7.53728e-27
-7.64827e-27
-7.79799e-27
-7.87508e-27
-8.00214e-27
-8.08905e-27
-8.10948e-27
-8.17265e-27
-8.17081e-27
-8.19253e-27
-8.21709e-27
-8.17941e-27
-8.15463e-27
-8.15541e-27
-8.09407e-27
-8.08787e-27
-8.02169e-27
-7.96452e-27
-7.95184e-27
-7.87944e-27
-7.86787e-27
-7.79865e-27
-7.74482e-27
-7.74032e-27
-7.67901e-27
-7.63995e-27
-7.64909e-27
-7.60123e-27
-7.61964e-27
-7.5819e-27
-4.60138e-30
-4.79696e-30
-5.21963e-30
-5.90787e-30
-6.91746e-30
-8.30688e-30
-1.01201e-29
-1.23679e-29
-1.50122e-29
-1.79611e-29
-2.10839e-29
-2.42553e-29
-2.74372e-29
-3.07965e-29
-3.48468e-29
-4.05825e-29
-4.95563e-29
-6.38366e-29
-8.57831e-29
-1.17595e-28
-1.60634e-28
-2.14591e-28
-2.76635e-28
-3.40759e-28
-3.97618e-28
-4.3521e-28
-4.40945e-28
-4.05767e-28
-3.30897e-28
-2.36775e-28
-1.71742e-28
-2.15474e-28
-4.69854e-28
-1.0316e-27
-1.95278e-27
-3.20428e-27
-4.63026e-27
-6.03413e-27
-7.08034e-27
-4.59357e-30
-4.78839e-30
-5.20976e-30
-5.89649e-30
-6.90466e-30
-8.29308e-30
-1.01059e-29
-1.2354e-29
-1.4999e-29
-1.79483e-29
-2.10696e-29
-2.42355e-29
-2.74052e-29
-3.07431e-29
-3.47613e-29
-4.04546e-29
-4.9379e-29
-6.36105e-29
-8.55197e-29
-1.17319e-28
-1.60384e-28
-2.14416e-28
-2.76584e-28
-3.40872e-28
-3.97903e-28
-4.35613e-28
-4.41303e-28
-4.05753e-28
-3.30006e-28
-2.34432e-28
-1.67569e-28
-2.09738e-28
-4.63937e-28
-1.02798e-27
-1.95426e-27
-3.21406e-27
-4.64726e-27
-6.05944e-27
-7.10708e-27
-4.57873e-30
-4.7727e-30
-5.19235e-30
-5.87673e-30
-6.88206e-30
-8.26719e-30
-1.00764e-29
-1.23203e-29
-1.49605e-29
-1.79038e-29
-2.1017e-29
-2.41716e-29
-2.7325e-29
-3.06399e-29
-3.46267e-29
-4.02789e-29
-4.91526e-29
-6.3325e-29
-8.51693e-29
-1.16902e-28
-1.59902e-28
-2.13874e-28
-2.75991e-28
-3.40238e-28
-3.9723e-28
-4.34887e-28
-4.40465e-28
-4.04683e-28
-3.28545e-28
-2.32527e-28
-1.65559e-28
-2.08753e-28
-4.66236e-28
-1.03669e-27
-1.97224e-27
-3.24367e-27
-4.68596e-27
-6.10538e-27
-7.15299e-27
-4.55689e-30
-4.7498e-30
-5.16724e-30
-5.84837e-30
-6.84938e-30
-8.22901e-30
-1.00314e-29
-1.22671e-29
-1.48974e-29
-1.7829e-29
-2.09283e-29
-2.40661e-29
-2.7199e-29
-3.04882e-29
-3.44418e-29
-4.00508e-29
-4.88679e-29
-6.29664e-29
-8.47154e-29
-1.16327e-28
-1.59178e-28
-2.12972e-28
-2.74888e-28
-3.3892e-28
-3.95703e-28
-4.33169e-28
-4.3859e-28
-4.02696e-28
-3.26565e-28
-2.30925e-28
-1.65278e-28
-2.11692e-28
-4.75493e-28
-1.0561e-27
-2.00488e-27
-3.29131e-27
-4.74473e-27
-6.17075e-27
-7.21673e-27
-4.52804e-30
-4.71967e-30
-5.13435e-30
-5.81128e-30
-6.80646e-30
-8.17841e-30
-9.97096e-30
-1.21945e-29
-1.48103e-29
-1.7725e-29
-2.08051e-29
-2.39211e-29
-2.7029e-29
-3.02888e-29
-3.4206e-29
-3.97671e-29
-4.85187e-29
-6.25254e-29
-8.41465e-29
-1.15584e-28
-1.58206e-28
-2.11715e-28
-2.73297e-28
-3.36967e-28
-3.93395e-28
-4.30562e-28
-4.35792e-28
-3.99891e-28
-3.24097e-28
-2.29518e-28
-1.66391e-28
-2.17907e-28
-4.90704e-28
-1.08487e-27
-2.05058e-27
-3.35526e-27
-4.82179e-27
-6.25388e-27
-7.29778e-27
-4.49223e-30
-4.68231e-30
-5.09365e-30
-5.76539e-30
-6.75325e-30
-8.11535e-30
-9.8952e-30
-1.2103e-29
-1.46999e-29
-1.75928e-29
-2.06484e-29
-2.37377e-29
-2.68162e-29
-3.00425e-29
-3.39189e-29
-3.94259e-29
-4.81009e-29
-6.19962e-29
-8.34558e-29
-1.14666e-28
-1.56984e-28
-2.10108e-28
-2.71234e-28
-3.34411e-28
-3.9036e-28
-4.27135e-28
-4.3215e-28
-3.96336e-28
-3.21164e-28
-2.28226e-28
-1.68643e-28
-2.26903e-28
-5.11077e-28
-1.12188e-27
-2.1079e-27
-3.43383e-27
-4.91518e-27
-6.35263e-27
-7.39224e-27
-4.44949e-30
-4.63774e-30
-5.04516e-30
-5.71071e-30
-6.68972e-30
-8.03985e-30
-9.80418e-30
-1.19927e-29
-1.45665e-29
-1.74329e-29
-2.04593e-29
-2.35169e-29
-2.65616e-29
-2.975e-29
-3.35806e-29
-3.90264e-29
-4.76127e-29
-6.13757e-29
-8.26398e-29
-1.13572e-28
-1.55512e-28
-2.08156e-28
-2.68715e-28
-3.31277e-28
-3.86633e-28
-4.22935e-28
-4.27718e-28
-3.92077e-28
-3.17775e-28
-2.26983e-28
-1.7184e-28
-2.38284e-28
-5.35952e-28
-1.16616e-27
-2.17549e-27
-3.52529e-27
-5.02275e-27
-6.46443e-27
-7.4989e-27
-4.3999e-30
-4.58603e-30
-4.98891e-30
-5.64727e-30
-6.61593e-30
-7.952e-30
-9.69803e-30
-1.18637e-29
-1.44104e-29
-1.72458e-29
-2.02382e-29
-2.32596e-29
-2.62658e-29
-2.94119e-29
-3.31914e-29
-3.85682e-29
-4.70532e-29
-6.06627e-29
-8.16971e-29
-1.12299e-28
-1.53791e-28
-2.05864e-28
-2.65748e-28
-3.27581e-28
-3.82242e-28
-4.17998e-28
-4.22534e-28
-3.87145e-28
-3.13937e-28
-2.25736e-28
-1.75818e-28
-2.51713e-28
-5.64738e-28
-1.21678e-27
-2.25199e-27
-3.62776e-27
-5.14205e-27
-6.58619e-27
-7.61251e-27
-4.34352e-30
-4.52725e-30
-4.92499e-30
-5.57514e-30
-6.53197e-30
-7.85189e-30
-9.57689e-30
-1.17164e-29
-1.42319e-29
-1.70319e-29
-1.99856e-29
-2.29663e-29
-2.59297e-29
-2.90288e-29
-3.27518e-29
-3.80518e-29
-4.64225e-29
-5.98569e-29
-8.06277e-29
-1.10849e-28
-1.51824e-28
-2.03237e-28
-2.62343e-28
-3.23341e-28
-3.77207e-28
-4.12349e-28
-4.16626e-28
-3.81564e-28
-3.09651e-28
-2.24437e-28
-1.80434e-28
-2.66879e-28
-5.96861e-28
-1.27279e-27
-2.33597e-27
-3.73922e-27
-5.27038e-27
-6.71445e-27
-7.72879e-27
-4.28044e-30
-4.46149e-30
-4.85349e-30
-5.49444e-30
-6.43795e-30
-7.73966e-30
-9.44095e-30
-1.15509e-29
-1.40314e-29
-1.67916e-29
-1.97022e-29
-2.26376e-29
-2.55537e-29
-2.86014e-29
-3.22624e-29
-3.74776e-29
-4.57211e-29
-5.89592e-29
-7.94328e-29
-1.09225e-28
-1.49613e-28
-2.00281e-28
-2.5851e-28
-3.18567e-28
-3.71545e-28
-4.06011e-28
-4.10018e-28
-3.75353e-28
-3.04918e-28
-2.23042e-28
-1.85547e-28
-2.83473e-28
-6.31736e-28
-1.33321e-27
-2.42587e-27
-3.85741e-27
-5.40474e-27
-6.84538e-27
-7.84574e-27
-4.21076e-30
-4.38885e-30
-4.77451e-30
-5.40528e-30
-6.334e-30
-7.61548e-30
-9.2904e-30
-1.13676e-29
-1.38091e-29
-1.65254e-29
-1.93884e-29
-2.2274e-29
-2.51385e-29
-2.81304e-29
-3.17241e-29
-3.68465e-29
-4.495e-29
-5.79706e-29
-7.81139e-29
-1.07427e-28
-1.47164e-28
-1.97003e-28
-2.54258e-28
-3.13274e-28
-3.65275e-28
-3.99004e-28
-4.02734e-28
-3.68531e-28
-2.9974e-28
-2.21504e-28
-1.9102e-28
-3.01178e-28
-6.68751e-28
-1.39698e-27
-2.52003e-27
-3.9799e-27
-5.54189e-27
-6.97478e-27
-7.95616e-27
-4.13459e-30
-4.30944e-30
-4.68818e-30
-5.30779e-30
-6.22028e-30
-7.47953e-30
-9.12547e-30
-1.11666e-29
-1.35655e-29
-1.62335e-29
-1.90446e-29
-2.18761e-29
-2.46849e-29
-2.76165e-29
-3.11375e-29
-3.61595e-29
-4.41103e-29
-5.68928e-29
-7.66734e-29
-1.05461e-28
-1.44481e-28
-1.9341e-28
-2.49596e-28
-3.07475e-28
-3.58413e-28
-3.91349e-28
-3.94795e-28
-3.61115e-28
-2.94118e-28
-2.19782e-28
-1.9671e-28
-3.19667e-28
-7.07261e-28
-1.46297e-27
-2.61668e-27
-4.1041e-27
-5.67834e-27
-7.0982e-27
-8.05452e-27
-4.05205e-30
-4.2234e-30
-4.59463e-30
-5.20213e-30
-6.09697e-30
-7.33202e-30
-8.94641e-30
-1.09483e-29
-1.33008e-29
-1.59165e-29
-1.86714e-29
-2.14446e-29
-2.41934e-29
-2.70605e-29
-3.05037e-29
-3.54176e-29
-4.32033e-29
-5.57275e-29
-7.51137e-29
-1.03329e-28
-1.41569e-28
-1.89508e-28
-2.44536e-28
-3.01184e-28
-3.50976e-28
-3.83066e-28
-3.86222e-28
-3.53125e-28
-2.88052e-28
-2.17831e-28
-2.02473e-28
-3.386e-28
-7.46584e-28
-1.53001e-27
-2.71393e-27
-4.22724e-27
-5.81046e-27
-7.21106e-27
-8.13836e-27
-3.96328e-30
-4.13086e-30
-4.49401e-30
-5.08845e-30
-5.96424e-30
-7.17317e-30
-8.75349e-30
-1.07131e-29
-1.30155e-29
-1.55749e-29
-1.82693e-29
-2.09801e-29
-2.36649e-29
-2.64634e-29
-2.98237e-29
-3.46221e-29
-4.22307e-29
-5.44767e-29
-7.34375e-29
-1.01035e-28
-1.38434e-28
-1.85306e-28
-2.39088e-28
-2.94414e-28
-3.42983e-28
-3.74176e-28
-3.7704e-28
-3.44579e-28
-2.81547e-28
-2.15608e-28
-2.08161e-28
-3.57623e-28
-7.86011e-28
-1.59683e-27
-2.80982e-27
-4.34645e-27
-5.93447e-27
-7.30863e-27
-8.19939e-27
-3.86841e-30
-4.03196e-30
-4.38648e-30
-4.96694e-30
-5.82232e-30
-7.00323e-30
-8.54699e-30
-1.04612e-29
-1.271e-29
-1.52091e-29
-1.7839e-29
-2.04833e-29
-2.31002e-29
-2.58259e-29
-2.90984e-29
-3.37742e-29
-4.1194e-29
-5.31426e-29
-7.16479e-29
-9.8584e-29
-1.35082e-28
-1.80813e-28
-2.33263e-28
-2.87182e-28
-3.34452e-28
-3.64703e-28
-3.67271e-28
-3.35499e-28
-2.74606e-28
-2.1307e-28
-2.13624e-28
-3.76371e-28
-8.24807e-28
-1.66215e-27
-2.90229e-27
-4.45881e-27
-6.04655e-27
-7.38618e-27
-8.23519e-27
-3.7676e-30
-3.92687e-30
-4.27221e-30
-4.83779e-30
-5.67141e-30
-6.82245e-30
-8.32724e-30
-1.01931e-29
-1.23847e-29
-1.48197e-29
-1.73811e-29
-1.9955e-29
-2.25001e-29
-2.51492e-29
-2.83292e-29
-3.28754e-29
-4.0095e-29
-5.17275e-29
-6.97482e-29
-9.59801e-29
-1.3152e-28
-1.76038e-28
-2.27074e-28
-2.79502e-28
-3.25402e-28
-3.54668e-28
-3.56942e-28
-3.25906e-28
-2.67235e-28
-2.10175e-28
-2.1871e-28
-3.94475e-28
-8.62219e-28
-1.72464e-27
-2.98931e-27
-4.56134e-27
-6.14287e-27
-7.43902e-27
-8.23786e-27
-3.661e-30
-3.81576e-30
-4.15137e-30
-4.70119e-30
-5.51176e-30
-6.63111e-30
-8.09456e-30
-9.90906e-30
-1.20401e-29
-1.44073e-29
-1.68963e-29
-1.93959e-29
-2.18656e-29
-2.44342e-29
-2.75172e-29
-3.19271e-29
-3.89355e-29
-5.0234e-29
-6.77418e-29
-9.32282e-29
-1.27754e-28
-1.70989e-28
-2.20533e-28
-2.71391e-28
-3.15855e-28
-3.44096e-28
-3.46076e-28
-3.15824e-28
-2.59442e-28
-2.06884e-28
-2.23269e-28
-4.11564e-28
-8.97487e-28
-1.78297e-27
-3.06879e-27
-4.65111e-27
-6.21972e-27
-7.46267e-27
-8.20207e-27
-3.54879e-30
-3.69878e-30
-4.02417e-30
-4.55736e-30
-5.3436e-30
-6.42951e-30
-7.8493e-30
-9.60963e-30
-1.16768e-29
-1.39724e-29
-1.63852e-29
-1.88068e-29
-2.11975e-29
-2.36821e-29
-2.66637e-29
-3.09308e-29
-3.77175e-29
-4.86645e-29
-6.56322e-29
-9.03333e-29
-1.23791e-28
-1.65678e-28
-2.13654e-28
-2.62867e-28
-3.05831e-28
-3.33012e-28
-3.34702e-28
-3.05276e-28
-2.51235e-28
-2.03159e-28
-2.27154e-28
-4.27268e-28
-9.29854e-28
-1.83579e-27
-3.13869e-27
-4.72527e-27
-6.2735e-27
-7.45299e-27
-8.12602e-27
-3.43114e-30
-3.57614e-30
-3.89079e-30
-4.40653e-30
-5.1672e-30
-6.21794e-30
-7.59185e-30
-9.29523e-30
-1.12953e-29
-1.35158e-29
-1.58487e-29
-1.81887e-29
-2.04969e-29
-2.2894e-29
-2.57699e-29
-2.98882e-29
-3.6443e-29
-4.70217e-29
-6.34231e-29
-8.73008e-29
-1.19639e-28
-1.60113e-28
-2.0645e-28
-2.53946e-28
-2.95351e-28
-3.21439e-28
-3.22846e-28
-2.94287e-28
-2.42625e-28
-1.98968e-28
-2.30223e-28
-4.41225e-28
-9.58575e-28
-1.88181e-27
-3.19702e-27
-4.7811e-27
-6.30086e-27
-7.40616e-27
-8.00375e-27
-3.30823e-30
-3.44803e-30
-3.75145e-30
-4.24894e-30
-4.98284e-30
-5.99675e-30
-7.32258e-30
-8.96632e-30
-1.08961e-29
-1.30381e-29
-1.52876e-29
-1.75424e-29
-1.97649e-29
-2.20711e-29
-2.48375e-29
-2.88009e-29
-3.51141e-29
-4.53086e-29
-6.11184e-29
-8.4136e-29
-1.15305e-28
-1.54305e-28
-1.98935e-28
-2.44647e-28
-2.84438e-28
-3.09403e-28
-3.10535e-28
-2.82882e-28
-2.33625e-28
-1.9428e-28
-2.32341e-28
-4.53089e-28
-9.82927e-28
-1.91976e-27
-3.24191e-27
-4.81605e-27
-6.29875e-27
-7.31884e-27
-7.83232e-27
-3.18026e-30
-3.31464e-30
-3.60637e-30
-4.08482e-30
-4.79079e-30
-5.76627e-30
-7.04192e-30
-8.62341e-30
-1.04799e-29
-1.254e-29
-1.47026e-29
-1.6869e-29
-1.90026e-29
-2.12148e-29
-2.38677e-29
-2.76708e-29
-3.37331e-29
-4.3528e-29
-5.87222e-29
-8.08445e-29
-1.10798e-28
-1.48266e-28
-1.91123e-28
-2.34986e-28
-2.73112e-28
-2.9693e-28
-2.97797e-28
-2.71089e-28
-2.24249e-28
-1.89069e-28
-2.33384e-28
-4.62529e-28
-1.00222e-27
-1.94842e-27
-3.27156e-27
-4.82784e-27
-6.26448e-27
-7.1882e-27
-7.61179e-27
-3.04744e-30
-3.17619e-30
-3.45577e-30
-3.91443e-30
-4.59136e-30
-5.52685e-30
-6.75029e-30
-8.26701e-30
-1.00472e-29
-1.20223e-29
-1.40947e-29
-1.61695e-29
-1.82111e-29
-2.03262e-29
-2.28622e-29
-2.64995e-29
-3.23022e-29
-4.16828e-29
-5.62384e-29
-7.7432e-29
-1.06124e-28
-1.42005e-28
-1.83029e-28
-2.24984e-28
-2.61397e-28
-2.84046e-28
-2.8466e-28
-2.58934e-28
-2.14513e-28
-1.83317e-28
-2.33238e-28
-4.6924e-28
-1.01583e-27
-1.96668e-27
-3.28438e-27
-4.81445e-27
-6.19582e-27
-7.01193e-27
-7.3415e-27
-2.90995e-30
-3.03288e-30
-3.29989e-30
-3.73804e-30
-4.38485e-30
-5.27886e-30
-6.44813e-30
-7.89766e-30
-9.59883e-30
-1.14857e-29
-1.34648e-29
-1.54449e-29
-1.73917e-29
-1.94068e-29
-2.18225e-29
-2.52891e-29
-3.08237e-29
-3.97761e-29
-5.36713e-29
-7.39044e-29
-1.01293e-28
-1.35535e-28
-1.74666e-28
-2.14657e-28
-2.49314e-28
-2.70775e-28
-2.71151e-28
-2.46443e-28
-2.04437e-28
-1.7701e-28
-2.31805e-28
-4.72946e-28
-1.02315e-27
-1.97352e-27
-3.27892e-27
-4.77422e-27
-6.09102e-27
-6.7882e-27
-7.02445e-27
-2.76804e-30
-2.88496e-30
-3.13897e-30
-3.55592e-30
-4.17159e-30
-5.02268e-30
-6.1359e-30
-7.51593e-30
-9.13533e-30
-1.09311e-29
-1.28138e-29
-1.46963e-29
-1.65455e-29
-1.84581e-29
-2.07502e-29
-2.40414e-29
-2.93001e-29
-3.78111e-29
-5.10252e-29
-7.02677e-29
-9.63122e-29
-1.28865e-28
-1.66051e-28
-2.04025e-28
-2.36885e-28
-2.57143e-28
-2.57298e-28
-2.33645e-28
-1.9404e-28
-1.7014e-28
-2.29002e-28
-4.73404e-28
-1.02368e-27
-1.96803e-27
-3.25396e-27
-4.70585e-27
-5.94893e-27
-6.51549e-27
-6.66696e-27
-2.6219e-30
-2.73263e-30
-2.97326e-30
-3.36836e-30
-3.9519e-30
-4.75871e-30
-5.81409e-30
-7.12239e-30
-8.65744e-30
-1.03592e-29
-1.21427e-29
-1.39248e-29
-1.56739e-29
-1.74814e-29
-1.96471e-29
-2.27584e-29
-2.77338e-29
-3.57911e-29
-4.83044e-29
-6.65277e-29
-9.11903e-29
-1.22008e-28
-1.57197e-28
-1.93105e-28
-2.24133e-28
-2.43175e-28
-2.43127e-28
-2.20566e-28
-1.83344e-28
-1.62708e-28
-2.24763e-28
-4.70412e-28
-1.01697e-27
-1.94945e-27
-3.2085e-27
-4.60847e-27
-5.76907e-27
-6.19234e-27
-6.28087e-27
-2.47178e-30
-2.57615e-30
-2.80302e-30
-3.17564e-30
-3.72612e-30
-4.48735e-30
-5.48318e-30
-6.71764e-30
-8.16588e-30
-9.77104e-30
-1.14526e-29
-1.31317e-29
-1.47783e-29
-1.64784e-29
-1.85148e-29
-2.14423e-29
-2.61274e-29
-3.37192e-29
-4.55133e-29
-6.26907e-29
-8.59355e-29
-1.14974e-28
-1.48118e-28
-1.81916e-28
-2.11078e-28
-2.28894e-28
-2.28665e-28
-2.07233e-28
-1.72374e-28
-1.54719e-28
-2.19044e-28
-4.6381e-28
-1.00268e-27
-1.91716e-27
-3.14177e-27
-4.48165e-27
-5.55173e-27
-5.81665e-27
-5.917e-27
-2.3179e-30
-2.41576e-30
-2.62852e-30
-2.97807e-30
-3.49461e-30
-4.20902e-30
-5.14368e-30
-6.3023e-30
-7.6614e-30
-9.16739e-30
-1.07444e-29
-1.23181e-29
-1.38599e-29
-1.54504e-29
-1.73552e-29
-2.00949e-29
-2.44834e-29
-3.15988e-29
-4.26565e-29
-5.87628e-29
-8.05562e-29
-1.07776e-28
-1.3883e-28
-1.70476e-28
-1.97743e-28
-2.14326e-28
-2.13937e-28
-1.93672e-28
-1.61155e-28
-1.46191e-28
-2.1182e-28
-4.53485e-28
-9.80535e-28
-1.87072e-27
-3.05329e-27
-4.32542e-27
-5.29814e-27
-5.38365e-27
-5.23395e-27
-2.1605e-30
-2.2517e-30
-2.45002e-30
-2.77596e-30
-3.25773e-30
-3.92416e-30
-4.79611e-30
-5.87699e-30
-7.14476e-30
-8.5492e-30
-1.00192e-29
-1.14852e-29
-1.29202e-29
-1.43993e-29
-1.61701e-29
-1.87187e-29
-2.28045e-29
-2.94334e-29
-3.97386e-29
-5.47502e-29
-7.5061e-29
-1.00423e-28
-1.29347e-28
-1.58803e-28
-1.84148e-28
-1.99493e-28
-1.98968e-28
-1.79911e-28
-1.49714e-28
-1.37144e-28
-2.03088e-28
-4.39374e-28
-9.50388e-28
-1.80983e-27
-2.94282e-27
-4.14023e-27
-5.01077e-27
-4.89904e-27
-4.26967e-27
-1.99983e-30
-2.08423e-30
-2.26781e-30
-2.56961e-30
-3.01583e-30
-3.63319e-30
-4.44101e-30
-5.44238e-30
-6.61675e-30
-7.91741e-30
-9.27821e-30
-1.06344e-29
-1.19607e-29
-1.33265e-29
-1.49613e-29
-1.73156e-29
-2.10933e-29
-2.72263e-29
-3.6764e-29
-5.06592e-29
-6.94582e-29
-9.29277e-29
-1.19684e-28
-1.46914e-28
-1.70313e-28
-1.84417e-28
-1.83782e-28
-1.65973e-28
-1.3808e-28
-1.27608e-28
-1.92868e-28
-4.21466e-28
-9.12179e-28
-1.7344e-27
-2.8104e-27
-3.92701e-27
-4.69332e-27
-4.376e-27
-3.02505e-27
-1.83613e-30
-1.91361e-30
-2.08215e-30
-2.35935e-30
-2.76929e-30
-3.33657e-30
-4.07892e-30
-4.99912e-30
-6.07818e-30
-7.27297e-30
-8.52248e-30
-9.76691e-30
-1.09828e-29
-1.22338e-29
-1.37307e-29
-1.58879e-29
-1.93525e-29
-2.49811e-29
-3.37374e-29
-4.64959e-29
-6.37563e-29
-8.53008e-29
-1.09854e-28
-1.34827e-28
-1.56258e-28
-1.69121e-28
-1.68402e-28
-1.51884e-28
-1.26281e-28
-1.17622e-28
-1.81203e-28
-3.99803e-28
-8.65963e-28
-1.64451e-27
-2.65631e-27
-3.68699e-27
-4.35044e-27
-3.83719e-27
-1.35896e-27
-1.66966e-30
-1.7401e-30
-1.89335e-30
-2.1455e-30
-2.5185e-30
-3.03476e-30
-3.71039e-30
-4.54789e-30
-5.52986e-30
-6.61688e-30
-7.75318e-30
-8.88409e-30
-9.98803e-30
-1.11228e-29
-1.24804e-29
-1.4438e-29
-1.7585e-29
-2.27012e-29
-3.06635e-29
-4.22668e-29
-5.79637e-29
-7.75534e-29
-9.98713e-29
-1.22558e-28
-1.42004e-28
-1.53625e-28
-1.52849e-28
-1.37667e-28
-1.14348e-28
-1.0723e-28
-1.68159e-28
-3.74482e-28
-8.11902e-28
-1.54043e-27
-2.4811e-27
-3.4217e-27
-3.98723e-27
-3.32194e-27
-3.44669e-28
-1.50067e-30
-1.56396e-30
-1.7017e-30
-1.92839e-30
-2.26384e-30
-2.72821e-30
-3.336e-30
-4.08939e-30
-4.97263e-30
-5.95012e-30
-6.97148e-30
-7.9873e-30
-8.97796e-30
-9.9953e-30
-1.12121e-29
-1.2968e-29
-1.57934e-29
-2.03901e-29
-2.75469e-29
-3.79779e-29
-5.20889e-29
-6.96964e-29
-8.97502e-29
-1.10125e-28
-1.27568e-28
-1.3795e-28
-1.37144e-28
-1.23345e-28
-1.0231e-28
-9.64836e-29
-1.53824e-28
-3.45655e-28
-7.50269e-28
-1.42261e-27
-2.28557e-27
-3.13283e-27
-3.60795e-27
-2.84683e-27
2.27685e-28
-1.32942e-30
-1.38548e-30
-1.50748e-30
-1.70837e-30
-2.00571e-30
-2.41741e-30
-2.95631e-30
-3.62431e-30
-4.40735e-30
-5.27373e-30
-6.17859e-30
-7.07792e-30
-7.95412e-30
-8.85308e-30
-9.92807e-30
-1.14804e-29
-1.39807e-29
-1.80516e-29
-2.43924e-29
-3.36357e-29
-4.614e-29
-6.17407e-29
-7.9504e-29
-9.75424e-29
-1.12969e-28
-1.22114e-28
-1.21307e-28
-1.08938e-28
-9.02003e-29
-8.54394e-29
-1.38306e-28
-3.13525e-28
-6.81446e-28
-1.29168e-27
-2.07071e-27
-2.82218e-27
-3.21577e-27
-2.41508e-27
5.17869e-28
-1.15618e-30
-1.20492e-30
-1.31101e-30
-1.48576e-30
-1.74451e-30
-2.10283e-30
-2.57192e-30
-3.15336e-30
-3.83488e-30
-4.58873e-30
-5.37572e-30
-6.15734e-30
-6.91812e-30
-7.69791e-30
-8.63018e-30
-9.97739e-30
-1.21496e-29
-1.56891e-29
-2.12046e-29
-2.92464e-29
-4.01256e-29
-5.36972e-29
-6.91463e-29
-8.48276e-29
-9.82245e-29
-1.06137e-28
-1.05356e-28
-9.44673e-29
-7.80477e-29
-7.41602e-29
-1.21737e-28
-2.78345e-28
-6.05916e-28
-1.14847e-27
-1.83778e-27
-2.49162e-27
-2.81279e-27
-2.02325e-27
6.23753e-28
-9.81208e-31
-1.02256e-30
-1.11258e-30
-1.26092e-30
-1.48063e-30
-1.78496e-30
-2.1834e-30
-2.67728e-30
-3.2561e-30
-3.89618e-30
-4.5641e-30
-5.22698e-30
-5.87155e-30
-6.53159e-30
-7.32051e-30
-8.46146e-30
-1.03031e-29
-1.33062e-29
-1.79882e-29
-2.48163e-29
-3.40538e-29
-4.55764e-29
-5.86902e-29
-7.19957e-29
-8.33523e-29
-9.00364e-29
-8.93083e-29
-7.9951e-29
-6.58825e-29
-6.27129e-29
-1.04262e-28
-2.40419e-28
-5.24266e-28
-9.93953e-28
-1.58822e-27
-2.14307e-27
-2.40039e-27
-1.66478e-27
6.19372e-28
-8.04776e-31
-8.38682e-31
-9.12493e-31
-1.03419e-30
-1.21449e-30
-1.46429e-30
-1.79137e-30
-2.1968e-30
-2.67189e-30
-3.19714e-30
-3.74497e-30
-4.28829e-30
-4.81606e-30
-5.35596e-30
-6.00114e-30
-6.93495e-30
-8.44388e-30
-1.09066e-29
-1.4748e-29
-2.03515e-29
-2.79328e-29
-3.73889e-29
-4.81489e-29
-5.90622e-29
-6.83692e-29
-7.3829e-29
-7.31808e-29
-6.54066e-29
-5.37342e-29
-5.11676e-29
-8.60477e-29
-2.0009e-28
-4.37172e-28
-8.2927e-28
-1.32366e-27
-1.77855e-27
-1.97949e-27
-1.33234e-27
5.5355e-28
-6.27152e-31
-6.53565e-31
-7.11067e-31
-8.05921e-31
-9.46507e-31
-1.14132e-30
-1.39643e-30
-1.71264e-30
-2.08315e-30
-2.49268e-30
-2.91961e-30
-3.34271e-30
-3.75329e-30
-4.17287e-30
-4.67414e-30
-5.40028e-30
-6.57499e-30
-8.49393e-30
-1.14887e-29
-1.58584e-29
-2.17709e-29
-2.91453e-29
-3.75353e-29
-4.60421e-29
-5.32916e-29
-5.75315e-29
-5.69885e-29
-5.08501e-29
-4.16308e-29
-3.95969e-29
-6.72707e-29
-1.57744e-28
-3.45396e-28
-6.55714e-28
-1.04593e-27
-1.4002e-27
-1.55083e-27
-1.01918e-27
4.52037e-28
-4.48607e-31
-4.67492e-31
-5.08608e-31
-5.76468e-31
-6.77082e-31
-8.16538e-31
-9.99175e-31
-1.22557e-30
-1.4908e-30
-1.78388e-30
-2.08929e-30
-2.39172e-30
-2.68488e-30
-2.98416e-30
-3.34162e-30
-3.85987e-30
-4.69929e-30
-6.07178e-30
-8.21497e-30
-1.13431e-29
-1.55762e-29
-2.08559e-29
-2.68621e-29
-3.29504e-29
-3.81356e-29
-4.11601e-29
-4.07461e-29
-3.6296e-29
-2.9599e-29
-2.80746e-29
-4.8121e-29
-1.13799e-28
-2.49777e-28
-4.74717e-28
-7.57035e-28
-1.01025e-27
-1.11513e-27
-7.19502e-28
3.3338e-28
-2.69412e-31
-2.80747e-31
-3.05427e-31
-3.46184e-31
-4.06638e-31
-4.90451e-31
-6.00232e-31
-7.36316e-31
-8.95734e-31
-1.07185e-30
-1.25528e-30
-1.43678e-30
-1.61252e-30
-1.79171e-30
-2.00567e-30
-2.31615e-30
-2.81968e-30
-3.64382e-30
-4.93157e-30
-6.81182e-30
-9.35674e-30
-1.25311e-29
-1.6142e-29
-1.98017e-29
-2.29171e-29
-2.47301e-29
-2.44674e-29
-2.17576e-29
-1.76637e-29
-1.66747e-29
-2.87969e-29
-6.87012e-29
-1.51214e-28
-2.87831e-28
-4.59124e-28
-6.11095e-28
-6.73272e-28
-4.28663e-28
2.04232e-28
-8.9839e-32
-9.36142e-32
-1.01836e-31
-1.15425e-31
-1.35592e-31
-1.63563e-31
-2.00211e-31
-2.45647e-31
-2.98875e-31
-3.57666e-31
-4.18869e-31
-4.7937e-31
-5.37861e-31
-5.97391e-31
-6.68406e-31
-7.71537e-31
-9.39064e-31
-1.21366e-30
-1.64319e-30
-2.2708e-30
-3.12067e-30
-4.18106e-30
-5.38757e-30
-6.61058e-30
-7.65172e-30
-8.25697e-30
-8.16548e-30
-7.24725e-30
-5.84805e-30
-5.47001e-30
-9.50224e-30
-2.29177e-29
-5.06614e-29
-9.6715e-29
-1.54488e-28
-2.05254e-28
-2.26269e-28
-1.42902e-28
6.87794e-29
-1.20767e-20
-6.0964e-21
-3.95075e-21
-1.49719e-21
-1.84344e-21
-6.25501e-22
-3.14091e-22
-1.6694e-22
-1.03389e-22
-8.26693e-23
-3.27562e-23
-1.64335e-23
-9.302e-24
-6.15018e-24
-4.19128e-24
-1.50747e-24
-6.61249e-25
-2.8341e-25
-8.58165e-26
4.15931e-26
1.38706e-25
1.74786e-25
1.86774e-25
1.8924e-25
1.87244e-25
)
;

boundaryField
{
    fixedWallsLeftTop
    {
        type            zeroGradient;
    }
    backFaceLeftTop
    {
        type            zeroGradient;
    }
    frontFaceLeftTop
    {
        type            zeroGradient;
    }
    symmetryWallLeftTop
    {
        type            fixedValue;
        value           uniform 0;
    }
    topToBottom
    {
        type            zeroGradient;
    }
    plug
    {
        type            cyclicAMI;
        value           nonuniform List<scalar> 
40
(
7.71467e-26
7.73684e-26
7.77616e-26
7.82358e-26
8.69646e-26
7.9386e-26
7.91934e-26
7.90769e-26
7.97964e-26
7.98559e-26
7.99207e-26
8.01602e-26
8.04808e-26
8.85466e-26
8.04008e-26
8.00652e-26
7.89888e-26
7.89123e-26
7.88438e-26
7.87832e-26
7.88981e-26
7.90947e-26
8.66415e-26
7.80448e-26
7.36051e-26
7.32537e-26
7.3083e-26
7.29245e-26
7.27781e-26
7.28027e-26
7.29155e-26
7.9958e-26
5.58057e-26
5.53998e-26
5.5083e-26
5.49326e-26
5.48158e-26
5.47302e-26
5.47504e-26
5.48509e-26
)
;
    }
    fixedWallsChannel
    {
        type            zeroGradient;
    }
    inlet
    {
        type            zeroGradient;
    }
    outlet
    {
        type            cyclicAMI;
        value           nonuniform List<scalar> 5(7.96661e-26 8.14212e-26 8.00247e-26 7.4134e-26 5.5046e-26);
    }
    backFaceInletChannel
    {
        type            zeroGradient;
    }
    frontFaceInletChannel
    {
        type            zeroGradient;
    }
}


// ************************************************************************* //
