/*--------------------------------*- C++ -*----------------------------------*\
| =========                 |                                                 |
| \\      /  F ield         | OpenFOAM: The Open Source CFD Toolbox           |
|  \\    /   O peration     | Version:  4.1                                   |
|   \\  /    A nd           | Web:      www.OpenFOAM.org                      |
|    \\/     M anipulation  |                                                 |
\*---------------------------------------------------------------------------*/
FoamFile
{
    version     2.0;
    format      ascii;
    class       surfaceScalarField;
    location    "10";
    object      phi;
}
// * * * * * * * * * * * * * * * * * * * * * * * * * * * * * * * * * * * * * //

dimensions      [0 3 -1 0 0 0 0];

internalField   nonuniform List<scalar> 
3240
(
-1.04215e-24
-1.05735e-24
1.52041e-26
-1.05735e-24
-1.05735e-24
-1.05736e-24
-1.08894e-24
3.15975e-26
-1.08892e-24
-1.08892e-24
-1.08893e-24
-1.13955e-24
5.06371e-26
-1.13951e-24
-1.13953e-24
-1.22727e-24
8.7772e-26
-1.22721e-24
-1.22721e-24
-1.22723e-24
-1.34565e-24
1.18456e-25
-1.34557e-24
-1.3456e-24
-1.5158e-24
1.70245e-25
-1.51569e-24
-1.51569e-24
-1.51572e-24
-1.74144e-24
2.25768e-25
-1.7413e-24
-1.7413e-24
-1.74134e-24
-2.04271e-24
3.01438e-25
-2.04255e-24
-2.04259e-24
-2.44929e-24
4.06771e-25
-2.44909e-24
-2.44909e-24
-2.44914e-24
-2.99418e-24
5.4513e-25
-2.99395e-24
-2.99401e-24
-3.72118e-24
7.27271e-25
-3.7209e-24
-3.7209e-24
-3.46802e-24
-3.21119e-24
-2.95364e-24
-2.61107e-24
-1.83535e-24
-6.4755e-25
-1.50966e-24
-1.24865e-24
-9.8951e-25
-7.90835e-25
-5.91882e-25
-3.94728e-25
-1.9575e-25
8.47301e-26
6.67802e-25
-5.49786e-25
9.3585e-25
1.13665e-24
1.26468e-24
1.39485e-24
1.52574e-24
1.65608e-24
1.78921e-24
1.99906e-24
2.49945e-24
-5.72869e-25
2.70198e-24
2.69422e-24
2.68554e-24
2.67951e-24
2.67497e-24
2.6707e-24
2.66948e-24
2.7363e-24
3.07855e-24
-6.13646e-25
2.60218e-24
2.06958e-24
1.53688e-24
1.00645e-24
4.76753e-25
-5.34444e-26
-5.83787e-25
-1.08939e-24
-9.5695e-25
-1.33097e-25
-8.22513e-25
-1.3417e-25
-8.22372e-25
-7.07238e-25
-1.15082e-25
-7.07123e-25
-6.01728e-25
-1.05378e-25
-5.27251e-25
-7.43305e-26
-5.27175e-25
-4.55033e-25
-7.213e-26
-4.06823e-25
-4.81093e-26
-4.06769e-25
-3.58024e-25
-4.87257e-26
-3.57976e-25
-3.09287e-25
-4.86823e-26
-2.75845e-25
-3.33768e-26
-2.75804e-25
-2.41566e-25
-3.42266e-26
-2.41525e-25
-2.08481e-25
-3.30397e-26
-1.8317e-25
-2.52591e-26
-1.83127e-25
-1.58644e-25
-2.4481e-26
-1.38789e-25
-1.98041e-26
-1.38741e-25
-1.19301e-25
-1.94368e-26
-1.1925e-25
-1.02363e-25
-1.6886e-26
-8.653e-26
-1.57782e-26
-8.64743e-26
-7.16837e-26
-1.4789e-26
-7.16254e-26
-5.94851e-26
-1.21395e-26
-4.6545e-26
-1.28804e-26
-4.64828e-26
-3.4966e-26
-1.15164e-26
-2.31992e-26
-1.17046e-26
-2.31347e-26
-1.12544e-26
-1.18799e-26
-1.11893e-26
-1.11892e-26
1.04875e-29
-1.04875e-29
2.13761e-29
-1.08948e-29
3.3094e-29
-1.17229e-29
4.60953e-29
-1.30034e-29
6.0883e-29
-1.47851e-29
7.80274e-29
-1.71355e-29
9.81866e-29
-2.01435e-29
1.22131e-28
-2.39234e-29
1.50773e-28
-2.86189e-29
1.85202e-28
-3.441e-29
2.26726e-28
-4.15208e-29
2.76932e-28
-5.02287e-29
3.37748e-28
-6.08762e-29
4.11528e-28
-7.38843e-29
5.01151e-28
-8.97676e-29
6.10137e-28
-1.09151e-28
7.42783e-28
-1.3279e-28
9.04317e-28
-1.61589e-28
1.10106e-27
-1.96628e-28
1.34063e-27
-2.39191e-28
1.63215e-27
-2.90803e-28
1.98647e-27
-3.53286e-28
2.41653e-27
-4.28815e-28
2.93771e-27
-5.20007e-28
3.56832e-27
-6.29992e-28
4.33017e-27
-7.62457e-28
5.2492e-27
-9.2157e-28
6.35575e-27
-1.11163e-27
7.68417e-27
-1.33617e-27
9.27043e-27
-1.59608e-27
1.11459e-26
-1.8856e-27
1.33232e-26
-2.18475e-27
1.57676e-26
-2.44536e-27
1.83448e-26
-2.5674e-27
2.07333e-26
-2.36488e-27
2.2306e-26
-1.53428e-27
2.20426e-26
3.14737e-28
1.8668e-26
3.43449e-27
7.54213e-27
1.04773e-29
-2.09701e-29
2.13557e-29
-2.17812e-29
3.30624e-29
-2.34317e-29
4.60512e-29
-2.59852e-29
6.08246e-29
-2.95403e-29
7.79523e-29
-3.42337e-29
9.80921e-29
-4.02457e-29
1.22014e-28
-4.7807e-29
1.50628e-28
-5.72083e-29
1.85024e-28
-6.88109e-29
2.26509e-28
-8.30619e-29
2.76666e-28
-1.00511e-28
3.37422e-28
-1.21833e-28
4.1113e-28
-1.47854e-28
5.00663e-28
-1.7958e-28
6.09542e-28
-2.18239e-28
7.42058e-28
-2.65323e-28
9.03434e-28
-3.22638e-28
1.09999e-27
-3.92368e-28
1.33933e-27
-4.77147e-28
1.63058e-27
-5.80143e-28
1.98458e-27
-7.05156e-28
2.41427e-27
-8.56726e-28
2.93499e-27
-1.04024e-27
3.56506e-27
-1.26203e-27
4.32629e-27
-1.52931e-27
5.24461e-27
-1.84999e-27
6.35041e-27
-2.23194e-27
7.67817e-27
-2.68126e-27
9.26414e-27
-3.19868e-27
1.11403e-26
-3.7721e-27
1.33203e-26
-4.36198e-27
1.57716e-26
-4.87393e-27
1.83632e-26
-5.11145e-27
2.07781e-26
-4.70627e-27
2.23922e-26
-3.05253e-27
2.21794e-26
6.39126e-28
1.88424e-26
6.89289e-27
1.46116e-26
1.04449e-29
-3.14201e-29
2.12897e-29
-3.26338e-29
3.29603e-29
-3.51042e-29
4.5909e-29
-3.89274e-29
6.06368e-29
-4.42511e-29
7.77118e-29
-5.12809e-29
9.77896e-29
-6.02879e-29
1.21638e-28
-7.1619e-29
1.50164e-28
-8.57107e-29
1.84454e-28
-1.03105e-28
2.25811e-28
-1.24471e-28
2.75813e-28
-1.50631e-28
3.36382e-28
-1.82591e-28
4.0986e-28
-2.21581e-28
4.99117e-28
-2.691e-28
6.07658e-28
-3.26981e-28
7.39765e-28
-3.97448e-28
9.00645e-28
-4.83212e-28
1.0966e-27
-5.87555e-28
1.33521e-27
-7.14455e-28
1.62558e-27
-8.68707e-28
1.97852e-27
-1.05608e-27
2.40693e-27
-1.28344e-27
2.92612e-27
-1.55895e-27
3.55437e-27
-1.8921e-27
4.31346e-27
-2.29368e-27
5.22933e-27
-2.77538e-27
6.33244e-27
-3.34874e-27
7.65747e-27
-4.02267e-27
9.24121e-27
-4.79813e-27
1.11167e-26
-5.65738e-27
1.32998e-26
-6.54246e-27
1.57621e-26
-7.31468e-27
1.83794e-26
-7.68378e-27
2.08442e-26
-7.1017e-27
2.25399e-26
-4.65788e-27
2.24295e-26
8.54057e-28
1.91511e-26
1.02854e-26
2.21593e-26
1.03964e-29
-4.18214e-29
2.11909e-29
-4.34358e-29
3.28074e-29
-4.67226e-29
4.5696e-29
-5.18099e-29
6.03557e-29
-5.88945e-29
7.73516e-29
-6.82502e-29
9.73364e-29
-8.02386e-29
1.21074e-28
-9.5322e-29
1.49469e-28
-1.14082e-28
1.83599e-28
-1.3724e-28
2.24764e-28
-1.65687e-28
2.74535e-28
-2.00514e-28
3.34822e-28
-2.43059e-28
4.0796e-28
-2.94956e-28
4.96802e-28
-3.58196e-28
6.0484e-28
-4.35211e-28
7.36335e-28
-5.28964e-28
8.96471e-28
-6.43058e-28
1.09152e-27
-7.81876e-28
1.32904e-27
-9.50726e-28
1.61808e-27
-1.15602e-27
1.96943e-27
-1.40548e-27
2.3959e-27
-1.7083e-27
2.9128e-27
-2.07536e-27
3.53831e-27
-2.51934e-27
4.29419e-27
-3.05459e-27
5.20639e-27
-3.69666e-27
6.30548e-27
-4.46089e-27
7.62645e-27
-5.35925e-27
9.20684e-27
-6.39348e-27
1.10813e-26
-7.54109e-27
1.32689e-26
-8.7274e-27
1.57473e-26
-9.7723e-27
1.84027e-26
-1.0296e-26
2.0942e-26
-9.57465e-27
2.27604e-26
-6.39034e-27
2.28068e-26
9.06499e-28
1.9626e-26
1.35742e-26
3.03638e-26
1.03319e-29
-5.2158e-29
2.10594e-29
-5.41707e-29
3.26039e-29
-5.8269e-29
4.54126e-29
-6.46127e-29
5.99814e-29
-7.34475e-29
7.6872e-29
-8.51151e-29
9.6733e-29
-1.00067e-28
1.20324e-28
-1.18879e-28
1.48542e-28
-1.42278e-28
1.82461e-28
-1.71163e-28
2.23371e-28
-2.06645e-28
2.72833e-28
-2.50084e-28
3.32746e-28
-3.03148e-28
4.0543e-28
-3.6787e-28
4.93721e-28
-4.46733e-28
6.0109e-28
-5.42768e-28
7.31771e-28
-6.59666e-28
8.90918e-28
-8.01928e-28
1.08477e-27
-9.75021e-28
1.32083e-27
-1.18558e-27
1.60811e-27
-1.44163e-27
1.95731e-27
-1.75281e-27
2.38122e-27
-2.13063e-27
2.89504e-27
-2.5887e-27
3.5169e-27
-3.14286e-27
4.26851e-27
-3.81104e-27
5.17582e-27
-4.61272e-27
6.26955e-27
-5.5672e-27
7.58508e-27
-6.68981e-27
9.16094e-27
-7.98368e-27
1.10338e-26
-9.42274e-27
1.32271e-26
-1.09178e-26
1.57264e-26
-1.22511e-26
1.84315e-26
-1.29591e-26
2.10694e-26
-1.21483e-26
2.30522e-26
-8.29069e-27
2.33135e-26
7.39364e-28
2.02975e-26
1.66931e-26
3.787e-26
1.02514e-29
-6.24141e-29
2.08955e-29
-6.48219e-29
3.23501e-29
-6.97255e-29
4.50592e-29
-7.73161e-29
5.95147e-29
-8.78876e-29
7.6274e-29
-1.01849e-28
9.59805e-29
-1.19741e-28
1.19388e-28
-1.42253e-28
1.47387e-28
-1.70254e-28
1.81042e-28
-2.04822e-28
2.21634e-28
-2.47283e-28
2.7071e-28
-2.99267e-28
3.30157e-28
-3.62766e-28
4.02275e-28
-4.40213e-28
4.8988e-28
-5.34578e-28
5.96414e-28
-6.49486e-28
7.2608e-28
-7.89355e-28
8.83994e-28
-9.59571e-28
1.07635e-27
-1.16669e-27
1.31059e-27
-1.41865e-27
1.59566e-27
-1.72507e-27
1.9422e-27
-2.09751e-27
2.3629e-27
-2.54979e-27
2.87287e-27
-3.0982e-27
3.49017e-27
-3.76176e-27
4.23644e-27
-4.56202e-27
5.13764e-27
-5.52243e-27
6.22464e-27
-6.66642e-27
7.53333e-27
-8.01305e-27
9.10337e-27
-9.56753e-27
1.0974e-26
-1.13016e-26
1.31738e-26
-1.31143e-26
1.56981e-26
-1.47549e-26
1.8464e-26
-1.56836e-26
2.12237e-26
-1.48454e-26
2.34135e-26
-1.04007e-26
2.39516e-26
2.91058e-28
2.11446e-26
1.95985e-26
4.69574e-26
1.01551e-29
-7.25738e-29
2.06993e-29
-7.53731e-29
3.20465e-29
-8.10744e-29
4.46364e-29
-8.99002e-29
5.89562e-29
-1.02192e-28
7.55583e-29
-1.18427e-28
9.508e-29
-1.39231e-28
1.18268e-28
-1.65409e-28
1.46004e-28
-1.97969e-28
1.79344e-28
-2.38165e-28
2.19554e-28
-2.8754e-28
2.6817e-28
-3.47988e-28
3.27059e-28
-4.21823e-28
3.98501e-28
-5.11876e-28
4.85284e-28
-6.21597e-28
5.90819e-28
-7.55202e-28
7.19272e-28
-9.1783e-28
8.7571e-28
-1.11574e-27
1.06627e-27
-1.35657e-27
1.29833e-27
-1.64956e-27
1.58076e-27
-2.0059e-27
1.92411e-27
-2.43906e-27
2.34096e-27
-2.96512e-27
2.84633e-27
-3.60311e-27
3.45816e-27
-4.37517e-27
4.19803e-27
-5.3065e-27
5.09189e-27
-6.4246e-27
6.17078e-27
-7.75724e-27
7.47115e-27
-9.32756e-27
9.03401e-27
-1.11437e-26
1.09015e-26
-1.31769e-26
1.31082e-26
-1.53172e-26
1.56609e-26
-1.7287e-26
1.84975e-26
-1.84791e-26
2.14015e-26
-1.7688e-26
2.38411e-26
-1.27632e-26
2.47239e-26
-5.05962e-28
2.22389e-26
2.21777e-26
5.44811e-26
1.00432e-29
-8.26215e-29
2.04713e-29
-8.5808e-29
3.16935e-29
-9.22984e-29
4.41447e-29
-1.02346e-28
5.83069e-29
-1.1634e-28
7.47261e-29
-1.34821e-28
9.40329e-29
-1.58506e-28
1.16965e-28
-1.88309e-28
1.44396e-28
-2.25378e-28
1.77369e-28
-2.71141e-28
2.17136e-28
-3.27353e-28
2.65217e-28
-3.96171e-28
3.23457e-28
-4.80229e-28
3.94112e-28
-5.82748e-28
4.79939e-28
-7.07658e-28
5.84314e-28
-8.59756e-28
7.11355e-28
-1.04489e-27
8.66077e-28
-1.27021e-27
1.05455e-27
-1.54438e-27
1.28408e-27
-1.87795e-27
1.56343e-27
-2.28368e-27
1.90307e-27
-2.77692e-27
2.31544e-27
-3.37601e-27
2.81544e-27
-4.10266e-27
3.42091e-27
-4.98218e-27
4.1533e-27
-6.04341e-27
5.03858e-27
-7.31802e-27
6.10796e-27
-8.83826e-27
7.3985e-27
-1.06318e-26
8.95268e-27
-1.27106e-26
1.08159e-26
-1.50472e-26
1.30294e-26
-1.75264e-26
1.56133e-26
-1.98498e-26
1.85292e-26
-2.13541e-26
2.15985e-26
-2.06971e-26
2.43314e-26
-1.54214e-26
2.56312e-26
-1.72427e-27
2.3531e-26
2.43678e-26
6.22968e-26
9.91584e-30
-9.25418e-29
2.02117e-29
-9.61106e-29
3.12916e-29
-1.0338e-28
4.35849e-29
-1.14634e-28
5.75676e-29
-1.30308e-28
7.37787e-29
-1.51009e-28
9.28408e-29
-1.77538e-28
1.15482e-28
-2.10919e-28
1.42566e-28
-2.5244e-28
1.7512e-28
-3.03699e-28
2.14384e-28
-3.66662e-28
2.61855e-28
-4.43743e-28
3.19356e-28
-5.37895e-28
3.89116e-28
-6.52722e-28
4.73855e-28
-7.92628e-28
5.76908e-28
-9.62985e-28
7.02343e-28
-1.17035e-27
8.5511e-28
-1.42272e-27
1.04121e-27
-1.72982e-27
1.26785e-27
-2.10347e-27
1.5437e-27
-2.55799e-27
1.8791e-27
-3.11057e-27
2.28638e-27
-3.78182e-27
2.78026e-27
-4.5961e-27
3.37846e-27
-5.58189e-27
4.10232e-27
-6.77171e-27
4.97777e-27
-8.20145e-27
6.03622e-27
-9.90808e-27
7.31535e-27
-1.19243e-26
8.85922e-27
-1.42668e-26
1.07167e-26
-1.69112e-26
1.29365e-26
-1.97411e-26
1.55531e-26
-2.24449e-26
1.85555e-26
-2.43156e-26
2.18095e-26
-2.38921e-26
2.48793e-26
-1.84191e-26
2.66749e-26
-3.44293e-27
2.50481e-26
2.608e-26
7.05129e-26
9.77316e-30
-1.02319e-28
1.99209e-29
-1.06265e-28
3.08414e-29
-1.14302e-28
4.2958e-29
-1.26745e-28
5.67395e-29
-1.44075e-28
7.27176e-29
-1.66963e-28
9.15055e-29
-1.96295e-28
1.13822e-28
-2.33204e-28
1.40515e-28
-2.79113e-28
1.72602e-28
-3.35788e-28
2.113e-28
-4.05405e-28
2.58088e-28
-4.90631e-28
3.14763e-28
-5.94731e-28
3.83519e-28
-7.2169e-28
4.67041e-28
-8.76377e-28
5.68613e-28
-1.06473e-27
6.92248e-28
-1.29401e-27
8.42826e-28
-1.57304e-27
1.02626e-27
-1.91261e-27
1.24967e-27
-2.32578e-27
1.5216e-27
-2.82839e-27
1.85225e-27
-3.43951e-27
2.25381e-27
-4.18193e-27
2.74083e-27
-5.0827e-27
3.33086e-27
-6.17342e-27
4.04513e-27
-7.49034e-27
4.9095e-27
-9.07364e-27
5.95557e-27
-1.09652e-26
7.22165e-27
-1.32033e-26
8.75345e-27
-1.58102e-26
1.06035e-26
-1.87671e-26
1.28283e-26
-2.19602e-26
1.54783e-26
-2.50728e-26
1.85724e-26
-2.73691e-26
2.20285e-26
-2.72903e-26
2.54784e-26
-2.17998e-26
2.78558e-26
-5.74843e-27
2.68253e-26
2.71915e-26
7.79416e-26
9.61542e-30
-1.11939e-28
1.95994e-29
-1.16255e-28
3.03437e-29
-1.25048e-28
4.22648e-29
-1.3866e-28
5.5824e-29
-1.57619e-28
7.15443e-29
-1.8266e-28
9.00292e-29
-2.1475e-28
1.11985e-28
-2.5513e-28
1.38248e-28
-3.05356e-28
1.69817e-28
-3.6736e-28
2.07891e-28
-4.43523e-28
2.53924e-28
-5.36763e-28
3.09685e-28
-6.50651e-28
3.77332e-28
-7.89546e-28
4.59507e-28
-9.58775e-28
5.59442e-28
-1.16484e-27
6.81086e-28
-1.41567e-27
8.29243e-28
-1.72095e-27
1.00973e-27
-2.09246e-27
1.22957e-27
-2.54453e-27
1.49716e-27
-3.09448e-27
1.82255e-27
-3.76322e-27
2.21777e-27
-4.57574e-27
2.6972e-27
-5.56171e-27
3.27819e-27
-6.75587e-27
3.9818e-27
-8.19822e-27
4.83384e-27
-9.93332e-27
5.86605e-27
-1.20082e-26
7.11738e-27
-1.44671e-26
8.63517e-27
-1.73391e-26
1.04758e-26
-2.06128e-26
1.27038e-26
-2.41817e-26
1.53864e-26
-2.77328e-26
1.85756e-26
-3.05176e-26
2.22481e-26
-3.09063e-26
2.61205e-26
-2.5606e-26
2.91734e-26
-8.7349e-27
2.88553e-26
2.75859e-26
8.70175e-26
9.44286e-30
-1.21386e-28
1.92477e-29
-1.26067e-28
2.97992e-29
-1.35601e-28
4.15064e-29
-1.50362e-28
5.48224e-29
-1.70921e-28
7.02606e-29
-1.98075e-28
8.84139e-29
-2.32874e-28
1.09976e-28
-2.76662e-28
1.35768e-28
-3.31128e-28
1.6677e-28
-3.98366e-28
2.04162e-28
-4.80958e-28
2.49369e-28
-5.82068e-28
3.04129e-28
-7.05567e-28
3.70563e-28
-8.56186e-28
4.51264e-28
-1.0397e-27
5.49409e-28
-1.26315e-27
6.68875e-28
-1.53516e-27
8.14382e-28
-1.86621e-27
9.91649e-28
-2.26911e-27
1.20757e-27
-2.75938e-27
1.47041e-27
-3.35585e-27
1.79005e-27
-4.08121e-27
2.17834e-27
-4.96264e-27
2.64944e-27
-6.0324e-27
3.22049e-27
-7.32838e-27
3.91239e-27
-8.8943e-27
4.75084e-27
-1.07792e-26
5.7677e-27
-1.30355e-26
7.0025e-27
-1.57139e-26
8.50423e-27
-1.88513e-26
1.03331e-26
-2.24459e-26
1.25618e-26
-2.64032e-26
1.52751e-26
-3.04228e-26
1.85601e-26
-3.37621e-26
2.24602e-26
-3.47514e-26
2.67954e-26
-2.98784e-26
3.06263e-26
-1.25053e-26
3.12324e-26
2.70515e-26
9.37821e-26
9.25574e-30
-1.30646e-28
1.88663e-29
-1.35683e-28
2.92088e-29
-1.45945e-28
4.06841e-29
-1.61832e-28
5.37362e-29
-1.8396e-28
6.88687e-29
-2.13185e-28
8.66624e-29
-2.50639e-28
1.07797e-28
-2.97768e-28
1.33079e-28
-3.56389e-28
1.63467e-28
-4.28758e-28
2.00117e-28
-5.17651e-28
2.44429e-28
-6.26475e-28
2.98104e-28
-7.59397e-28
3.63222e-28
-9.21506e-28
4.42326e-28
-1.11902e-27
5.38529e-28
-1.35952e-27
6.55633e-28
-1.65228e-27
7.98267e-28
-2.00861e-27
9.72038e-28
-2.44227e-27
1.18371e-27
-2.97e-27
1.44139e-27
-3.61209e-27
1.7548e-27
-4.393e-27
2.13554e-27
-5.34203e-27
2.5976e-27
-6.49405e-27
3.15785e-27
-7.89006e-27
3.837e-27
-9.57752e-27
4.66059e-27
-1.161e-26
5.66056e-27
-1.40456e-26
6.877e-27
-1.69418e-26
8.36044e-27
-2.03445e-26
1.01748e-26
-2.42637e-26
1.2401e-26
-2.86214e-26
1.51415e-26
-3.31396e-26
1.85205e-26
-3.71009e-26
2.26551e-26
-3.88327e-26
2.74904e-26
-3.46545e-26
3.22085e-26
-1.71693e-26
3.39015e-26
2.54259e-26
1.02418e-25
9.05435e-30
-1.39704e-28
1.84558e-29
-1.45091e-28
2.85733e-29
-1.56064e-28
3.97989e-29
-1.73053e-28
5.25672e-29
-1.96714e-28
6.73705e-29
-2.27966e-28
8.47772e-29
-2.68017e-28
1.05453e-28
-3.18414e-28
1.30184e-28
-3.81101e-28
1.59911e-28
-4.58488e-28
1.95764e-28
-5.53546e-28
2.39112e-28
-6.69917e-28
2.9162e-28
-8.12056e-28
3.55322e-28
-9.85406e-28
4.32706e-28
-1.19661e-27
5.26818e-28
-1.4538e-27
6.4138e-28
-1.76687e-27
7.8092e-28
-2.14791e-27
9.50928e-28
-2.61168e-27
1.15802e-27
-3.17607e-27
1.41015e-27
-3.86281e-27
1.71683e-27
-4.69809e-27
2.08946e-27
-5.71334e-27
2.54176e-27
-6.94596e-27
3.09036e-27
-8.44004e-27
3.75569e-27
-1.02468e-26
4.56317e-27
-1.24245e-26
5.54472e-27
-1.50369e-26
6.74089e-27
-1.81489e-26
8.20367e-27
-2.18163e-26
1.00005e-26
-2.60632e-26
1.22203e-26
-3.08322e-26
1.49831e-26
-3.5878e-26
1.84513e-26
-4.05293e-26
2.28223e-26
-4.31525e-26
2.81898e-26
-3.99669e-26
3.39124e-26
-2.28445e-26
3.69809e-26
2.24206e-26
1.0634e-25
8.839e-30
-1.48547e-28
1.80169e-29
-1.54275e-28
2.78938e-29
-1.65943e-28
3.88525e-29
-1.84006e-28
5.13171e-29
-2.09166e-28
6.57685e-29
-2.42395e-28
8.27613e-29
-2.84982e-28
1.02945e-28
-3.3857e-28
1.27088e-28
-4.05225e-28
1.56109e-28
-4.87512e-28
1.91109e-28
-5.88588e-28
2.33426e-28
-7.12326e-28
2.84686e-28
-8.63464e-28
3.46873e-28
-1.04779e-27
4.22418e-28
-1.27237e-27
5.14295e-28
-1.54583e-27
6.26138e-28
-1.87873e-27
7.62369e-28
-2.28392e-27
9.28353e-28
-2.77707e-27
1.13055e-27
-3.37727e-27
1.37674e-27
-4.10762e-27
1.67622e-27
-4.99603e-27
2.04016e-27
-6.07598e-27
2.48199e-27
-7.38742e-27
3.01808e-27
-8.97749e-27
3.66859e-27
-1.09012e-26
4.45867e-27
-1.32214e-26
5.42024e-27
-1.60079e-26
6.5942e-27
-1.93333e-26
8.0338e-27
-2.32643e-26
9.80971e-27
-2.78409e-26
1.20184e-26
-3.30313e-26
1.4797e-26
-3.86318e-26
1.83464e-26
-4.40392e-26
2.29498e-26
-4.77068e-26
2.88748e-26
-4.5841e-26
3.5723e-26
-2.96525e-26
4.03374e-26
1.78661e-26
1.12408e-25
8.61002e-30
-1.57161e-28
1.75502e-29
-1.63221e-28
2.71712e-29
-1.75565e-28
3.78461e-29
-1.94676e-28
4.99879e-29
-2.21294e-28
6.4065e-29
-2.56451e-28
8.06178e-29
-3.01507e-28
1.00279e-28
-3.58203e-28
1.23797e-28
-4.28725e-28
1.52065e-28
-5.15784e-28
1.8616e-28
-6.22723e-28
2.27381e-28
-7.53637e-28
2.77313e-28
-9.13541e-28
3.3789e-28
-1.10856e-27
4.1148e-28
-1.34616e-27
5.0098e-28
-1.63549e-27
6.0993e-28
-1.9877e-27
7.42643e-28
-2.41641e-27
9.04345e-28
-2.93821e-27
1.10134e-27
-3.57329e-27
1.34121e-27
-4.34614e-27
1.63303e-27
-5.28634e-27
1.9877e-27
-6.42941e-27
2.41839e-27
-7.81775e-27
2.94114e-27
-9.50156e-27
3.57578e-27
-1.15396e-26
4.34721e-27
-1.39994e-26
5.28722e-27
-1.69569e-26
6.43695e-27
-2.04929e-26
7.85074e-27
-2.46858e-26
9.6021e-27
-2.95933e-26
1.17944e-26
-3.5213e-26
1.45807e-26
-4.13928e-26
1.81997e-26
-4.76193e-26
2.30245e-26
-5.24848e-26
2.95224e-26
-5.22926e-26
3.76238e-26
-3.77211e-26
4.41189e-26
1.14285e-26
1.23082e-25
8.36777e-30
-1.65533e-28
1.70564e-29
-1.71915e-28
2.64068e-29
-1.84917e-28
3.67814e-29
-2.05046e-28
4.85817e-29
-2.33082e-28
6.22628e-29
-2.70112e-28
7.83499e-29
-3.17568e-28
9.7458e-29
-3.77284e-28
1.20315e-28
-4.51563e-28
1.47788e-28
-5.43261e-28
1.80923e-28
-6.55897e-28
2.20985e-28
-7.93787e-28
2.69512e-28
-9.62209e-28
3.28386e-28
-1.16761e-27
3.99906e-28
-1.41788e-27
4.86891e-28
-1.72263e-27
5.92782e-28
-2.09361e-27
7.21771e-28
-2.54518e-27
8.78941e-28
-3.09482e-27
1.07043e-27
-3.76382e-27
1.3036e-27
-4.57801e-27
1.5873e-27
-5.56858e-27
1.93217e-27
-6.77306e-27
2.35104e-27
-8.23628e-27
2.85961e-27
-1.00114e-26
3.47738e-27
-1.2161e-26
4.22892e-27
-1.47573e-26
5.14578e-27
-1.78823e-26
6.26924e-27
-2.16256e-26
7.65443e-27
-2.60779e-26
9.37731e-27
-3.13164e-26
1.15472e-26
-3.73717e-26
1.43317e-26
-4.41515e-26
1.80051e-26
-5.12546e-26
2.30322e-26
-5.74678e-26
3.01054e-26
-5.9324e-26
3.95898e-26
-4.71804e-26
4.85846e-26
2.49009e-27
1.229e-25
8.11262e-30
-1.73649e-28
1.65363e-29
-1.80344e-28
2.56016e-29
-1.93983e-28
3.56599e-29
-2.15099e-28
4.71005e-29
-2.4451e-28
6.03645e-29
-2.83355e-28
7.59613e-29
-3.33139e-28
9.44869e-29
-3.95784e-28
1.16647e-28
-4.73705e-28
1.43282e-28
-5.699e-28
1.75407e-28
-6.88061e-28
2.14248e-28
-8.32713e-28
2.61296e-28
-1.0094e-27
3.18375e-28
-1.22487e-27
3.87716e-28
-1.48741e-27
4.72052e-28
-1.80711e-27
5.74719e-28
-2.1963e-27
6.99785e-28
-2.67003e-27
8.52181e-28
-3.24668e-27
1.03786e-27
-3.94858e-27
1.26398e-27
-4.80286e-27
1.53912e-27
-5.84232e-27
1.87364e-27
-7.1064e-27
2.28003e-27
-8.64234e-27
2.77363e-27
-1.05063e-26
3.37353e-27
-1.27644e-26
4.10391e-27
-1.54937e-26
4.99605e-27
-1.87827e-26
6.09115e-27
-2.27294e-26
7.4449e-27
-2.74378e-26
9.1351e-27
-3.3006e-26
1.1276e-26
-3.95006e-26
1.40476e-26
-4.68971e-26
1.77566e-26
-5.49263e-26
2.2958e-26
-6.2628e-26
3.05912e-26
-6.69202e-26
4.15768e-26
-5.81485e-26
5.34006e-26
-9.27685e-27
1.27459e-25
7.84496e-30
-1.81497e-28
1.59907e-29
-1.88495e-28
2.4757e-29
-2.02751e-28
3.44835e-29
-2.24821e-28
4.55466e-29
-2.55561e-28
5.83731e-29
-2.96162e-28
7.34555e-29
-3.48196e-28
9.137e-29
-4.13673e-28
1.12799e-28
-4.95117e-28
1.38556e-28
-5.95661e-28
1.69621e-28
-7.19163e-28
2.0718e-28
-8.70355e-28
2.52677e-28
-1.05503e-27
3.07873e-28
-1.28025e-27
3.74928e-28
-1.55466e-27
4.56484e-28
-1.88881e-27
5.5577e-28
-2.2956e-27
6.76719e-28
-2.79078e-27
8.24104e-28
-3.39354e-27
1.00369e-27
-4.12727e-27
1.2224e-27
-5.02035e-27
1.48856e-27
-6.10711e-27
1.8122e-27
-7.42891e-27
2.20547e-27
-9.0353e-27
2.68331e-27
-1.09853e-26
3.26435e-27
-1.33488e-26
3.97235e-27
-1.62075e-26
4.83817e-27
-1.96562e-26
5.90281e-27
-2.38022e-26
7.22217e-27
-2.87627e-26
8.87532e-27
-3.46577e-26
1.09802e-26
-4.15927e-26
1.37264e-26
-4.96171e-26
1.74485e-26
-5.86122e-26
2.27864e-26
-6.79276e-26
3.09423e-26
-7.50439e-26
4.35319e-26
-7.07283e-26
5.88696e-26
-2.45551e-26
1.38071e-25
7.5652e-30
-1.89066e-28
1.54205e-29
-1.96356e-28
2.38742e-29
-2.11205e-28
3.32538e-29
-2.34196e-28
4.39226e-29
-2.66218e-28
5.62918e-29
-3.08513e-28
7.08364e-29
-3.62717e-28
8.81122e-29
-4.30925e-28
1.08777e-28
-5.15766e-28
1.33616e-28
-6.20504e-28
1.63574e-28
-7.49157e-28
1.99794e-28
-9.06656e-28
2.43668e-28
-1.09903e-27
2.96897e-28
-1.33364e-27
3.61562e-28
-1.6195e-27
4.40212e-28
-1.9676e-27
5.35963e-28
-2.39137e-27
6.52609e-28
-2.90723e-27
7.94755e-28
-3.53518e-27
9.67964e-28
-4.29962e-27
1.17893e-27
-5.23013e-27
1.43569e-27
-6.36256e-27
1.74794e-27
-7.74008e-27
2.12747e-27
-9.41453e-27
2.58877e-27
-1.14478e-26
3.15e-27
-1.39132e-26
3.8344e-27
-1.68974e-26
4.67234e-27
-2.05015e-26
5.70439e-27
-2.48418e-26
6.98637e-27
-3.00494e-26
8.59792e-27
-3.62672e-26
1.06592e-26
-4.36407e-26
1.33666e-26
-5.22982e-26
1.70759e-26
-6.22863e-26
2.25018e-26
-7.33185e-26
3.11151e-26
-8.36299e-26
4.53791e-26
-8.49901e-26
6.53737e-26
-4.4485e-26
1.31145e-25
7.27378e-30
-1.96343e-28
1.48265e-29
-2.03913e-28
2.29545e-29
-2.19335e-28
3.1973e-29
-2.4321e-28
4.22308e-29
-2.76464e-28
5.41236e-29
-3.20387e-28
6.8108e-29
-3.76678e-28
8.47185e-29
-4.47511e-28
1.04587e-28
-5.35619e-28
1.2847e-28
-6.44389e-28
1.57274e-28
-7.77996e-28
1.92099e-28
-9.41559e-28
2.34283e-28
-1.14134e-27
2.85462e-28
-1.38499e-27
3.47638e-28
-1.68185e-27
4.23261e-28
-2.04336e-27
5.15328e-28
-2.48346e-27
6.2749e-28
-3.0192e-27
7.64178e-28
-3.67139e-27
9.30743e-28
-4.46535e-27
1.13363e-27
-5.43188e-27
1.38059e-27
-6.60825e-27
1.68097e-27
-8.03942e-27
2.04614e-27
-9.77943e-27
2.49015e-27
-1.18929e-26
3.03063e-27
-1.44568e-26
3.69024e-27
-1.75623e-26
4.49872e-27
-2.13169e-26
5.49608e-27
-2.58461e-26
6.73766e-27
-3.12951e-26
8.30297e-27
-3.78297e-26
1.03129e-26
-4.56369e-26
1.29671e-26
-5.4926e-26
1.66347e-26
-6.592e-26
2.20894e-26
-7.87417e-26
3.10608e-26
-9.25788e-26
4.69998e-26
-1.00934e-25
7.23986e-26
-6.9811e-26
1.29e-25
6.97114e-30
-2.03317e-28
1.42097e-29
-2.11156e-28
2.19995e-29
-2.27125e-28
3.06428e-29
-2.51849e-28
4.04738e-29
-2.86285e-28
5.18719e-29
-3.31767e-28
6.52747e-29
-3.90058e-28
8.11942e-29
-4.63408e-28
1.00237e-28
-5.54646e-28
1.23125e-28
-6.67281e-28
1.50731e-28
-8.05636e-28
1.84107e-28
-9.7501e-28
2.24537e-28
-1.18189e-27
2.73588e-28
-1.4342e-27
3.33178e-28
-1.74161e-27
4.05657e-28
-2.11597e-27
4.93898e-28
-2.57172e-27
6.01403e-28
-3.12652e-27
7.32419e-28
-3.80194e-27
8.92081e-28
-4.62422e-27
1.08657e-27
-5.62528e-27
1.32334e-27
-6.8438e-27
1.61137e-27
-8.32645e-27
1.9616e-27
-1.01294e-26
2.38759e-27
-1.232e-26
2.90641e-27
-1.49785e-26
3.54006e-27
-1.82009e-26
4.31755e-27
-2.21009e-26
5.27812e-27
-2.68131e-26
6.47628e-27
-3.24967e-26
7.99069e-27
-3.93406e-26
9.94136e-27
-4.75733e-26
1.25273e-26
-5.74857e-26
1.61218e-26
-6.94819e-26
2.1536e-26
-8.41278e-26
3.07268e-26
-1.01752e-25
4.82453e-26
-1.18464e-25
8.03499e-26
-1.0183e-25
1.03734e-25
6.65776e-30
-2.09978e-28
1.35709e-29
-2.18074e-28
2.10106e-29
-2.34566e-28
2.92653e-29
-2.60099e-28
3.86545e-29
-2.95663e-28
4.95403e-29
-3.42636e-28
6.23406e-29
-4.02837e-28
7.75447e-29
-4.78591e-28
9.57312e-29
-5.72819e-28
1.17591e-28
-6.89145e-28
1.43956e-28
-8.32033e-28
1.75832e-28
-1.00696e-27
2.14445e-28
-1.22062e-27
2.61291e-28
-1.48119e-27
3.18203e-28
-1.79869e-27
3.87427e-28
-2.18531e-27
4.71706e-28
-2.65601e-27
5.74386e-28
-3.22903e-27
6.99527e-28
-3.92663e-27
8.52039e-28
-4.77597e-27
1.03783e-27
-5.81004e-27
1.26403e-27
-7.06884e-27
1.53925e-27
-8.60072e-27
1.87398e-27
-1.04639e-26
2.28125e-27
-1.27283e-26
2.77751e-27
-1.54776e-26
3.38406e-27
-1.88122e-26
4.12907e-27
-2.2852e-26
5.05078e-27
-2.77407e-26
6.20252e-27
-3.36513e-26
7.66138e-27
-4.07955e-26
9.54486e-27
-4.94422e-26
1.20475e-26
-5.99623e-26
1.5536e-26
-7.29393e-26
2.0831e-26
-8.93985e-26
3.00585e-26
-1.10966e-25
4.89116e-26
-1.37336e-25
8.85719e-26
-1.41389e-25
7.69272e-26
6.33411e-30
-2.16315e-28
1.29112e-29
-2.24655e-28
1.99893e-29
-2.41645e-28
2.78428e-29
-2.67949e-28
3.67756e-29
-3.04586e-28
4.71323e-29
-3.52977e-28
5.93105e-29
-4.14994e-28
7.37755e-29
-4.93035e-28
9.10781e-29
-5.90107e-28
1.11876e-28
-7.09945e-28
1.36959e-28
-8.57148e-28
1.67286e-28
-1.03735e-27
2.04022e-28
-1.25746e-27
2.48591e-28
-1.52591e-27
3.02738e-28
-1.85299e-27
3.68599e-28
-2.25129e-27
4.48785e-28
-2.73622e-27
5.46482e-28
-3.32656e-27
6.65554e-28
-4.04528e-27
8.10676e-28
-4.92037e-27
9.87481e-28
-5.98585e-27
1.20276e-27
-7.28302e-27
1.46472e-27
-8.86179e-27
1.78341e-27
-1.07823e-26
2.17128e-27
-1.31171e-26
2.64413e-27
-1.59531e-26
3.22246e-27
-1.93949e-26
3.93352e-27
-2.35687e-26
4.81435e-27
-2.86268e-26
5.91675e-27
-3.4756e-26
7.31551e-27
-4.21898e-26
9.12405e-27
-5.12359e-26
1.15284e-26
-6.2341e-26
1.48776e-26
-7.6259e-26
1.99683e-26
-9.44685e-26
2.9004e-26
-1.19993e-25
4.87507e-26
-1.57107e-25
9.73036e-26
-1.89816e-25
3.96996e-26
6.0007e-30
-2.22319e-28
1.22316e-29
-2.3089e-28
1.89371e-29
-2.48351e-28
2.63773e-29
-2.75385e-28
3.48399e-29
-3.13039e-28
4.46516e-29
-3.62773e-28
5.61888e-29
-4.26512e-28
6.98926e-29
-5.06719e-28
8.62846e-29
-6.06486e-28
1.05988e-28
-7.29651e-28
1.29751e-28
-8.80941e-28
1.58481e-28
-1.06615e-27
1.93284e-28
-1.29237e-27
2.35508e-28
-1.56827e-27
2.86806e-28
-1.90443e-27
3.49202e-28
-2.3138e-27
4.25171e-28
-2.8122e-27
5.17733e-28
-3.41896e-27
6.3055e-28
-4.15769e-27
7.68056e-28
-5.05718e-27
9.35593e-28
-6.15245e-27
1.13961e-27
-7.486e-27
1.3879e-27
-9.10924e-27
1.69001e-27
-1.10842e-26
2.05784e-27
-1.34858e-26
2.50646e-27
-1.64042e-26
3.05552e-27
-1.99481e-26
3.73119e-27
-2.42496e-26
4.56918e-27
-2.94696e-26
5.61939e-27
-3.58079e-26
6.95367e-27
-4.35192e-26
8.67984e-27
-5.29471e-26
1.09717e-26
-6.46076e-26
1.41492e-26
-7.94087e-26
1.89474e-26
-9.92496e-26
2.75195e-26
-1.2856e-25
4.74441e-26
-1.77062e-25
1.06519e-25
-2.48736e-25
1.27236e-26
5.65803e-30
-2.27979e-28
1.15331e-29
-2.36769e-28
1.78558e-29
-2.54675e-28
2.48711e-29
-2.82397e-28
3.28506e-29
-3.2101e-28
4.2102e-29
-3.7201e-28
5.29805e-29
-4.37372e-28
6.59019e-29
-5.19622e-28
8.13579e-29
-6.2193e-28
9.99359e-29
-7.48232e-28
1.22342e-28
-9.03375e-28
1.49433e-28
-1.0933e-27
1.82248e-28
-1.32529e-27
2.22061e-28
-1.60821e-27
2.70431e-28
-1.95294e-27
3.29266e-28
-2.37274e-27
4.00901e-28
-2.88385e-27
4.88183e-28
-3.50609e-27
5.9457e-28
-4.2637e-27
7.24245e-28
-5.18621e-27
8.82251e-28
-6.30957e-27
1.07468e-27
-7.67744e-27
1.3089e-27
-9.34266e-27
1.59395e-27
-1.13691e-26
1.9411e-27
-1.38339e-26
2.3647e-27
-1.68301e-26
2.88346e-27
-2.04707e-26
3.52239e-27
-2.48933e-26
4.31565e-27
-3.02672e-26
5.31094e-27
-3.68045e-26
6.57655e-27
-4.47796e-26
8.21341e-27
-5.45691e-26
1.03796e-26
-6.67493e-26
1.33555e-26
-8.23585e-26
1.77749e-26
-1.03656e-25
2.55795e-26
-1.36364e-25
4.45795e-26
-1.96097e-25
1.16972e-25
-3.20936e-25
-4.84988e-25
5.30664e-30
-2.33289e-28
1.08169e-29
-2.42283e-28
1.67469e-29
-2.60606e-28
2.33266e-29
-2.88973e-28
3.08105e-29
-3.28485e-28
3.94875e-29
-3.80673e-28
4.96905e-29
-4.47558e-28
6.18095e-29
-5.31723e-28
7.63058e-29
-6.36415e-28
9.37302e-29
-7.6566e-28
1.14745e-28
-9.24417e-28
1.40153e-28
-1.11877e-27
1.70931e-28
-1.35616e-27
2.08272e-28
-1.64567e-27
2.53639e-28
-1.99844e-27
3.08821e-28
-2.42803e-27
3.76011e-28
-2.95105e-27
4.57879e-28
-3.58782e-27
5.5767e-28
-4.36313e-27
6.7931e-28
-5.30724e-27
8.27536e-28
-6.45697e-27
1.00807e-27
-7.85705e-27
1.22784e-27
-9.56169e-27
1.49536e-27
-1.16365e-26
1.82125e-27
-1.41606e-26
2.21907e-27
-1.72301e-26
2.70655e-27
-2.09618e-26
3.30743e-27
-2.54986e-26
4.05415e-27
-3.10177e-26
4.99194e-27
-3.77431e-26
6.18496e-27
-4.59672e-26
7.7262e-27
-5.60956e-26
9.75522e-27
-6.87545e-26
1.25036e-26
-8.50825e-26
1.64665e-26
-1.07608e-25
2.319e-26
-1.43089e-25
3.95864e-26
-2.12534e-25
1.10446e-25
-3.91553e-25
-9.4852e-25
4.94707e-30
-2.38238e-28
1.0084e-29
-2.47423e-28
1.56122e-29
-2.66134e-28
2.17461e-29
-2.95104e-28
2.8723e-29
-3.35454e-28
3.68121e-29
-3.88749e-28
4.63239e-29
-4.57053e-28
5.76218e-29
-5.43005e-28
7.1136e-29
-6.49919e-28
8.73799e-29
-7.81907e-28
1.06971e-28
-9.44033e-28
1.30658e-28
-1.14251e-27
1.5935e-28
-1.38494e-27
1.94162e-28
-1.6806e-27
2.36455e-28
-2.04085e-27
2.879e-28
-2.47956e-27
3.5054e-28
-3.01371e-27
4.26866e-28
-3.66402e-27
5.19905e-28
-4.45583e-27
6.3332e-28
-5.42008e-27
7.71533e-28
-6.5944e-27
9.39881e-28
-8.02454e-27
1.14485e-27
-9.76597e-27
1.39439e-27
-1.18858e-26
1.69847e-27
-1.44655e-26
2.0698e-27
-1.76035e-26
2.52508e-27
-2.14204e-26
3.08666e-27
-2.60642e-26
3.78513e-27
-3.17196e-26
4.66297e-27
-3.86214e-26
5.77982e-27
-4.70784e-26
7.21984e-27
-5.75211e-26
9.10208e-27
-7.06138e-26
1.16025e-26
-8.75604e-26
1.50471e-26
-1.11047e-25
2.04118e-26
-1.48459e-25
3.24242e-26
-2.24594e-25
8.81776e-26
-4.47039e-25
-1.41123e-24
4.57988e-30
-2.4282e-28
9.3355e-30
-2.52182e-28
1.44534e-29
-2.71253e-28
2.0132e-29
-3.00779e-28
2.65912e-29
-3.41905e-28
3.40799e-29
-3.96226e-28
4.28858e-29
-4.65844e-28
5.33452e-29
-5.53449e-28
6.58565e-29
-6.6242e-28
8.08947e-29
-7.96948e-28
9.90319e-29
-9.62194e-28
1.20961e-28
-1.16449e-27
1.47524e-28
-1.41158e-27
1.79751e-28
-1.71294e-27
2.18906e-28
-2.08012e-27
2.66534e-28
-2.52728e-27
3.24528e-28
-3.07171e-27
3.95193e-28
-3.73456e-27
4.81335e-28