/*--------------------------------*- C++ -*----------------------------------*\
| =========                 |                                                 |
| \\      /  F ield         | OpenFOAM: The Open Source CFD Toolbox           |
|  \\    /   O peration     | Version:  4.1                                   |
|   \\  /    A nd           | Web:      www.OpenFOAM.org                      |
|    \\/     M anipulation  |                                                 |
\*---------------------------------------------------------------------------*/
FoamFile
{
    version     2.0;
    format      ascii;
    class       volVectorField;
    location    "10";
    object      U;
}
// * * * * * * * * * * * * * * * * * * * * * * * * * * * * * * * * * * * * * //

dimensions      [0 1 -1 0 0 0 0];

internalField   nonuniform List<vector> 
1705
(
(-2.69793e-60 -6.6411e-28 -1.10106e-29)
(-1.9173e-59 -3.40008e-28 2.3739e-29)
(1.89546e-59 -6.78628e-28 3.41217e-29)
(9.66276e-57 -9.34294e-28 5.94285e-30)
(2.59575e-54 -6.50275e-28 -2.29453e-29)
(4.54145e-52 -3.58147e-28 7.35264e-29)
(2.16372e-50 -7.38319e-28 2.3144e-29)
(4.49135e-48 -9.62025e-28 -1.43081e-29)
(5.81336e-46 -6.48246e-28 -3.55797e-29)
(1.44176e-43 -3.95215e-28 1.27688e-28)
(5.7727e-46 -8.17738e-28 1.05148e-29)
(3.61277e-48 -6.92611e-28 -1.51057e-29)
(7.53936e-50 -4.51773e-28 1.9316e-28)
(1.64386e-51 -9.03946e-28 4.28918e-29)
(2.78051e-49 -1.08452e-27 -2.33988e-30)
(4.23e-47 -7.38713e-28 -3.10094e-29)
(2.47803e-46 -5.38407e-28 2.70091e-28)
(2.09553e-43 -1.05094e-27 3.0162e-29)
(2.21362e-45 -8.37445e-28 -7.7677e-30)
(4.11462e-47 -6.49725e-28 3.76285e-28)
(1.50104e-47 -1.21472e-27 7.68999e-29)
(2.93231e-45 -1.33946e-27 1.4112e-29)
(3.20867e-43 -9.48351e-28 -2.86584e-29)
(3.07339e-46 -8.02615e-28 5.03105e-28)
(1.46419e-47 -1.46269e-27 6.37604e-29)
(-6.5851e-45 -1.5391e-27 -1.65247e-29)
(-5.82704e-43 -1.09826e-27 -5.65395e-29)
(2.20625e-44 -1.00076e-27 6.6524e-28)
(-2.8809e-43 -1.7799e-27 4.23622e-29)
(-3.43505e-45 -1.33059e-27 -2.46171e-29)
(-7.08807e-46 -1.24578e-27 9.07526e-28)
(-6.6589e-43 -2.15864e-27 1.25208e-28)
(-1.25877e-44 -2.16515e-27 4.14672e-30)
(-6.92442e-43 -1.59988e-27 -6.33482e-29)
(1.53265e-43 -1.579e-27 1.19832e-27)
(7.83466e-42 -2.70546e-27 1.02089e-28)
(4.50456e-39 -1.99136e-27 -1.20133e-29)
(1.50383e-36 -1.99428e-27 1.63873e-27)
(7.70951e-35 -3.37055e-27 2.42834e-28)
(3.42454e-32 -3.3152e-27 1.87508e-28)
(3.30216e-31 -3.58732e-27 1.17371e-26)
(3.00623e-31 -4.72889e-27 1.19215e-26)
(-2.01255e-31 -3.58838e-27 1.19591e-26)
(-3.22299e-29 3.66428e-26 1.57694e-26)
(6.32029e-30 -1.20815e-27 7.97457e-27)
(-3.21483e-29 -4.02408e-26 1.50987e-26)
(-2.42241e-31 -6.72322e-28 1.21008e-26)
(1.49797e-31 4.69099e-28 1.20193e-26)
(-1.47969e-30 -6.48797e-28 1.23846e-26)
(-1.42854e-30 -1.01557e-27 1.23976e-26)
(-1.46827e-30 -2.17951e-27 1.23173e-26)
(-2.87137e-30 -1.09137e-27 1.24056e-26)
(-8.97912e-29 3.90007e-26 1.60523e-26)
(1.69168e-29 6.1175e-28 8.27891e-27)
(-8.94131e-29 -3.82373e-26 1.55855e-26)
(-5.93322e-31 1.51865e-27 1.24697e-26)
(3.06237e-30 2.5679e-27 1.24104e-26)
(1.0172e-30 1.35897e-27 1.25122e-26)
(9.84952e-31 9.36935e-28 1.25457e-26)
(1.05435e-30 -2.74738e-28 1.25235e-26)
(5.91746e-30 7.52668e-28 1.26559e-26)
(3.10174e-28 4.02763e-26 1.60823e-26)
(-5.97374e-29 1.85467e-27 8.19269e-27)
(3.06541e-28 -3.63962e-26 1.58515e-26)
(2.45662e-30 3.00289e-27 1.18421e-26)
(1.04809e-30 3.9057e-27 1.18044e-26)
(1.05806e-30 2.60499e-27 1.19305e-26)
(1.08285e-30 2.09185e-27 1.19993e-26)
(1.08831e-30 8.15521e-28 1.20142e-26)
(-2.27835e-31 1.68198e-27 1.21595e-26)
(-8.23925e-29 3.89905e-26 1.51897e-26)
(1.77765e-29 8.20565e-27 7.09065e-27)
(-9.9773e-29 -2.82505e-26 1.22351e-26)
(-2.46175e-30 2.60615e-27 9.64183e-27)
(-9.23079e-31 2.96657e-27 9.64209e-27)
(-9.12041e-31 1.41418e-27 9.75056e-27)
(-9.23172e-31 5.46981e-28 9.78513e-27)
(-9.46933e-31 -6.66546e-28 9.76422e-27)
(-1.84035e-30 -9.23257e-28 9.76033e-27)
(-5.77513e-29 1.56882e-26 1.08465e-26)
(3.72562e-30 1.38148e-26 8.1663e-28)
(3.47352e-34 -4.65191e-28 -2.56651e-28)
(1.89613e-35 -5.2509e-28 -3.32445e-30)
(5.75553e-39 -3.75076e-28 -2.24478e-28)
(1.15485e-40 -4.15197e-28 -2.13603e-29)
(6.1036e-44 -4.06491e-28 -2.00524e-28)
(3.25956e-47 -2.73733e-28 -1.48342e-28)
(5.88197e-46 -2.88307e-28 -7.33018e-30)
(4.95233e-43 -3.05345e-28 -1.35114e-28)
(-4.69563e-43 -2.00881e-28 -1.02584e-28)
(-6.01151e-46 -2.24435e-28 -2.82915e-31)
(-1.10532e-47 -1.65262e-28 -9.65346e-29)
(2.96192e-46 -1.96295e-28 -9.41716e-30)
(3.19357e-43 -2.16163e-28 -9.12644e-29)
(-4.44731e-43 -1.26527e-28 -7.05013e-29)
(-5.85457e-46 -1.57998e-28 -4.24828e-30)
(-1.20503e-46 -1.18885e-28 -6.76161e-29)
(-2.48923e-43 -1.44752e-28 -1.05919e-29)
(3.93163e-43 -1.60555e-28 -6.56984e-29)
(-4.11185e-43 -7.81723e-29 -5.14207e-29)
(-5.43164e-46 -1.18081e-28 -6.12591e-30)
(-2.12272e-47 -1.3659e-28 -4.95751e-29)
(-2.01053e-47 -6.09598e-29 -4.02441e-29)
(-5.1976e-46 -9.64363e-29 -2.23244e-30)
(-3.89817e-43 -7.51006e-29 -3.89531e-29)
(-5.20183e-46 -9.15417e-29 -6.07674e-30)
(-2.02212e-47 -9.76397e-29 -3.7575e-29)
(-2.0055e-47 -3.7249e-29 -3.07585e-29)
(-5.18219e-46 -6.41736e-29 -2.67788e-30)
(-3.82259e-43 -5.10514e-29 -3.02165e-29)
(-1.01629e-45 -5.96849e-29 -4.90071e-30)
(-3.50876e-43 -6.05848e-29 -2.94705e-29)
(-1.76615e-46 -2.03054e-29 -2.48707e-29)
(-5.31027e-46 -3.66156e-29 -2.17136e-30)
(-3.85735e-43 -3.95409e-29 -2.4486e-29)
(-1.64833e-46 -1.30627e-29 -2.21179e-29)
(-9.35596e-48 -9.91946e-30 -2.64254e-31)
(-1.86147e-47 -1.01174e-29 -2.24883e-29)
(-4.71328e-46 -4.32607e-30 1.16798e-31)
(-3.43488e-43 -1.80302e-31 -2.25417e-29)
(-8.28009e-274 3.49584e-33 -1.74792e-32)
(-1.54348e-267 3.63161e-33 -5.31059e-32)
(-2.8156e-261 3.90768e-33 -9.07832e-32)
(-5.02284e-255 4.33452e-33 -1.31982e-31)
(-8.7565e-249 4.92841e-33 -1.78297e-31)
(-1.4907e-242 5.71186e-33 -2.31517e-31)
(-2.47618e-236 6.71454e-33 -2.93689e-31)
(-4.00997e-230 7.97447e-33 -3.67195e-31)
(-6.32529e-224 9.53963e-33 -4.54839e-31)
(-9.70927e-218 1.147e-32 -5.59956e-31)
(-1.44883e-211 1.38403e-32 -6.86544e-31)
(-2.09945e-205 1.67429e-32 -8.39428e-31)
(-2.95083e-199 2.02921e-32 -1.02446e-30)
(-4.01784e-193 2.46281e-32 -1.24879e-30)
(-5.29262e-187 2.99225e-32 -1.52113e-30)
(-6.73519e-181 3.63838e-32 -1.85214e-30)
(-8.26705e-175 4.42635e-32 -2.25486e-30)
(-9.77095e-169 5.38632e-32 -2.74516e-30)
(-1.10996e-162 6.55428e-32 -3.34229e-30)
(-1.20943e-156 7.97302e-32 -4.06948e-30)
(-1.26124e-150 9.69344e-32 -4.95462e-30)
(-1.25574e-144 1.17762e-31 -6.03101e-30)
(-1.19045e-138 1.42939e-31 -7.33831e-30)
(-1.07134e-132 1.73336e-31 -8.92371e-30)
(-9.12181e-127 2.09998e-31 -1.08434e-29)
(-7.32024e-121 2.54152e-31 -1.31641e-29)
(-5.513e-115 3.0719e-31 -1.59656e-29)
(-3.87726e-109 3.70542e-31 -1.93415e-29)
(-2.53199e-103 4.45391e-31 -2.33998e-29)
(-1.52512e-97 5.32026e-31 -2.82576e-29)
(-8.40676e-92 6.28532e-31 -3.40272e-29)
(-4.20081e-86 7.2825e-31 -4.07817e-29)
(-1.88107e-80 8.15119e-31 -4.84845e-29)
(-7.44038e-75 8.558e-31 -5.6854e-29)
(-2.55224e-69 7.88291e-31 -6.51303e-29)
(-7.41033e-64 5.11423e-31 -7.17324e-29)
(-1.76116e-58 -1.04917e-31 -7.39148e-29)
(-3.26155e-53 -1.14484e-30 -6.78517e-29)
(-4.34702e-48 -2.51396e-30 -5.08906e-29)
(-4.0489e-277 1.04859e-32 -1.74621e-32)
(-7.51392e-271 1.0892e-32 -5.30548e-32)
(-1.36451e-264 1.17182e-32 -9.06964e-32)
(-2.42311e-258 1.29962e-32 -1.31855e-31)
(-4.20482e-252 1.47751e-32 -1.78125e-31)
(-7.12482e-246 1.71231e-32 -2.31293e-31)
(-1.17789e-239 2.01298e-32 -2.93406e-31)
(-1.89835e-233 2.39102e-32 -3.66841e-31)
(-2.97984e-227 2.86091e-32 -4.54401e-31)
(-4.55139e-221 3.4407e-32 -5.59417e-31)
(-6.75746e-215 4.15276e-32 -6.85884e-31)
(-9.74181e-209 5.02466e-32 -8.38619e-31)
(-1.36208e-202 6.09032e-32 -1.02347e-30)
(-1.84473e-196 7.39127e-32 -1.24758e-30)
(-2.41678e-190 8.97825e-32 -1.51965e-30)
(-3.05835e-184 1.0913e-31 -1.85033e-30)
(-3.73247e-178 1.32704e-31 -2.25265e-30)
(-4.3855e-172 1.61409e-31 -2.74247e-30)
(-4.95159e-166 1.96332e-31 -3.33902e-30)
(-5.3615e-160 2.38779e-31 -4.06552e-30)
(-5.5548e-154 2.90316e-31 -4.94983e-30)
(-5.49307e-148 3.52814e-31 -6.02523e-30)
(-5.1705e-142 4.28514e-31 -7.33137e-30)
(-4.61839e-136 5.20084e-31 -8.91538e-30)
(-3.90117e-130 6.30673e-31 -1.08334e-29)
(-3.10425e-124 7.63922e-31 -1.31522e-29)
(-2.31661e-118 9.23855e-31 -1.59514e-29)
(-1.61313e-112 1.11452e-30 -1.93249e-29)
(-1.04193e-106 1.33915e-30 -2.33808e-29)
(-6.19924e-101 1.59825e-30 -2.82371e-29)
(-3.36945e-95 1.8859e-30 -3.40072e-29)
(-1.65621e-89 2.18224e-30 -4.07675e-29)
(-7.27053e-84 2.43976e-30 -4.84864e-29)
(-2.80516e-78 2.55961e-30 -5.68913e-29)
(-9.31284e-73 2.35705e-30 -6.52356e-29)
(-2.58276e-67 1.52893e-30 -7.19511e-29)
(-5.72206e-62 -3.17961e-31 -7.42872e-29)
(-9.37532e-57 -3.44246e-30 -6.83712e-29)
(-9.5399e-52 -7.38461e-30 -5.10864e-29)
(4.20949e-275 1.74634e-32 -1.7408e-32)
(7.80252e-269 1.81383e-32 -5.28907e-32)
(1.4152e-262 1.9512e-32 -9.04161e-32)
(2.51007e-256 2.16375e-32 -1.31448e-31)
(4.35044e-250 2.45972e-32 -1.77575e-31)
(7.36266e-244 2.85049e-32 -2.3058e-31)
(1.21575e-237 3.35112e-32 -2.92501e-31)
(1.95705e-231 3.98087e-32 -3.6571e-31)
(3.06842e-225 4.76397e-32 -4.53001e-31)
(4.68137e-219 5.73054e-32 -5.57694e-31)
(6.94282e-213 6.91778e-32 -6.8377e-31)
(9.9985e-207 8.37142e-32 -8.36035e-31)
(1.39658e-200 1.01475e-31 -1.02032e-30)
(1.8897e-194 1.23145e-31 -1.24373e-30)
(2.47361e-188 1.4956e-31 -1.51495e-30)
(3.12792e-182 1.8174e-31 -1.84462e-30)
(3.81498e-176 2.20924e-31 -2.24569e-30)
(4.48026e-170 2.68616e-31 -2.734e-30)
(5.05697e-164 3.26641e-31 -3.32872e-30)
(5.47495e-158 3.97201e-31 -4.053e-30)
(5.67302e-152 4.8295e-31 -4.93463e-30)
(5.61224e-146 5.87078e-31 -6.0068e-30)
(5.28662e-140 7.1339e-31 -7.30903e-30)
(4.72758e-134 8.66399e-31 -8.88836e-30)
(4.00003e-128 1.05138e-30 -1.08008e-29)
(3.19015e-122 1.27433e-30 -1.3113e-29)
(2.38792e-116 1.54179e-30 -1.59046e-29)
(1.6694e-110 1.86023e-30 -1.92695e-29)
(1.08386e-104 2.23464e-30 -2.33164e-29)
(6.49208e-99 2.6656e-30 -2.81643e-29)
(3.55955e-93 3.14316e-30 -3.39297e-29)
(1.76983e-87 3.63481e-30 -4.0694e-29)
(7.88894e-82 4.06287e-30 -4.84364e-29)
(3.10781e-76 4.26507e-30 -5.69025e-29)
(1.06246e-70 3.93598e-30 -6.53729e-29)
(3.07702e-65 2.57013e-30 -7.23075e-29)
(7.3041e-60 -4.9774e-31 -7.49502e-29)
(1.35514e-54 -5.72611e-30 -6.93027e-29)
(1.82789e-49 -1.22569e-29 -5.15409e-29)
(-8.1085e-274 2.44138e-32 -1.73272e-32)
(-1.51202e-267 2.53565e-32 -5.26451e-32)
(-2.75921e-261 2.72756e-32 -8.99966e-32)
(-4.92408e-255 3.02458e-32 -1.30838e-31)
(-8.58768e-249 3.43819e-32 -1.76752e-31)
(-1.46255e-242 3.98437e-32 -2.29511e-31)
(-2.43045e-236 4.68422e-32 -2.91145e-31)
(-3.93765e-230 5.5647e-32 -3.64015e-31)
(-6.21409e-224 6.65975e-32 -4.50902e-31)
(-9.54321e-218 8.01151e-32 -5.5511e-31)
(-1.42478e-211 9.67194e-32 -6.80602e-31)
(-2.06572e-205 1.17049e-31 -8.3216e-31)
(-2.90508e-199 1.41884e-31 -1.01559e-30)
(-3.95796e-193 1.72179e-31 -1.23796e-30)
(-5.21712e-187 2.09099e-31 -1.50793e-30)
(-6.64372e-181 2.54064e-31 -1.83606e-30)
(-8.16083e-175 3.08804e-31 -2.23528e-30)
(-9.65311e-169 3.75423e-31 -2.72133e-30)
(-1.09751e-162 4.56477e-31 -3.3133e-30)
(-1.19699e-156 5.5506e-31 -4.03426e-30)
(-1.24953e-150 6.7491e-31 -4.91185e-30)
(-1.24544e-144 8.20518e-31 -5.97915e-30)
(-1.18211e-138 9.97247e-31 -7.27551e-30)
(-1.06522e-132 1.21144e-30 -8.84778e-30)
(-9.08282e-127 1.47048e-30 -1.07518e-29)
(-7.30056e-121 1.78276e-30 -1.30541e-29)
(-5.50788e-115 2.15735e-30 -1.58342e-29)
(-3.88126e-109 2.60321e-30 -1.91864e-29)
(-2.54015e-103 3.12731e-30 -2.32198e-29)
(-1.5338e-97 3.73054e-30 -2.80554e-29)
(-8.47803e-92 4.39949e-30 -3.38134e-29)
(-4.24972e-86 5.08995e-30 -4.05835e-29)
(-1.90975e-80 5.69566e-30 -4.83603e-29)
(-7.58454e-75 5.99324e-30 -5.69167e-29)
(-2.61375e-69 5.55878e-30 -6.55746e-29)
(-7.62926e-64 3.68273e-30 -7.28378e-29)
(-1.82461e-58 -5.86869e-31 -7.59464e-29)
(-3.40843e-53 -7.95322e-30 -7.07231e-29)
(-4.6227e-48 -1.75078e-29 -5.28911e-29)
(1.68041e-275 3.13265e-32 -1.72196e-32)
(3.11294e-269 3.25355e-32 -5.23184e-32)
(5.64282e-263 3.49972e-32 -8.94383e-32)
(1.00024e-256 3.88075e-32 -1.30027e-31)
(1.73253e-250 4.4114e-32 -1.75656e-31)
(2.93027e-244 5.11218e-32 -2.28088e-31)
(4.83545e-238 6.01017e-32 -2.8934e-31)
(7.77866e-232 7.14004e-32 -3.61759e-31)
(1.21877e-225 8.54532e-32 -4.48107e-31)
(1.85814e-219 1.02801e-31 -5.51669e-31)
(2.75379e-213 1.2411e-31 -6.76384e-31)
(3.96288e-207 1.502e-31 -8.27002e-31)
(5.53115e-201 1.82069e-31 -1.00929e-30)
(7.47833e-195 2.20942e-31 -1.23029e-30)
(9.78132e-189 2.6831e-31 -1.49858e-30)
(1.23586e-182 3.25993e-31 -1.82467e-30)
(1.50605e-176 3.9621e-31 -2.22142e-30)
(1.76715e-170 4.81662e-31 -2.70447e-30)
(1.99285e-164 5.85632e-31 -3.29279e-30)
(2.15559e-158 7.12103e-31 -4.00931e-30)
(2.23147e-152 8.65885e-31 -4.88154e-30)
(2.20544e-146 1.05276e-30 -5.94233e-30)
(2.07542e-140 1.27964e-30 -7.23085e-30)
(1.85408e-134 1.55469e-30 -8.79371e-30)
(1.56713e-128 1.8874e-30 -1.06865e-29)
(1.24853e-122 2.28854e-30 -1.29756e-29)
(9.33574e-117 2.76979e-30 -1.57405e-29)
(6.51978e-111 3.3427e-30 -1.90755e-29)
(4.22857e-105 4.01636e-30 -2.30909e-29)
(2.53027e-99 4.79239e-30 -2.79099e-29)
(1.386e-93 5.65461e-30 -3.36578e-29)
(6.88528e-88 6.5484e-30 -4.04348e-29)
(3.06679e-82 7.34113e-30 -4.82558e-29)
(1.20746e-76 7.75167e-30 -5.69299e-29)
(4.12668e-71 7.24097e-30 -6.5835e-29)
(1.19528e-65 4.89366e-30 -7.35366e-29)
(2.83952e-60 -5.48643e-31 -7.72774e-29)
(5.27691e-55 -1.00891e-29 -7.26869e-29)
(7.10957e-50 -2.27444e-29 -5.54329e-29)
(-6.16563e-274 3.81907e-32 -1.70855e-32)
(-1.15821e-267 3.96642e-32 -5.19111e-32)
(-2.12898e-261 4.26648e-32 -8.87421e-32)
(-3.82682e-255 4.73096e-32 -1.29015e-31)
(-6.72172e-249 5.37784e-32 -1.74289e-31)
(-1.15285e-242 6.23215e-32 -2.26313e-31)
(-1.92918e-236 7.32691e-32 -2.87089e-31)
(-3.14714e-230 8.70441e-32 -3.58945e-31)
(-5.0005e-224 1.04177e-31 -4.44622e-31)
(-7.73132e-218 1.25328e-31 -5.47378e-31)
(-1.16197e-211 1.51309e-31 -6.71122e-31)
(-1.6958e-205 1.83117e-31 -8.20568e-31)
(-2.40039e-199 2.21971e-31 -1.00144e-30)
(-3.2914e-193 2.69361e-31 -1.22071e-30)
(-4.36606e-187 3.27104e-31 -1.48692e-30)
(-5.59481e-181 3.97418e-31 -1.81048e-30)
(-6.91493e-175 4.83007e-31 -2.20414e-30)
(-8.2293e-169 5.87166e-31 -2.68344e-30)
(-9.41265e-163 7.13902e-31 -3.26722e-30)
(-1.03267e-156 8.68077e-31 -3.97821e-30)
(-1.0843e-150 1.05557e-30 -4.84372e-30)
(-1.08698e-144 1.28344e-30 -5.89639e-30)
(-1.03756e-138 1.56014e-30 -7.17512e-30)
(-9.4019e-133 1.89564e-30 -8.72623e-30)
(-8.0608e-127 2.30154e-30 -1.0605e-29)
(-6.51418e-121 2.79102e-30 -1.28776e-29)
(-4.9408e-115 3.37838e-30 -1.56234e-29)
(-3.49995e-109 4.07788e-30 -1.8937e-29)
(-2.30245e-103 4.90096e-30 -2.29298e-29)
(-1.39736e-97 5.8504e-30 -2.77277e-29)
(-7.76274e-92 6.90813e-30 -3.34622e-29)
(-3.91048e-86 8.0107e-30 -4.02462e-29)
(-1.76591e-80 9.002e-30 -4.81197e-29)
(-7.0471e-75 9.54753e-30 -5.69367e-29)
(-2.44006e-69 8.99788e-30 -6.61462e-29)
(-7.1554e-64 6.23045e-30 -7.43958e-29)
(-1.71903e-58 -3.43502e-31 -7.8943e-29)
(-3.22406e-53 -1.20972e-29 -7.51623e-29)
(-4.36596e-48 -2.8276e-29 -5.7467e-29)
(-6.55619e-274 4.4996e-32 -1.69251e-32)
(-1.23137e-267 4.67317e-32 -5.14238e-32)
(-2.26308e-261 5.02666e-32 -8.79092e-32)
(-4.06722e-255 5.57388e-32 -1.27804e-31)
(-7.14286e-249 6.336e-32 -1.72653e-31)
(-1.2249e-242 7.34253e-32 -2.2419e-31)
(-2.04944e-236 8.63239e-32 -2.84396e-31)
(-3.34284e-230 1.02554e-31 -3.55577e-31)
(-5.31069e-224 1.22741e-31 -4.4045e-31)
(-8.20978e-218 1.47662e-31 -5.42243e-31)
(-1.23372e-211 1.78275e-31 -6.64826e-31)
(-1.80026e-205 2.15752e-31 -8.1287e-31)
(-2.54791e-199 2.6153e-31 -9.92044e-31)
(-3.49323e-193 3.17363e-31 -1.20926e-30)
(-4.63319e-187 3.85392e-31 -1.47297e-30)
(-5.93633e-181 4.6823e-31 -1.79349e-30)
(-7.33608e-175 5.69062e-31 -2.18347e-30)
(-8.72936e-169 6.91772e-31 -2.65829e-30)
(-9.98329e-163 8.41085e-31 -3.23661e-30)
(-1.09512e-156 1.02273e-30 -3.94098e-30)
(-1.14972e-150 1.24366e-30 -4.79846e-30)
(-1.15241e-144 1.51219e-30 -5.84141e-30)
(-1.09986e-138 1.8383e-30 -7.10841e-30)
(-9.96504e-133 2.23377e-30 -8.64543e-30)
(-8.54244e-127 2.71231e-30 -1.05074e-29)
(-6.9025e-121 3.28951e-30 -1.27602e-29)
(-5.2347e-115 3.98235e-30 -1.54831e-29)
(-3.70777e-109 4.80789e-30 -1.8771e-29)
(-2.43902e-103 5.7802e-30 -2.27364e-29)
(-1.48025e-97 6.90374e-30 -2.75085e-29)
(-8.22406e-92 8.1595e-30 -3.32257e-29)
(-4.14396e-86 9.47717e-30 -4.0016e-29)
(-1.87229e-80 1.06806e-29 -4.79484e-29)
(-7.47814e-75 1.13875e-29 -5.69307e-29)
(-2.5929e-69 1.08444e-29 -6.64984e-29)
(-7.61891e-64 7.72128e-30 -7.54049e-29)
(-1.83482e-58 7.15999e-32 -8.09429e-29)
(-3.44577e-53 -1.39254e-29 -7.82733e-29)
(-4.65276e-48 -3.38128e-29 -6.1784e-29)
(-3.36266e-277 5.17318e-32 -1.67386e-32)
(-6.28657e-271 5.3727e-32 -5.08572e-32)
(-1.15e-264 5.77909e-32 -8.69407e-32)
(-2.05706e-258 6.4082e-32 -1.26396e-31)
(-3.59543e-252 7.2844e-32 -1.70752e-31)
(-6.13595e-246 8.4416e-32 -2.2172e-31)
(-1.02164e-239 9.92457e-32 -2.81263e-31)
(-1.65816e-233 1.17906e-31 -3.51661e-31)
(-2.62111e-227 1.41116e-31 -4.356e-31)
(-4.03139e-221 1.69769e-31 -5.36272e-31)
(-6.02693e-215 2.04965e-31 -6.57504e-31)
(-8.74854e-209 2.48053e-31 -8.03917e-31)
(-1.23159e-202 3.00684e-31 -9.81118e-31)
(-1.67938e-196 3.64875e-31 -1.19594e-30)
(-2.2151e-190 4.43085e-31 -1.45674e-30)
(-2.8221e-184 5.38319e-31 -1.77375e-30)
(-3.46738e-178 6.54241e-31 -2.15944e-30)
(-4.10147e-172 7.95317e-31 -2.62904e-30)
(-4.66206e-166 9.66982e-31 -3.20102e-30)
(-5.082e-160 1.17584e-30 -3.89769e-30)
(-5.30076e-154 1.42986e-30 -4.74583e-30)
(-5.27738e-148 1.73866e-30 -5.77747e-30)
(-5.00137e-142 2.11371e-30 -7.03081e-30)
(-4.49808e-136 2.56859e-30 -8.55143e-30)
(-3.82606e-130 3.11912e-30 -1.03939e-29)
(-3.06609e-124 3.7833e-30 -1.26236e-29)
(-2.30475e-118 4.58088e-30 -1.53197e-29)
(-1.61687e-112 5.53183e-30 -1.85775e-29)
(-1.05246e-106 6.65313e-30 -2.25107e-29)
(-6.31281e-101 7.95144e-30 -2.72518e-29)
(-3.46082e-95 9.40801e-30 -3.29475e-29)
(-1.71698e-89 1.09479e-29 -3.9742e-29)
(-7.6145e-84 1.23789e-29 -4.77376e-29)
(-2.97178e-78 1.32777e-29 -5.69039e-29)
(-9.99827e-73 1.2795e-29 -6.68795e-29)
(-2.81787e-67 9.39483e-30 -7.65503e-29)
(-6.3736e-62 7.4337e-31 -8.32723e-29)
(-1.07587e-56 -1.55152e-29 -8.19392e-29)
(-1.15858e-51 -3.89257e-29 -6.63458e-29)
(-1.54931e-277 5.83878e-32 -1.65263e-32)
(-3.01142e-271 6.06395e-32 -5.02122e-32)
(-5.71568e-265 6.52261e-32 -8.58382e-32)
(-1.0588e-258 7.23265e-32 -1.24793e-31)
(-1.91325e-252 8.22157e-32 -1.68587e-31)
(-3.37034e-246 9.52767e-32 -2.18909e-31)
(-5.78398e-240 1.12015e-31 -2.77698e-31)
(-9.66302e-234 1.33076e-31 -3.47203e-31)
(-1.57031e-227 1.59273e-31 -4.30078e-31)
(-2.4801e-221 1.91613e-31 -5.29473e-31)
(-3.80325e-215 2.31338e-31 -6.49169e-31)
(-5.65722e-209 2.79971e-31 -7.93726e-31)
(-8.15334e-203 3.39375e-31 -9.6868e-31)
(-1.1372e-196 4.11824e-31 -1.18078e-30)
(-1.533e-190 5.00095e-31 -1.43828e-30)
(-1.99455e-184 6.0758e-31 -1.75126e-30)
(-2.50083e-178 7.38415e-31 -2.13207e-30)
(-3.01672e-172 8.97641e-31 -2.59574e-30)
(-3.49467e-166 1.0914e-30 -3.16051e-30)
(-3.88001e-160 1.32714e-30 -3.8484e-30)
(-4.11962e-154 1.61389e-30 -4.6859e-30)
(-4.17277e-148 1.9625e-30 -5.70464e-30)
(-4.02126e-142 2.38594e-30 -6.94242e-30)
(-3.67585e-136 2.89959e-30 -8.44435e-30)
(-3.17645e-130 3.52136e-30 -1.02645e-29)
(-2.58493e-124 4.27171e-30 -1.24679e-29)
(-1.97234e-118 5.17316e-30 -1.51334e-29)
(-1.40397e-112 6.24878e-30 -1.83566e-29)
(-9.26927e-107 7.51871e-30 -2.22525e-29)
(-5.63718e-101 8.99247e-30 -2.69575e-29)
(-3.13222e-95 1.06528e-29 -3.26265e-29)
(-1.57435e-89 1.24225e-29 -3.94218e-29)
(-7.07068e-84 1.40982e-29 -4.74824e-29)
(-2.79327e-78 1.52232e-29 -5.68475e-29)
(-9.50737e-73 1.4863e-29 -6.7275e-29)
(-2.70908e-67 1.12801e-29 -7.78152e-29)
(-6.19129e-62 1.72235e-30 -8.59249e-29)
(-1.05586e-56 -1.6816e-29 -8.62072e-29)
(-1.15193e-51 -4.42702e-29 -7.03841e-29)
(-3.12016e-274 6.49537e-32 -1.62885e-32)
(-6.08232e-268 6.74585e-32 -4.94898e-32)
(-1.15801e-261 7.25608e-32 -8.46033e-32)
(-2.15222e-255 8.04595e-32 -1.22998e-31)
(-3.90252e-249 9.14607e-32 -1.66162e-31)
(-6.89948e-243 1.05991e-31 -2.15761e-31)
(-1.18852e-236 1.24611e-31 -2.73704e-31)
(-1.99338e-230 1.48041e-31 -3.4221e-31)
(-3.25253e-224 1.77185e-31 -4.23892e-31)
(-5.15851e-218 2.13162e-31 -5.21859e-31)
(-7.94492e-212 2.57356e-31 -6.39833e-31)
(-1.18707e-205 3.11458e-31 -7.8231e-31)
(-1.71873e-199 3.77542e-31 -9.54748e-31)
(-2.40862e-193 4.58138e-31 -1.1638e-30)
(-3.26286e-187 5.56335e-31 -1.41759e-30)
(-4.26674e-181 6.75906e-31 -1.72608e-30)
(-5.37774e-175 8.21452e-31 -2.10142e-30)
(-6.52219e-169 9.98587e-31 -2.55844e-30)
(-7.59788e-163 1.21414e-30 -3.11512e-30)
(-8.48475e-157 1.47642e-30 -3.79319e-30)
(-9.06333e-151 1.79546e-30 -4.61876e-30)
(-9.23839e-145 2.18336e-30 -5.62305e-30)
(-8.96206e-139 2.65459e-30 -6.84339e-30)
(-8.24961e-133 3.22627e-30 -8.32435e-30)
(-7.18171e-127 3.91844e-30 -1.01194e-29)
(-5.89062e-121 4.75402e-30 -1.22933e-29)
(-4.53295e-115 5.75837e-30 -1.49243e-29)
(-3.25661e-109 6.95777e-30 -1.81084e-29)
(-2.17202e-103 8.37586e-30 -2.19619e-29)
(-1.336e-97 1.00257e-29 -2.6625e-29)
(-7.51978e-92 1.18927e-29 -3.22615e-29)
(-3.83693e-86 1.39004e-29 -3.90529e-29)
(-1.75455e-80 1.58392e-29 -4.71775e-29)
(-7.0883e-75 1.72282e-29 -5.6751e-29)
(-2.48408e-69 1.70608e-29 -6.76681e-29)
(-7.37119e-64 1.34063e-29 -7.91785e-29)
(-1.79157e-58 3.06373e-30 -8.88915e-29)
(-3.39942e-53 -1.77572e-29 -9.11376e-29)
(-4.67339e-48 -4.94849e-29 -7.72746e-29)
(-1.5479e-277 7.14194e-32 -1.60256e-32)
(-3.00922e-271 7.41735e-32 -4.86911e-32)
(-5.71249e-265 7.97835e-32 -8.3238e-32)
(-1.05839e-258 8.84684e-32 -1.21013e-31)
(-1.9128e-252 1.00565e-31 -1.6348e-31)
(-3.37005e-246 1.16541e-31 -2.12279e-31)
(-5.78432e-240 1.37015e-31 -2.69287e-31)
(-9.66495e-234 1.62778e-31 -3.36689e-31)
(-1.57084e-227 1.94823e-31 -4.17054e-31)
(-2.48127e-221 2.34383e-31 -5.13439e-31)
(-3.80556e-215 2.82976e-31 -6.2951e-31)
(-5.6614e-209 3.42465e-31 -7.69688e-31)
(-8.16045e-203 4.15127e-31 -9.39344e-31)
(-1.13834e-196 5.03746e-31 -1.14502e-30)
(-1.53475e-190 6.11718e-31 -1.39472e-30)
(-1.99711e-184 7.4319e-31 -1.69824e-30)
(-2.50439e-178 9.03226e-31 -2.06754e-30)
(-3.02146e-172 1.098e-30 -2.5172e-30)
(-3.50071e-166 1.33502e-30 -3.06494e-30)
(-3.88734e-160 1.62344e-30 -3.73214e-30)
(-4.12813e-154 1.97429e-30 -4.54451e-30)
(-4.18217e-148 2.40091e-30 -5.53282e-30)
(-4.03114e-142 2.91923e-30 -6.73384e-30)
(-3.68571e-136 3.54814e-30 -8.19158e-30)
(-3.18575e-130 4.30977e-30 -9.95893e-30)
(-2.59322e-124 5.22952e-30 -1.20999e-29)
(-1.97928e-118 6.33565e-30 -1.46926e-29)
(-1.40942e-112 7.65782e-30 -1.78331e-29)
(-9.30912e-107 9.22346e-30 -2.16389e-29)
(-5.66421e-101 1.10498e-29 -2.62541e-29)
(-3.14911e-95 1.31266e-29 -3.18515e-29)
(-1.584e-89 1.53807e-29 -3.86325e-29)
(-7.12058e-84 1.76019e-29 -4.68169e-29)
(-2.81639e-78 1.92955e-29 -5.66031e-29)
(-9.60186e-73 1.93988e-29 -6.80394e-29)
(-2.74257e-67 1.58019e-29 -8.06146e-29)
(-6.29165e-62 4.82771e-30 -9.21576e-29)
(-1.08047e-56 -1.82592e-29 -9.6717e-29)
(-1.19898e-51 -5.4986e-29 -8.45494e-29)
(-5.06092e-277 7.7775e-32 -1.5738e-32)
(-9.34551e-271 8.0774e-32 -4.78173e-32)
(-1.68872e-264 8.68832e-32 -8.17443e-32)
(-2.98403e-258 9.63409e-32 -1.18842e-31)
(-5.15264e-252 1.09514e-31 -1.60547e-31)
(-8.68786e-246 1.26912e-31 -2.08471e-31)
(-1.42925e-239 1.49208e-31 -2.64456e-31)
(-2.29217e-233 1.77264e-31 -3.30648e-31)
(-3.58049e-227 2.12161e-31 -4.09572e-31)
(-5.44227e-221 2.55242e-31 -5.04228e-31)
(-8.04118e-215 3.0816e-31 -6.18216e-31)
(-1.15369e-208 3.72944e-31 -7.5588e-31)
(-1.60539e-202 4.52073e-31 -9.22492e-31)
(-2.16399e-196 5.48577e-31 -1.12448e-30)
(-2.82182e-190 6.66158e-31 -1.3697e-30)
(-3.55443e-184 8.09331e-31 -1.66778e-30)
(-4.31814e-178 9.8361e-31 -2.03046e-30)
(-5.05091e-172 1.19572e-30 -2.47208e-30)
(-5.67783e-166 1.45386e-30 -3.01003e-30)
(-6.12144e-160 1.76797e-30 -3.66534e-30)
(-6.3156e-154 2.15011e-30 -4.46326e-30)
(-6.2201e-148 2.61481e-30 -5.43407e-30)
(-5.83203e-142 3.17946e-30 -6.61394e-30)
(-5.18994e-136 3.8647e-30 -8.04624e-30)
(-4.36865e-130 4.69475e-30 -9.78316e-30)
(-3.46501e-124 5.69751e-30 -1.18881e-29)
(-2.57831e-118 6.90418e-30 -1.44386e-29)
(-1.79084e-112 8.34792e-30 -1.75308e-29)
(-1.15436e-106 1.00603e-29 -2.12835e-29)
(-6.85825e-101 1.20635e-29 -2.58444e-29)
(-3.72508e-95 1.43529e-29 -3.13953e-29)
(-1.83153e-89 1.68617e-29 -3.81579e-29)
(-8.0524e-84 1.93852e-29 -4.63945e-29)
(-3.11668e-78 2.14266e-29 -5.63916e-29)
(-1.0403e-72 2.18859e-29 -6.83668e-29)
(-2.90983e-67 1.84947e-29 -8.20927e-29)
(-6.53316e-62 7.07998e-30 -9.57038e-29)
(-1.09394e-56 -1.82125e-29 -1.031e-28)
(-1.16122e-51 -6.02671e-29 -9.17303e-29)
(-9.76698e-274 8.40106e-32 -1.54261e-32)
(-1.81219e-267 8.725e-32 -4.68698e-32)
(-3.2904e-261 9.38489e-32 -8.01246e-32)
(-5.84259e-255 1.04065e-31 -1.16487e-31)
(-1.01384e-248 1.18294e-31 -1.57366e-31)
(-1.71795e-242 1.37087e-31 -2.0434e-31)
(-2.84047e-236 1.61171e-31 -2.59217e-31)
(-4.57872e-230 1.91477e-31 -3.24098e-31)
(-7.18927e-224 2.29172e-31 -4.01458e-31)
(-1.0985e-217 2.75708e-31 -4.94239e-31)
(-1.63174e-211 3.3287e-31 -6.05969e-31)
(-2.3538e-205 4.02848e-31 -7.40906e-31)
(-3.29348e-199 4.88322e-31 -9.04217e-31)
(-4.46443e-193 5.92564e-31 -1.1022e-30)
(-5.85499e-187 7.19572e-31 -1.34257e-30)
(-7.41839e-181 8.74225e-31 -1.63475e-30)
(-9.06652e-175 1.06248e-30 -1.99026e-30)
(-1.06706e-168 1.29161e-30 -2.42315e-30)
(-1.20713e-162 1.57046e-30 -2.95049e-30)
(-1.30998e-156 1.90979e-30 -3.59289e-30)
(-1.36072e-150 2.32265e-30 -4.37514e-30)
(-1.34962e-144 2.82474e-30 -5.32695e-30)
(-1.27478e-138 3.43489e-30 -6.48387e-30)
(-1.14324e-132 4.17548e-30 -7.88852e-30)
(-9.70243e-127 5.07281e-30 -9.59237e-30)
(-7.76299e-121 6.15727e-30 -1.1658e-29)
(-5.83094e-115 7.46309e-30 -1.41626e-29)
(-4.09165e-109 9.02705e-30 -1.72018e-29)
(-2.66731e-103 1.08852e-29 -2.08958e-29)
(-1.60482e-97 1.30653e-29 -2.53956e-29)
(-8.84308e-92 1.55699e-29 -3.08919e-29)
(-4.42174e-86 1.83415e-29 -3.76261e-29)
(-1.98384e-80 2.11875e-29 -4.59039e-29)
(-7.87522e-75 2.3621e-29 -5.6103e-29)
(-2.71713e-69 2.4528e-29 -6.86258e-29)
(-7.95879e-64 2.15109e-29 -8.35758e-29)
(-1.91636e-58 9.89143e-30 -9.94991e-29)
(-3.6191e-53 -1.74926e-29 -1.10186e-28)
(-4.97127e-48 -6.53998e-29 -1.01051e-28)
(-3.3457e-274 9.01167e-32 -1.50905e-32)
(-5.63314e-268 9.35915e-32 -4.585e-32)
(-9.1773e-262 1.0067e-31 -7.83814e-32)
(-1.44163e-255 1.11628e-31 -1.13953e-31)
(-2.17319e-249 1.26891e-31 -1.53943e-31)
(-3.12214e-243 1.4705e-31 -1.99895e-31)
(-4.22942e-237 1.72885e-31 -2.53578e-31)
(-5.30414e-231 2.05394e-31 -3.17048e-31)
(-5.93649e-225 2.4583e-31 -3.92725e-31)
(-5.39317e-219 2.95749e-31 -4.83489e-31)
(-2.51482e-213 3.57066e-31 -5.92788e-31)
(4.3481e-207 4.32131e-31 -7.24789e-31)
(1.73081e-200 5.23818e-31 -8.84548e-31)
(3.87615e-194 6.35637e-31 -1.07823e-30)
(7.10077e-188 7.71878e-31 -1.31337e-30)
(1.1566e-181 9.37773e-31 -1.5992e-30)
(1.7291e-175 1.13972e-30 -1.94699e-30)
(2.40813e-169 1.38551e-30 -2.37049e-30)
(3.1482e-163 1.68465e-30 -2.8864e-30)
(3.87844e-157 2.04869e-30 -3.5149e-30)
(4.51042e-151 2.49163e-30 -4.28027e-30)
(4.95316e-145 3.03036e-30 -5.21162e-30)
(5.13283e-139 3.68512e-30 -6.34379e-30)
(5.01181e-133 4.48e-30 -7.71866e-30)
(4.60094e-127 5.44337e-30 -9.3868e-30)
(3.9598e-121 6.60812e-30 -1.141e-29)
(3.18372e-115 8.01153e-30 -1.38647e-29)
(2.38106e-109 9.69418e-30 -1.68464e-29)
(1.64794e-103 1.16969e-29 -2.04759e-29)
(1.049e-97 1.40536e-29 -2.49075e-29)
(6.09603e-92 1.67756e-29 -3.03401e-29)
(3.20519e-86 1.98179e-29 -3.70343e-29)
(1.50796e-80 2.30059e-29 -4.53386e-29)
(6.26101e-75 2.58767e-29 -5.57235e-29)
(2.25376e-69 2.73284e-29 -6.87889e-29)
(6.87015e-64 2.48738e-29 -8.502e-29)
(1.71645e-58 1.33378e-29 -1.03504e-28)
(3.34726e-53 -1.59489e-29 -1.18159e-28)
(4.69397e-48 -6.95865e-29 -1.10734e-28)
(-3.72456e-277 9.60838e-32 -1.47316e-32)
(-6.44825e-271 9.97886e-32 -4.47595e-32)
(-1.08597e-264 1.07336e-31 -7.65173e-32)
(-1.77592e-258 1.1902e-31 -1.11243e-31)
(-2.81397e-252 1.35293e-31 -1.50282e-31)
(-4.30862e-246 1.56787e-31 -1.95142e-31)
(-6.35284e-240 1.84333e-31 -2.47548e-31)
(-8.9779e-234 2.18995e-31 -3.09509e-31)
(-1.20799e-227 2.62109e-31 -3.83387e-31)
(-1.53183e-221 3.15333e-31 -4.71992e-31)
(-1.79948e-215 3.80711e-31 -5.78693e-31)
(-1.89369e-209 4.60748e-31 -7.07555e-31)
(-1.64301e-203 5.58507e-31 -8.63516e-31)
(-8.25416e-198 6.77732e-31 -1.05259e-30)
(8.10921e-192 8.22994e-31 -1.28215e-30)
(3.50567e-185 9.99878e-31 -1.56118e-30)
(7.42362e-179 1.2152e-30 -1.90071e-30)
(1.258e-172 1.47728e-30 -2.31417e-30)
(1.87719e-166 1.79625e-30 -2.81785e-30)
(2.55408e-160 2.18445e-30 -3.43149e-30)
(3.21915e-154 2.65681e-30 -4.17881e-30)
(3.78816e-148 3.23137e-30 -5.08825e-30)
(4.17772e-142 3.92977e-30 -6.19394e-30)
(4.32398e-136 4.77779e-30 -7.53688e-30)
(4.1995e-130 5.80585e-30 -9.16674e-30)
(3.82217e-124 7.04934e-30 -1.11444e-29)
(3.25261e-118 8.54866e-30 -1.35454e-29)
(2.5798e-112 1.03483e-29 -1.64648e-29)
(1.89936e-106 1.24941e-29 -2.00239e-29)
(1.29151e-100 1.50269e-29 -2.43798e-29)
(8.0608e-95 1.7968e-29 -2.9739e-29)
(4.58325e-89 2.12878e-29 -3.638e-29)
(2.35225e-83 2.48366e-29 -4.46921e-29)
(1.07735e-77 2.81895e-29 -5.52385e-29)
(4.34072e-72 3.02864e-29 -6.88263e-29)
(1.51008e-66 2.86026e-29 -8.63739e-29)
(4.42184e-61 1.74989e-29 -1.07664e-28)
(1.04941e-55 -1.3429e-29 -1.26771e-28)
(1.89405e-50 -7.29161e-29 -1.22898e-28)
(-9.57783e-274 1.01903e-31 -1.43499e-32)
(-1.77739e-267 1.05832e-31 -4.36e-32)
(-3.22782e-261 1.13836e-31 -7.45352e-32)
(-5.73266e-255 1.26227e-31 -1.08362e-31)
(-9.94985e-249 1.43487e-31 -1.46389e-31)
(-1.68643e-242 1.66282e-31 -1.90087e-31)
(-2.78912e-236 1.95496e-31 -2.41137e-31)
(-4.49729e-230 2.32258e-31 -3.01493e-31)
(-7.06375e-224 2.77983e-31 -3.73457e-31)
(-1.07972e-217 3.34432e-31 -4.59768e-31)
(-1.60449e-211 4.0377e-31 -5.63705e-31)
(-2.31552e-205 4.88655e-31 -6.8923e-31)
(-3.24151e-199 5.92335e-31 -8.41152e-31)
(-4.39639e-193 7.18781e-31 -1.02533e-30)
(-5.76924e-187 8.72843e-31 -1.24894e-30)
(-7.31464e-181 1.06044e-30 -1.52076e-30)
(-8.94638e-175 1.28881e-30 -1.85151e-30)
(-1.05379e-168 1.56677e-30 -2.25428e-30)
(-1.19321e-162 1.90509e-30 -2.74496e-30)
(-1.2962e-156 2.31685e-30 -3.34279e-30)
(-1.34794e-150 2.81792e-30 -4.07089e-30)