# vtk DataFile Version 2.0
track0
ASCII
DATASET POLYDATA
POINTS 6430 float
-0.0205 0.001 1e-05
-0.0204727 0.00100011 1e-05
-0.0204454 0.00100021 1e-05
-0.0204181 0.00100032 1e-05
-0.0203908 0.00100042 1e-05
-0.0203635 0.00100053 1e-05
-0.0200299 0.00100181 1e-05
-0.0196963 0.00100312 1e-05
-0.0193627 0.00100443 1e-05
-0.0190291 0.00100573 1e-05
-0.0186954 0.00100701 1e-05
-0.018369 0.00100821 1e-05
-0.0180425 0.00100944 1e-05
-0.017716 0.00101066 1e-05
-0.0173896 0.00101188 1e-05
-0.0170631 0.00101307 1e-05
-0.0167436 0.00101419 1e-05
-0.0164242 0.00101534 1e-05
-0.0161047 0.00101648 1e-05
-0.0157852 0.00101761 1e-05
-0.0154657 0.00101873 1e-05
-0.0151531 0.00101977 1e-05
-0.0148405 0.00102085 1e-05
-0.0145279 0.00102191 1e-05
-0.0142152 0.00102297 1e-05
-0.0139026 0.00102401 1e-05
-0.0135967 0.00102499 1e-05
-0.0132908 0.00102599 1e-05
-0.0129848 0.00102698 1e-05
-0.0126789 0.00102797 1e-05
-0.012373 0.00102894 1e-05
-0.0120736 0.00102985 1e-05
-0.0117742 0.00103078 1e-05
-0.0114749 0.00103171 1e-05
-0.0111755 0.00103263 1e-05
-0.0108761 0.00103354 1e-05
-0.0105832 0.00103438 1e-05
-0.0102902 0.00103524 1e-05
-0.00999724 0.00103611 1e-05
-0.00970429 0.00103697 1e-05
-0.00941133 0.00103781 1e-05
-0.00912465 0.00103859 1e-05
-0.00883797 0.00103939 1e-05
-0.00855129 0.00104019 1e-05
-0.00826461 0.00104099 1e-05
-0.00797793 0.00104177 1e-05
-0.00769739 0.00104249 1e-05
-0.00741686 0.00104323 1e-05
-0.00713632 0.00104398 1e-05
-0.00685578 0.00104471 1e-05
-0.00657525 0.00104543 1e-05
-0.00630072 0.00104609 1e-05
-0.0060262 0.00104677 1e-05
-0.00575167 0.00104746 1e-05
-0.00547714 0.00104814 1e-05
-0.00520262 0.00104879 1e-05
-0.00493398 0.00104939 1e-05
-0.00466533 0.00105002 1e-05
-0.00439669 0.00105064 1e-05
-0.00412805 0.00105126 1e-05
-0.0038594 0.00105186 1e-05
-0.00359652 0.0010524 1e-05
-0.00333363 0.00105297 1e-05
-0.00307074 0.00105354 1e-05
-0.00280786 0.00105411 1e-05
-0.00254497 0.00105465 1e-05
-0.00228772 0.00105514 1e-05
-0.00203046 0.00105564 1e-05
-0.00177321 0.00105614 1e-05
-0.00151596 0.00105662 1e-05
-0.0012587 0.00105707 1e-05
-0.00100696 0.00105748 1e-05
-0.000755223 0.00105794 1e-05
-0.000503482 0.00105834 1e-05
-0.000251741 0.00105861 1e-05
0 0.00105871 1e-05
0.000329256 0.00105853 1e-05
0.000658511 0.00105851 1e-05
0.000987767 0.00105842 1e-05
0.00131702 0.00105811 1e-05
0.00164628 0.00105749 1e-05
0.00197921 0.00105642 1e-05
0.00231214 0.00105586 1e-05
0.00264507 0.00105544 1e-05
0.002978 0.00105494 1e-05
0.00331093 0.00105415 1e-05
0.00364757 0.0010527 1e-05
0.00398422 0.00105191 1e-05
0.00432087 0.00105131 1e-05
0.00465751 0.00105067 1e-05
0.00499415 0.00104974 1e-05
0.00533455 0.00104801 1e-05
0.00567496 0.00104694 1e-05
0.00601536 0.00104606 1e-05
0.00635577 0.00104512 1e-05
0.00669616 0.00104391 1e-05
0.00704036 0.00104188 1e-05
0.00738456 0.00104044 1e-05
0.00772877 0.00103914 1e-05
0.00807297 0.00103779 1e-05
0.00841716 0.00103619 1e-05
0.0087652 0.00103381 1e-05
0.00911324 0.00103193 1e-05
0.00946129 0.00103013 1e-05
0.00980933 0.00102825 1e-05
0.0101574 0.00102618 1e-05
0.0105093 0.0010234 1e-05
0.0108612 0.00102101 1e-05
0.0112131 0.00101863 1e-05
0.0115651 0.00101617 1e-05
0.011917 0.00101355 1e-05
0.0122728 0.00101032 1e-05
0.0126287 0.00100738 1e-05
0.0129845 0.00100439 1e-05
0.0133404 0.00100131 1e-05
0.0136962 0.000998112 1e-05
0.0140561 0.000994406 1e-05
0.0144159 0.000990888 1e-05
0.0147757 0.000987285 1e-05
0.0151355 0.000983591 1e-05
0.0154954 0.000979805 1e-05
0.0158592 0.00097561 1e-05
0.016223 0.000971504 1e-05
0.0165869 0.000967312 1e-05
0.0169507 0.000963033 1e-05
0.0173145 0.000958666 1e-05
0.0176824 0.000953992 1e-05
0.0180503 0.000949331 1e-05
0.0184182 0.00094459 1e-05
0.0187861 0.00093977 1e-05
0.019154 0.000934868 1e-05
0.019526 0.00092974 1e-05
0.019898 0.000924572 1e-05
0.02027 0.000919334 1e-05
0.020642 0.000914024 1e-05
0.0210141 0.000908643 1e-05
0.0213902 0.000903091 1e-05
0.0217664 0.000897471 1e-05
0.0221425 0.00089179 1e-05
0.0225187 0.000886046 1e-05
0.0228948 0.000880239 1e-05
0.0232752 0.000874297 1e-05
0.0236555 0.000868279 1e-05
0.0240359 0.000862207 1e-05
0.0244162 0.00085608 1e-05
0.0247966 0.000849897 1e-05
0.0251385 0.000844294 1e-05
0.0254805 0.000838636 1e-05
0.0258224 0.00083294 1e-05
0.0261643 0.000827205 1e-05
0.0264797 0.00082188 1e-05
0.0265276 0.000821065 1e-05
0.0265756 0.000820249 1e-05
0.0266236 0.000819432 1e-05
0.0266716 0.000818614 1e-05
0.0267196 0.000817796 1e-05
0.0271085 0.000811164 1e-05
0.0274973 0.00080448 1e-05
0.0278862 0.00079775 1e-05
0.0282751 0.000790973 1e-05
0.028664 0.000784149 1e-05
0.0290572 0.000777264 1e-05
0.0294505 0.000770288 1e-05
0.0298437 0.000763266 1e-05
0.0302369 0.000756198 1e-05
0.0306301 0.000749083 1e-05
0.0310278 0.000741945 1e-05
0.0314254 0.000734685 1e-05
0.031823 0.000727376 1e-05
0.0322206 0.000720019 1e-05
0.0326182 0.000712613 1e-05
0.0330203 0.000705209 1e-05
0.0334223 0.000697656 1e-05
0.0338244 0.000690049 1e-05
0.0342264 0.000682389 1e-05
0.0346285 0.000674674 1e-05
0.035035 0.000666976 1e-05
0.0354416 0.000659102 1e-05
0.0358481 0.000651168 1e-05
0.0362546 0.000643172 1e-05
0.0366612 0.000635127 1e-05
0.0370722 0.000627092 1e-05
0.0374833 0.000618878 1e-05
0.0378944 0.00061057 1e-05
0.0383055 0.000602191 1e-05
0.0387166 0.000593784 1e-05
0.0391322 0.000585357 1e-05
0.0395479 0.000576747 1e-05
0.0399635 0.000568006 1e-05
0.0403792 0.000559181 1e-05
0.0407949 0.000550344 1e-05
0.0412152 0.000541455 1e-05
0.0416355 0.000532376 1e-05
0.0420558 0.00052313 1e-05
0.042476 0.000513783 1e-05
0.0428964 0.000504435 1e-05
0.0433214 0.000495004 1e-05
0.0437463 0.000485373 1e-05
0.0441713 0.000475541 1e-05
0.0445963 0.000465599 1e-05
0.0450213 0.000455651 1e-05
0.0454511 0.000445586 1e-05
0.0458808 0.000435309 1e-05
0.0463105 0.00042482 1e-05
0.0467402 0.000414206 1e-05
0.04717 0.000403559 1e-05
0.0476045 0.000392761 1e-05
0.048039 0.000381737 1e-05
0.0484736 0.000370487 1e-05
0.0489081 0.000359097 1e-05
0.0493426 0.000347646 1e-05
0.049782 0.000336008 1e-05
0.0502214 0.000324129 1e-05
0.0506607 0.00031201 1e-05
0.0511001 0.000299741 1e-05
0.0515395 0.000287375 1e-05
0.0519838 0.000274782 1e-05
0.0524281 0.000261933 1e-05
0.0528723 0.000248857 1e-05
0.0533166 0.000235608 1e-05
0.0537609 0.000222209 1e-05
0.0542102 0.000208543 1e-05
0.0546594 0.000194602 1e-05
0.0551086 0.000180445 1e-05
0.0555578 0.00016609 1e-05
0.0560071 0.000151535 1e-05
0.0564614 0.000136669 1e-05
0.0569156 0.000121521 1e-05
0.0573698 0.000106152 1e-05
0.0578241 9.05596e-05 1e-05
0.0582784 7.47413e-05 1e-05
0.0587023 5.97931e-05 1e-05
0.0591262 4.46096e-05 1e-05
0.0595501 2.92154e-05 1e-05
0.059974 1.36099e-05 1e-05
0.0603387 1.69407e-21 1e-05
0.0603859 -1.78397e-06 1e-05
0.0604332 -3.57053e-06 1e-05
0.0604805 -5.35968e-06 1e-05
0.0605277 -7.15142e-06 1e-05
0.060575 -8.94578e-06 1e-05
0.0610394 -2.66022e-05 1e-05
0.0615038 -4.45279e-05 1e-05
0.0619683 -6.27207e-05 1e-05
0.0624327 -8.11812e-05 1e-05
0.0628972 -9.99145e-05 1e-05
0.0633668 -0.000119091 1e-05
0.0638364 -0.000138591 1e-05
0.064306 -0.000158383 1e-05
0.0647756 -0.000178468 1e-05
0.0652453 -0.000198853 1e-05
0.0657202 -0.000219696 1e-05
0.0661951 -0.000240907 1e-05
0.0666699 -0.000262442 1e-05
0.0671447 -0.000284296 1e-05
0.0676197 -0.000306454 1e-05
0.0680998 -0.000329113 1e-05
0.06858 -0.000352162 1e-05
0.0690601 -0.000375587 1e-05
0.0695402 -0.000399358 1e-05
0.0700205 -0.000423433 1e-05
0.070506 -0.000448064 1e-05
0.0709916 -0.000473106 1e-05
0.071477 -0.00049856 1e-05
0.0719625 -0.00052438 1e-05
0.0724481 -0.00055053 1e-05
0.0729391 -0.000577292 1e-05
0.07343 -0.000604488 1e-05
0.0739209 -0.000632119 1e-05
0.0744118 -0.000660137 1e-05
0.0749029 -0.000688525 1e-05
0.0753993 -0.000717583 1e-05
0.0758957 -0.000747099 1e-05
0.0763921 -0.000777047 1e-05
0.0768884 -0.00080741 1e-05
0.077385 -0.000838203 1e-05
0.0778869 -0.000869727 1e-05
0.0783889 -0.000901725 1e-05
0.0788908 -0.000934164 1e-05
0.0793927 -0.000967049 1e-05
0.0798948 -0.0010004 1e-05
0.0799629 -0.00100499 1e-05
0.0800311 -0.00100958 1e-05
0.0800993 -0.00101419 1e-05
0.0801674 -0.0010188 1e-05
0.0802343 -0.00102334 1e-05
0.080674 -0.00105321 1e-05
0.0811136 -0.00108343 1e-05
0.0815532 -0.001114 1e-05
0.0819928 -0.00114492 1e-05
0.0824326 -0.00117622 1e-05
0.0829458 -0.00121311 1e-05
0.083459 -0.00125053 1e-05
0.0839722 -0.00128845 1e-05
0.0844853 -0.00132686 1e-05
0.0849987 -0.00136579 1e-05
0.0855177 -0.00140557 1e-05
0.0860366 -0.00144593 1e-05
0.0865555 -0.00148684 1e-05
0.0870743 -0.00152828 1e-05
0.0875935 -0.00157023 1e-05
0.0881183 -0.0016131 1e-05
0.088643 -0.00165657 1e-05
0.0891676 -0.00170063 1e-05
0.0896922 -0.00174525 1e-05
0.0902172 -0.00179041 1e-05
0.0907478 -0.00183657 1e-05
0.0912784 -0.00188335 1e-05
0.0918089 -0.00193072 1e-05
0.0923393 -0.00197866 1e-05
0.0928702 -0.00202722 1e-05
0.0931109 -0.0020495 1e-05
0.0933515 -0.0020719 1e-05
0.0935922 -0.00209442 1e-05
0.0938328 -0.00211706 1e-05
0.0940602 -0.00213858 1e-05
0.0943587 -0.00216697 1e-05
0.0946572 -0.00219554 1e-05
0.0949557 -0.0022243 1e-05
0.0952542 -0.00225324 1e-05
0.0955528 -0.00228239 1e-05
0.0960954 -0.00233565 1e-05
0.0966378 -0.00238956 1e-05
0.0971802 -0.00244409 1e-05
0.0977225 -0.00249926 1e-05
0.0982654 -0.00255509 1e-05
0.098814 -0.00261209 1e-05
0.0993624 -0.00266978 1e-05
0.0999109 -0.00272817 1e-05
0.100459 -0.00278722 1e-05
0.101008 -0.00284694 1e-05
0.101563 -0.0029079 1e-05
0.102117 -0.00296959 1e-05
0.102672 -0.003032 1e-05
0.103226 -0.00309508 1e-05
0.103782 -0.00315893 1e-05
0.104117 -0.00319794 1e-05
0.104453 -0.00323722 1e-05
0.104789 -0.00327676 1e-05
0.105124 -0.00331655 1e-05
0.105438 -0.00335397 1e-05
0.105668 -0.00338154 1e-05
0.105897 -0.00340922 1e-05
0.106127 -0.00343702 1e-05
0.106356 -0.00346494 1e-05
0.106586 -0.00349299 1e-05
0.107153 -0.00356253 1e-05
0.10772 -0.00363281 1e-05
0.108287 -0.00370382 1e-05
0.108854 -0.00377556 1e-05
0.109422 -0.00384811 1e-05
0.109995 -0.0039221 1e-05
0.110568 -0.00399688 1e-05
0.111142 -0.00407248 1e-05
0.111715 -0.00414884 1e-05
[...]
POINT_DATA 6430
 FIELD attributes 2
p 1 6430 float
-9.87076 -9.87114 -9.87152 -9.8719 -9.87229 -9.87267 -9.87639 -9.88058 -9.88481 -9.88908 -9.89384 -9.89747 -9.9016 -9.90578 -9.91003 -9.91478 -9.91838 -9.92246 -9.92663 -9.93088 -9.93562 -9.93922 -9.94329 -9.94747 -9.95175 -9.9565 -9.96013 -9.96423 -9.96844 -9.97277 -9.97756 -9.98126 -9.98541 -9.9897 -9.99412 -9.99896 -10.0028 -10.007 -10.0114 -10.0159 -10.0209 -10.0249 -10.0292 -10.0338 -10.0385 -10.0436 -10.0477 -10.0523 -10.057 -10.0619 -10.0672 -10.0716 -10.0764 -10.0815 -10.0867 -10.0922 -10.097 -10.1022 -10.1075 -10.113 -10.1188 -10.124 -10.1298 -10.1359 -10.1422 -10.1489 -10.1555 -10.1618 -10.168 -10.1743 -10.1808 -10.1909 -10.2012 -10.2116 -10.2216 -10.2309 -10.2477 -10.2559 -10.2584 -10.2563 -10.2473 -10.2541 -10.2559 -10.2546 -10.2514 -10.245 -10.2626 -10.2738 -10.2814 -10.2839 -10.2771 -10.2917 -10.2997 -10.3044 -10.305 -10.2969 -10.3033 -10.3062 -10.3074 -10.3069 -10.3017 -10.3031 -10.3039 -10.3044 -10.3044 -10.3032 -10.3015 -10.3014 -10.3015 -10.3019 -10.3034 -10.2993 -10.2986 -10.2983 -10.2983 -10.3015 -10.2959 -10.2952 -10.2946 -10.2941 -10.2982 -10.2926 -10.292 -10.2914 -10.2909 -10.2949 -10.2902 -10.29 -10.2897 -10.2894 -10.2929 -10.2898 -10.2901 -10.2903 -10.2905 -10.2934 -10.2922 -10.2932 -10.2942 -10.2952 -10.2977 -10.2984 -10.3003 -10.3023 -10.3042 -10.3067 -10.3089 -10.3115 -10.3142 -10.3168 -10.3193 -10.3196 -10.32 -10.3204 -10.3207 -10.3211 -10.3251 -10.3292 -10.3332 -10.3373 -10.3414 -10.3464 -10.3515 -10.3567 -10.3618 -10.3672 -10.373 -10.3792 -10.3854 -10.3916 -10.3982 -10.4048 -10.4119 -10.419 -10.4261 -10.4338 -10.441 -10.4489 -10.4567 -10.4646 -10.4732 -10.481 -10.4893 -10.4977 -10.5063 -10.5153 -10.5236 -10.5321 -10.5408 -10.5498 -10.5591 -10.5677 -10.5763 -10.5851 -10.5942 -10.6034 -10.612 -10.6206 -10.6292 -10.6382 -10.6471 -10.6554 -10.6638 -10.6722 -10.6806 -10.6891 -10.697 -10.705 -10.7129 -10.7206 -10.7283 -10.7356 -10.743 -10.7502 -10.7571 -10.764 -10.7704 -10.7768 -10.7831 -10.7891 -10.795 -10.8004 -10.8056 -10.8108 -10.8159 -10.8206 -10.8247 -10.8286 -10.8324 -10.8363 -10.8399 -10.8423 -10.8445 -10.8467 -10.8489 -10.8508 -10.8511 -10.8513 -10.8516 -10.8518 -10.852 -10.8528 -10.8536 -10.8544 -10.8552 -10.8558 -10.8552 -10.8542 -10.8533 -10.8523 -10.8509 -10.8488 -10.846 -10.8432 -10.8401 -10.8367 -10.8326 -10.8282 -10.8234 -10.818 -10.8125 -10.8062 -10.7999 -10.7929 -10.7852 -10.7775 -10.7689 -10.7604 -10.7511 -10.7411 -10.7311 -10.7202 -10.7088 -10.697 -10.6852 -10.6727 -10.6591 -10.6448 -10.6305 -10.6162 -10.6018 -10.5996 -10.5973 -10.5951 -10.5928 -10.5906 -10.5761 -10.5617 -10.5473 -10.5329 -10.5177 -10.4992 -10.4799 -10.4606 -10.4409 -10.42 -10.3991 -10.378 -10.3559 -10.3323 -10.3086 -10.2849 -10.2612 -10.236 -10.2096 -10.1832 -10.1566 -10.1288 -10.1006 -10.0724 -10.0435 -10.0302 -10.0163 -10.0023 -9.98833 -9.97514 -9.95807 -9.94102 -9.92398 -9.90695 -9.88898 -9.85624 -9.82273 -9.78925 -9.75504 -9.71964 -9.68431 -9.649 -9.61232 -9.57415 -9.53597 -9.49782 -9.45907 -9.41906 -9.379 -9.3381 -9.31364 -9.28811 -9.26253 -9.23697 -9.21308 -9.1958 -9.17853 -9.16127 -9.14399 -9.12587 -9.08163 -9.03679 -8.99199 -8.94629 -8.89945 -8.85289 -8.80636 -8.75849 -8.70933 -8.66011 -8.61112 -8.56092 -8.51018 -8.45946 -8.4085 -8.40229 -8.39592 -8.38951 -8.38311 -8.37677 -8.33061 -8.28447 -8.23835 -8.19203 -8.14423 -8.09031 -8.03637 -7.98166 -7.92556 -7.86936 -7.81358 -7.75722 -7.69996 -7.64273 -7.58509 -7.56941 -7.55346 -7.53741 -7.52136 -7.50572 -7.46313 -7.42056 -7.37801 -7.33523 -7.29152 -7.23208 -7.17261 -7.11275 -7.0518 -6.99072 -6.93018 -6.86921 -6.80767 -6.74615 -6.68441 -6.67357 -6.66263 -6.65164 -6.64066 -6.62983 -6.57863 -6.52745 -6.47628 -6.4249 -6.37284 -6.31033 -6.24785 -6.1851 -6.12193 -6.05859 -6.00019 -5.94156 -5.88279 -5.82404 -5.76935 -5.76414 -5.75894 -5.75373 -5.7485 -5.74324 -5.68011 -5.61703 -5.55397 -5.49077 -5.42721 -5.36442 -5.30165 -5.23883 -5.17619 -5.11341 -5.07847 -5.0436 -5.00877 -4.97395 -4.94036 -4.91282 -4.88527 -4.85773 -4.83019 -4.80261 -4.74102 -4.67967 -4.61842 -4.5574 -4.49623 -4.43592 -4.37577 -4.31594 -4.25612 -4.19637 -4.18658 -4.17686 -4.16719 -4.15752 -4.14791 -4.09885 -4.04978 -4.00072 -3.95179 -3.90306 -3.84563 -3.7882 -3.73132 -3.67498 -3.61856 -3.57264 -3.52714 -3.4819 -3.43666 -3.3919 -3.38225 -3.3726 -3.36295 -3.35332 -3.34376 -3.29038 -3.23719 -3.18399 -3.13115 -3.07867 -3.0274 -2.97612 -2.92549 -2.87538 -2.8254 -2.79168 -2.75839 -2.72528 -2.69216 -2.65803 -2.64318 -2.62833 -2.61348 -2.59859 -2.58361 -2.53765 -2.49153 -2.44541 -2.39908 -2.35276 -2.30944 -2.26611 -2.22257 -2.1788 -2.1352 -2.09445 -2.05357 -2.01267 -1.97178 -1.93105 -1.92541 -1.91975 -1.9141 -1.90845 -1.90268 -1.86975 -1.83684 -1.80394 -1.77106 -1.73563 -1.70194 -1.66659 -1.63067 -1.59263 -1.5539 -1.52277 -1.49167 -1.45815 -1.42217 -1.38638 -1.35771 -1.32825 -1.29717 -1.26546 -1.23248 -1.20602 -1.17748 -1.14899 -1.12053 -1.0915 -1.08157 -1.07111 -1.06066 -1.05022 -1.0388 -1.02329 -1.0078 -0.992321 -0.976854 -0.961552 -0.937698 -0.913754 -0.889845 -0.865969 -0.842428 -0.82095 -0.799175 -0.777399 -0.755726 -0.734249 -0.714807 -0.695254 -0.675455 -0.65579 -0.636196 -0.618627 -0.601091 -0.583205 -0.565326 -0.547481 -0.531632 -0.515811 -0.499832 -0.483578 -0.467349 -0.453077 -0.438829 -0.424589 -0.409833 -0.395097 -0.382269 -0.36945 -0.356611 -0.343426 -0.330068 -0.318563 -0.307034 -0.295482 -0.283751 -0.271664 -0.261375 -0.251018 -0.24065 -0.230262 -0.219352 -0.210177 -0.200898 -0.191627 -0.182364 -0.172662 -0.164495 -0.156239 -0.147991 -0.139749 -0.131202 -0.123977 -0.116686 -0.109401 -0.102121 -0.0946547 -0.0883358 -0.0819789 -0.0756269 -0.0692798 -0.0628556 -0.0582548 -0.0536343 -0.0490167 -0.044402 -0.0391015 -0.0384057 -0.03771 -0.0370144 -0.0363188 -0.0357098 -0.0311836 -0.0267429 -0.0223055 -0.0178716 -0.0141809 -0.00997622 -0.00639303 -0.00281226 0.000766126 0.00313589 0.00615091 0.00760816 0.00906399 0.0105184 0.0095915 0.0120111 0.0147439 0.0174776 0.0202122 0.0228289 0.0253869 0.0214607 0.0175394 0.0136231 0.0031374
-9.86389 -9.86423 -9.86457 -9.86491 -9.86525 -9.86559 -9.86966 -9.87376 -9.87789 -9.88202 -9.88617 -9.89023 -9.8943 -9.89839 -9.90247 -9.90655 -9.91061 -9.91467 -9.91874 -9.92279 -9.92683 -9.9309 -9.93497 -9.93904 -9.94308 -9.9471 -9.9512 -9.95529 -9.95939 -9.96344 -9.96747 -9.97162 -9.97576 -9.9799 -9.98399 -9.98805 -9.99226 -9.99647 -10.0007 -10.0048 -10.0089 -10.0133 -10.0176 -10.0219 -10.0261 -10.0303 -10.0347 -10.0391 -10.0436 -10.0479 -10.0522 -10.0567 -10.0613 -10.0659 -10.0704 -10.0748 -10.0795 -10.0842 -10.089 -10.0936 -10.0982 -10.103 -10.1079 -10.1128 -10.1176 -10.1223 -10.1273 -10.1322 -10.1373 -10.142 -10.1467 -10.1514 -10.1563 -10.1616 -10.1669 -10.1721 -10.1772 -10.1822 -10.1869 -10.191 -10.1949 -10.1987 -10.2023 -10.2052 -10.2078 -10.2102 -10.2127 -10.2153 -10.218 -10.2208 -10.2235 -10.2261 -10.2286 -10.2313 -10.2337 -10.2361 -10.2376 -10.2392 -10.2408 -10.2424 -10.244 -10.2442 -10.2446 -10.2452 -10.2464 -10.2478 -10.2473 -10.247 -10.2473 -10.2482 -10.2495 -10.2488 -10.2483 -10.2483 -10.2489 -10.2498 -10.2491 -10.2485 -10.2482 -10.2486 -10.2493 -10.2486 -10.248 -10.2478 -10.248 -10.2486 -10.2481 -10.2478 -10.2478 -10.2481 -10.2487 -10.2487 -10.2488 -10.2492 -10.2498 -10.2507 -10.2512 -10.2519 -10.2528 -10.2539 -10.2553 -10.2565 -10.2578 -10.2594 -10.2612 -10.2633 -10.2651 -10.2673 -10.2697 -10.2723 -10.2751 -10.2777 -10.2807 -10.284 -10.2874 -10.291 -10.2945 -10.2984 -10.3025 -10.3067 -10.3111 -10.3155 -10.3202 -10.3251 -10.3301 -10.3353 -10.3404 -10.346 -10.3516 -10.3573 -10.3632 -10.369 -10.3752 -10.3814 -10.3877 -10.394 -10.4004 -10.4071 -10.4139 -10.4206 -10.4272 -10.434 -10.441 -10.448 -10.455 -10.4617 -10.4688 -10.4759 -10.483 -10.4901 -10.4968 -10.5038 -10.5108 -10.5178 -10.5249 -10.5314 -10.5382 -10.5449 -10.5516 -10.5583 -10.5645 -10.5709 -10.5771 -10.5833 -10.5895 -10.5953 -10.601 -10.6065 -10.612 -10.6175 -10.6228 -10.6276 -10.6322 -10.6369 -10.6415 -10.6462 -10.6466 -10.647 -10.6474 -10.6478 -10.6482 -10.6515 -10.6548 -10.658 -10.6613 -10.6646 -10.6672 -10.6697 -10.6722 -10.6748 -10.6772 -10.6788 -10.6799 -10.6811 -10.6823 -10.6832 -10.6837 -10.6833 -10.683 -10.6827 -10.6817 -10.6808 -10.6792 -10.6772 -10.6749 -10.6721 -10.6696 -10.6667 -10.663 -10.6584 -10.6536 -10.6493 -10.645 -10.6393 -10.6324 -10.6255 -10.6193 -10.613 -10.6054 -10.5963 -10.5873 -10.5789 -10.5703 -10.5604 -10.5495 -10.5382 -10.5276 -10.5159 -10.5037 -10.4914 -10.4778 -10.4644 -10.4497 -10.4351 -10.4204 -10.4054 -10.4013 -10.3969 -10.3925 -10.3881 -10.3839 -10.3714 -10.3589 -10.3464 -10.3339 -10.3205 -10.3022 -10.2829 -10.2636 -10.244 -10.2228 -10.2022 -10.1813 -10.1595 -10.1358 -10.112 -10.0888 -10.0656 -10.0408 -10.0143 -9.98785 -9.962 -9.93502 -9.90709 -9.8792 -9.85021 -9.83133 -9.81121 -9.79111 -9.77101 -9.75246 -9.74187 -9.73129 -9.72071 -9.71014 -9.69885 -9.66679 -9.63416 -9.60156 -9.56834 -9.53364 -9.49938 -9.46514 -9.42944 -9.39213 -9.35481 -9.31789 -9.2802 -9.24123 -9.20228 -9.16248 -9.14434 -9.12537 -9.10629 -9.08722 -9.06903 -9.04684 -9.02466 -9.00249 -8.98019 -8.95723 -8.91444 -8.87136 -8.8282 -8.78387 -8.73931 -8.69412 -8.64882 -8.60233 -8.55576 -8.50892 -8.48694 -8.46455 -8.44199 -8.41942 -8.3978 -8.37157 -8.34535 -8.31914 -8.29285 -8.26604 -8.21558 -8.16502 -8.11446 -8.06313 -8.01155 -7.95914 -7.90674 -7.85347 -7.80017 -7.74682 -7.71297 -7.67876 -7.64442 -7.61009 -7.57732 -7.55653 -7.53573 -7.51495 -7.49408 -7.47287 -7.41676 -7.36066 -7.30457 -7.24787 -7.19083 -7.13341 -7.07601 -7.01791 -6.95984 -6.90175 -6.86688 -6.83177 -6.79657 -6.76137 -6.72749 -6.70343 -6.67937 -6.65531 -6.63119 -6.60687 -6.54695 -6.48729 -6.42766 -6.36771 -6.30763 -6.2472 -6.18677 -6.12616 -6.06568 -6.00539 -5.97745 -5.94952 -5.92159 -5.89366 -5.86639 -5.83344 -5.80051 -5.76757 -5.73463 -5.70165 -5.64048 -5.57961 -5.51897 -5.45849 -5.39798 -5.33717 -5.27647 -5.21606 -5.15566 -5.0957 -5.07854 -5.0615 -5.04451 -5.02752 -5.01071 -4.96776 -4.92481 -4.88187 -4.83903 -4.79644 -4.73669 -4.67704 -4.61817 -4.55989 -4.50157 -4.443 -4.3849 -4.32726 -4.26962 -4.21224 -4.20478 -4.19742 -4.1901 -4.18279 -4.17549 -4.12618 -4.07686 -4.02755 -3.97846 -3.93002 -3.87413 -3.81825 -3.76349 -3.70966 -3.65581 -3.60177 -3.54855 -3.49582 -3.44308 -3.39049 -3.3872 -3.38397 -3.38077 -3.37757 -3.37436 -3.32625 -3.27814 -3.23002 -3.18218 -3.13532 -3.08519 -3.03506 -2.98618 -2.93843 -2.89069 -2.84282 -2.7958 -2.74942 -2.70304 -2.65708 -2.64914 -2.64142 -2.63375 -2.62609 -2.6184 -2.58148 -2.54457 -2.50765 -2.4709 -2.4352 -2.39195 -2.34896 -2.30677 -2.26593 -2.22513 -2.18431 -2.14378 -2.10445 -2.06532 -2.02695 -2.00364 -1.98113 -1.95872 -1.93631 -1.91323 -1.89864 -1.88404 -1.86944 -1.85486 -1.8408 -1.80512 -1.77002 -1.73493 -1.70041 -1.66671 -1.63315 -1.59959 -1.56711 -1.53571 -1.50435 -1.47312 -1.44243 -1.41248 -1.38254 -1.35344 -1.33499 -1.31731 -1.29962 -1.28194 -1.26331 -1.2533 -1.24329 -1.23328 -1.22328 -1.21362 -1.18728 -1.16125 -1.13523 -1.1094 -1.08447 -1.05986 -1.0354 -1.01142 -0.988428 -0.96547 -0.942825 -0.920184 -0.898331 -0.877201 -0.8561 -0.835303 -0.815041 -0.795127 -0.775218 -0.755809 -0.739845 -0.7244 -0.708959 -0.693522 -0.676552 -0.674036 -0.67152 -0.669004 -0.666489 -0.664032 -0.647115 -0.630244 -0.613381 -0.596524 -0.580131 -0.564457 -0.549064 -0.533677 -0.518501 -0.503683 -0.48942 -0.475206 -0.461191 -0.447669 -0.434175 -0.421221 -0.408271 -0.395666 -0.383387 -0.371121 -0.359383 -0.347693 -0.336382 -0.3252 -0.314076 -0.303471 -0.293111 -0.282897 -0.272698 -0.262639 -0.253138 -0.243948 -0.234763 -0.225581 -0.216459 -0.209671 -0.203011 -0.196353 -0.189697 -0.182369 -0.180933 -0.179496 -0.17806 -0.176624 -0.175189 -0.167846 -0.16049 -0.153137 -0.145788 -0.138459 -0.132108 -0.125616 -0.119127 -0.112641 -0.106161 -0.100728 -0.0951554 -0.0895808 -0.0840552 -0.0786746 -0.0743148 -0.0695853 -0.0645398 -0.0593036 -0.0539476 -0.0495521 -0.0452654 -0.041746 -0.0398422 -0.0380004 -0.0370137 -0.036027 -0.0292248 -0.017008 -0.00479145 0.0070974 0.0189864 0.0198511 0.00992574 0
-9.85876 -9.85907 -9.85939 -9.8597 -9.86002 -9.86033 -9.86429 -9.86825 -9.87221 -9.87617 -9.88009 -9.88401 -9.88792 -9.89184 -9.89575 -9.89963 -9.90352 -9.9074 -9.91129 -9.91518 -9.91902 -9.92289 -9.92676 -9.93063 -9.9345 -9.93832 -9.94218 -9.94605 -9.94991 -9.95378 -9.95759 -9.96146 -9.96533 -9.9692 -9.97307 -9.97689 -9.98076 -9.98465 -9.98853 -9.99242 -9.99624 -10.0001 -10.004 -10.0079 -10.0118 -10.0157 -10.0196 -10.0235 -10.0274 -10.0314 -10.0352 -10.0391 -10.043 -10.047 -10.0509 -10.0547 -10.0586 -10.0625 -10.0664 -10.0703 -10.0741 -10.0779 -10.0818 -10.0856 -10.0895 -10.0932 -10.0969 -10.1006 -10.1043 -10.108 -10.1115 -10.115 -10.1187 -10.1224 -10.1261 -10.1298 -10.1335 -10.1372 -10.141 -10.1448 -10.1484 -10.1519 -10.1552 -10.1584 -10.1617 -10.1647 -10.1675 -10.1701 -10.1728 -10.1755 -10.178 -10.1803 -10.1826 -10.1848 -10.1871 -10.1892 -10.1912 -10.193 -10.1948 -10.1966 -10.1982 -10.1997 -10.201 -10.2023 -10.2036 -10.2048 -10.2059 -10.2068 -10.2078 -10.2087 -10.2096 -10.2104 -10.2111 -10.2118 -10.2125 -10.2132 -10.2139 -10.2144 -10.215 -10.2156 -10.2161 -10.2167 -10.2173 -10.2178 -10.2183 -10.2189 -10.2195 -10.2201 -10.2208 -10.2214 -10.2221 -10.2229 -10.2238 -10.2246 -10.2255 -10.2264 -10.2276 -10.2288 -10.23 -10.2312 -10.2324 -10.234 -10.2357 -10.2374 -10.239 -10.2407 -10.2428 -10.245 -10.2472 -10.2494 -10.2516 -10.2543 -10.2571 -10.2598 -10.2626 -10.2654 -10.2687 -10.272 -10.2754 -10.2787 -10.2821 -10.2859 -10.2899 -10.2938 -10.2977 -10.3016 -10.306 -10.3104 -10.3148 -10.3192 -10.3236 -10.3284 -10.3332 -10.3381 -10.3429 -10.3477 -10.3528 -10.358 -10.3631 -10.3682 -10.3733 -10.3768 -10.3803 -10.3837 -10.3872 -10.3902 -10.3921 -10.394 -10.3959 -10.3978 -10.3998 -10.4051 -10.4103 -10.4156 -10.4209 -10.4263 -10.4315 -10.4366 -10.4417 -10.4469 -10.4521 -10.457 -10.4618 -10.4666 -10.4715 -10.4763 -10.4809 -10.4852 -10.4896 -10.4939 -10.4983 -10.5023 -10.506 -10.5097 -10.5134 -10.5171 -10.5205 -10.5234 -10.5263 -10.5292 -10.532 -10.5346 -10.5365 -10.5385 -10.5405 -10.5422 -10.5438 -10.5448 -10.5456 -10.5464 -10.5469 -10.5474 -10.5473 -10.5469 -10.5464 -10.5455 -10.5447 -10.5435 -10.5417 -10.5396 -10.5373 -10.535 -10.5326 -10.5293 -10.5254 -10.5215 -10.5176 -10.5137 -10.5088 -10.5032 -10.4975 -10.4919 -10.4863 -10.4797 -10.4722 -10.4647 -10.4572 -10.4497 -10.4414 -10.4319 -10.4224 -10.413 -10.4032 -10.3927 -10.3817 -10.3701 -10.3586 -10.3463 -10.3336 -10.321 -10.3073 -10.2934 -10.2784 -10.2635 -10.2487 -10.2334 -10.2232 -10.2126 -10.2019 -10.1913 -10.1816 -10.175 -10.1683 -10.1616 -10.155 -10.148 -10.129 -10.1097 -10.0905 -10.0712 -10.0507 -10.0303 -10.0086 -9.98691 -9.96462 -9.94123 -9.91829 -9.89515 -9.87104 -9.84514 -9.81924 -9.7938 -9.76838 -9.74141 -9.71298 -9.68456 -9.65661 -9.62798 -9.59814 -9.568 -9.53707 -9.50642 -9.47402 -9.44163 -9.40927 -9.37671 -9.37114 -9.36531 -9.35947 -9.35364 -9.34791 -9.31925 -9.29061 -9.26199 -9.23338 -9.20332 -9.1675 -9.13074 -9.09395 -9.05601 -9.01714 -8.97886 -8.94061 -8.90089 -8.85965 -8.81842 -8.77777 -8.73635 -8.69368 -8.65098 -8.60748 -8.57936 -8.54995 -8.52055 -8.49115 -8.4633 -8.4477 -8.43212 -8.41653 -8.40092 -8.38464 -8.33859 -8.29217 -8.24576 -8.19857 -8.15029 -8.10243 -8.05458 -8.00558 -7.95546 -7.90533 -7.85558 -7.80478 -7.75341 -7.70205 -7.65052 -7.64203 -7.63334 -7.6246 -7.61586 -7.60722 -7.56336 -7.51951 -7.47567 -7.43159 -7.3866 -7.33283 -7.27907 -7.22485 -7.16976 -7.11464 -7.05958 -7.00397 -6.9479 -6.89184 -6.83574 -6.82946 -6.82312 -6.81675 -6.81038 -6.80405 -6.75365 -6.70327 -6.65289 -6.60227 -6.55122 -6.49361 -6.43601 -6.37814 -6.32018 -6.26219 -6.22241 -6.1825 -6.14251 -6.10252 -6.06379 -6.04507 -6.02634 -6.00762 -5.98888 -5.97011 -5.91109 -5.85236 -5.79371 -5.73511 -5.67649 -5.61829 -5.56019 -5.50222 -5.44426 -5.38846 -5.38721 -5.38595 -5.3847 -5.38344 -5.38219 -5.32348 -5.2648 -5.20612 -5.1476 -5.08932 -5.03066 -4.97199 -4.91374 -4.85625 -4.79875 -4.76136 -4.72425 -4.68732 -4.65038 -4.61392 -4.59347 -4.57302 -4.55257 -4.5322 -4.51202 -4.4548 -4.39834 -4.34188 -4.28614 -4.23058 -4.17465 -4.11885 -4.06398 -4.00923 -3.95515 -3.93399 -3.91313 -3.89243 -3.87173 -3.8511 -3.81815 -3.78521 -3.75227 -3.71954 -3.68733 -3.63429 -3.58161 -3.52957 -3.47876 -3.42794 -3.37677 -3.32611 -3.27636 -3.2266 -3.17749 -3.16464 -3.15206 -3.13959 -3.12713 -3.11464 -3.07891 -3.04318 -3.00745 -2.97197 -2.93734 -2.89012 -2.84312 -2.79707 -2.75235 -2.70765 -2.66264 -2.61819 -2.57474 -2.5313 -2.48864 -2.47433 -2.46042 -2.44663 -2.43285 -2.41895 -2.39115 -2.36335 -2.33555 -2.3079 -2.28116 -2.24065 -2.20071 -2.16116 -2.12306 -2.08512 -2.04692 -2.00881 -1.97219 -1.93602 -1.90035 -1.87472 -1.85006 -1.82554 -1.80102 -1.77577 -1.76592 -1.75608 -1.74624 -1.73642 -1.72701 -1.69388 -1.66121 -1.62854 -1.59639 -1.56523 -1.5339 -1.50257 -1.47238 -1.44334 -1.41432 -1.38514 -1.35652 -1.32873 -1.30094 -1.27396 -1.25822 -1.24324 -1.22827 -1.21331 -1.19779 -1.18692 -1.17606 -1.16519 -1.15433 -1.14396 -1.11928 -1.09504 -1.0708 -1.04694 -1.02394 -1.00087 -0.977809 -0.955626 -0.934387 -0.913167 -0.89189 -0.870705 -0.850515 -0.830707 -0.811156 -0.791564 -0.772931 -0.754358 -0.735789 -0.717413 -0.71293 -0.708646 -0.704362 -0.700078 -0.695705 -0.682774 -0.669846 -0.656922 -0.644 -0.631603 -0.615357 -0.599502 -0.583651 -0.568078 -0.553085 -0.538138 -0.523249 -0.508778 -0.49505 -0.481334 -0.467673 -0.454016 -0.440969 -0.428429 -0.415899 -0.403435 -0.391284 -0.379502 -0.367786 -0.356359 -0.345091 -0.334372 -0.323655 -0.312941 -0.302322 -0.298986 -0.295776 -0.292566 -0.289356 -0.286051 -0.279485 -0.272921 -0.266358 -0.259797 -0.253452 -0.244444 -0.235548 -0.226655 -0.217765 -0.20937 -0.201162 -0.193095 -0.185075 -0.177314 -0.169791 -0.162442 -0.1551 -0.147892 -0.14108 -0.134271 -0.127635 -0.121 -0.114758 -0.108846 -0.102937 -0.0971975 -0.0914521 -0.0856522 -0.0796143 -0.0734901 -0.0675004 -0.0626243 -0.0584328 -0.0543462 -0.0512007 -0.0475444 -0.0391238 -0.0307063 -0.0222919 -0.0117725 -0.00631735 -0.00535726 -0.00439521 -0.00343118 -0.00243847 -0.00171477 -0.000991245 -0.000267903 0.00045526 0