/*--------------------------------*- C++ -*----------------------------------*\
| =========                 |                                                 |
| \\      /  F ield         | OpenFOAM: The Open Source CFD Toolbox           |
|  \\    /   O peration     | Version:  4.1                                   |
|   \\  /    A nd           | Web:      www.OpenFOAM.org                      |
|    \\/     M anipulation  |                                                 |
\*---------------------------------------------------------------------------*/
FoamFile
{
    version     2.0;
    format      ascii;
    class       volScalarField;
    location    "11";
    object      p;
}
// * * * * * * * * * * * * * * * * * * * * * * * * * * * * * * * * * * * * * //

dimensions      [0 2 -2 0 0 0 0];

internalField   nonuniform List<scalar> 
26785
(
7.85087
6.61264
5.87439
4.98911
4.31062
3.49646
3.15776
3.06988
3.13308
3.26421
3.452
3.73727
4.12424
4.83958
5.69167
6.43227
6.81072
7.00609
6.96875
6.90107
6.75607
6.61648
6.50856
6.42888
6.34429
6.28865
6.13378
5.92273
5.68568
5.4215
5.16275
4.91655
4.65407
4.3799
4.0956
3.82482
3.56093
3.31306
3.09782
2.9054
2.71099
2.4947
2.25607
2.00953
1.76932
1.54943
1.35181
1.18009
1.06854
0.981389
0.945427
0.921036
0.918688
0.908437
0.91424
0.920615
0.949383
0.979098
1.02798
1.07426
1.13374
1.18853
1.25601
1.32144
1.4002
1.47721
1.56343
1.64478
1.73201
1.81132
1.88937
1.95384
2.01291
2.05989
2.10314
2.1371
2.16707
2.18694
2.19922
2.1989
2.18698
2.15985
2.11738
2.05779
1.98096
1.88766
1.77862
1.65717
1.52483
1.38576
1.24078
1.09367
0.944946
0.798432
0.655035
0.518201
0.391727
0.272746
0.176117
0.0385304
7.83494
6.61278
5.87584
4.98817
4.30826
3.4936
3.15362
3.06754
3.13168
3.26233
3.44769
3.72957
4.11626
4.83553
5.69328
6.43664
6.8123
7.00658
6.96816
6.90005
6.75332
6.6141
6.50607
6.42636
6.3415
6.28727
6.13356
5.92349
5.68545
5.41965
5.16094
4.91595
4.65411
4.37974
4.09563
3.82502
3.56079
3.31273
3.09871
2.90784
2.71442
2.49779
2.25819
2.01074
1.77023
1.55
1.35152
1.17949
1.06773
0.981106
0.945872
0.922063
0.919489
0.909079
0.914479
0.920924
0.949431
0.979434
1.02828
1.0748
1.13396
1.18873
1.25578
1.3212
1.39972
1.47686
1.56293
1.64452
1.73196
1.81186
1.89018
1.95492
2.01398
2.06112
2.10444
2.1387
2.16885
2.189
2.20137
2.20122
2.18931
2.16228
2.11978
2.06024
1.98324
1.88975
1.78031
1.65851
1.52575
1.38636
1.24097
1.09347
0.944225
0.797162
0.653072
0.51531
0.388516
0.267493
0.193912
0.0170361
7.80653
6.61348
5.87895
4.98599
4.30413
3.48819
3.14633
3.06266
3.12987
3.26027
3.44098
3.71508
4.10068
4.82839
5.6984
6.44698
6.81766
7.00893
6.96913
6.89949
6.74941
6.6108
6.50272
6.42253
6.33723
6.2853
6.13457
5.92676
5.68648
5.41665
5.15697
4.91344
4.65216
4.37712
4.09324
3.82317
3.55852
3.31041
3.09874
2.91087
2.71921
2.50202
2.2607
2.01167
1.77058
1.54967
1.35015
1.17768
1.066
0.98047
0.946651
0.923762
0.920868
0.910155
0.9151
0.9217
0.950033
0.980564
1.02955
1.07644
1.13524
1.18994
1.25635
1.32161
1.39969
1.4768
1.56249
1.6442
1.73177
1.8122
1.89055
1.95524
2.01391
2.06094
2.10418
2.13875
2.16914
2.18972
2.20239
2.2027
2.19107
2.16447
2.1223
2.06317
1.98639
1.89303
1.78351
1.66164
1.52878
1.38935
1.24389
1.09626
0.946744
0.799295
0.654632
0.515842
0.388265
0.26433
0.197532
0.0249083
7.77019
6.61743
5.88321
4.98227
4.29821
3.47914
3.13441
3.05471
3.12768
3.25762
3.42978
3.69042
4.07406
4.81525
5.70582
6.4629
6.825
7.0103
6.96926
6.89734
6.74296
6.60543
6.49805
6.41692
6.33157
6.28359
6.13833
5.9345
5.69188
5.41679
5.15598
4.91421
4.65319
4.3765
4.09241
3.82274
3.55722
3.3085
3.09888
2.91363
2.72335
2.50529
2.26247
2.01255
1.77197
1.551
1.35085
1.17978
1.06727
0.984336
0.950499
0.928984
0.923843
0.913247
0.916213
0.923446
0.949928
0.981416
1.02898
1.07661
1.13355
1.18846
1.25283
1.31809
1.39429
1.47129
1.55519
1.63706
1.72369
1.80469
1.88199
1.9466
2.00397
2.05098
2.09355
2.12871
2.159
2.18042
2.19332
2.19462
2.18344
2.1579
2.1164
2.05839
1.98238
1.88995
1.78102
1.65991
1.5277
1.38911
1.24437
1.09748
0.948545
0.801586
0.657123
0.518281
0.389438
0.265233
0.182284
0.0412802
7.72809
6.62799
5.88961
4.97794
4.29075
3.46761
3.11894
3.04418
3.12549
3.25496
3.41565
3.65755
4.03899
4.79792
5.7161
6.48186
6.83286
7.01014
6.96899
6.89428
6.73538
6.6
6.49425
6.41227
6.32683
6.28291
6.1443
5.94564
5.70216
5.42369
5.16383
4.92441
4.66339
4.38441
4.09937
3.82849
3.56034
3.30974
3.1009
2.91655
2.72591
2.50587
2.26153
2.01126
1.77162
1.55065
1.34984
1.18005
1.0661
0.985307
0.950261
0.928821
0.920558
0.90942
0.910342
0.917801
0.942593
0.974668
1.02116
1.06948
1.12541
1.18076
1.24396
1.30943
1.38447
1.46131
1.54394
1.62606
1.71257
1.79446
1.87147
1.93625
1.993
2.04015
2.08249
2.11812
2.14849
2.17049
2.18365
2.18568
2.17509
2.15054
2.10996
2.05319
1.97833
1.88715
1.77923
1.65909
1.52788
1.3904
1.24678
1.10098
0.953087
0.807077
0.663317
0.524858
0.394943
0.270523
0.174304
0.051764
7.68443
6.64754
5.89809
4.97393
4.28294
3.45389
3.09972
3.03091
3.12227
3.25073
3.39832
3.61841
3.99824
4.77558
5.72435
6.49634
6.83378
7.00081
6.96112
6.88173
6.71809
6.58408
6.48081
6.39833
6.31451
6.27312
6.14013
5.94671
5.70569
5.42884
5.17403
4.93897
4.67885
4.39838
4.11275
3.84055
3.56933
3.31737
3.10973
2.92646
2.73507
2.51309
2.26762
2.018
1.7799
1.55974
1.35864
1.18833
1.07318
0.992478
0.956066
0.932215
0.92045
0.906884
0.905609
0.911533
0.934282
0.965159
1.01017
1.05797
1.11307
1.16821
1.23052
1.29565
1.36967
1.44572
1.52689
1.60855
1.69493
1.77748
1.85461
1.91971
1.97629
2.02362
2.06581
2.10151
2.13158
2.15354
2.16666
2.16904
2.15889
2.13517
2.09556
2.03998
1.96636
1.87656
1.7701
1.65142
1.52174
1.38582
1.24367
1.09919
0.9526
0.807854
0.66522
0.52764
0.397267
0.272895
0.168306
0.0551034
7.63707
6.6708
5.90545
4.96953
4.27455
3.43992
3.07895
3.01512
3.11659
3.24443
3.381
3.58194
3.9615
4.75527
5.72994
6.50015
6.82269
6.98
6.94248
6.85639
6.68722
6.55293
6.45217
6.3714
6.29273
6.25448
6.12669
5.93991
5.70464
5.43341
5.18585
4.95619
4.69676
4.41482
4.12833
3.85446
3.57974
3.32687
3.1209
2.93907
2.74672
2.52277
2.2762
2.0274
1.79073
1.5714
1.36953
1.19747
1.08099
0.999171
0.961177
0.9343
0.918872
0.902369
0.898954
0.902856
0.923327
0.952292
0.995512
1.04221
1.09641
1.15118
1.21299
1.27794
1.35123
1.42639
1.50624
1.58738
1.67381
1.75706
1.83461
1.90033
1.95729
2.00531
2.04788
2.08382
2.11361
2.13531
2.14822
2.15078
2.14104
2.11813
2.07961
2.02536
1.95304
1.86461
1.75979
1.64286
1.51489
1.38058
1.23998
1.09694
0.95172
0.808363
0.667035
0.530548
0.400156
0.275897
0.165676
0.0567196
7.60204
6.70239
5.91441
4.96801
4.26931
3.4286
3.05955
2.99807
3.10592
3.23053
3.35786
3.54565
3.92811
4.73174
5.72273
6.48408
6.79273
6.94254
6.91032
6.81935
6.6457
6.51125
6.41328
6.3366
6.26376
6.23128
6.11057
5.93082
5.70155
5.43606
5.1956
4.97213
4.71275
4.42851
4.14138
3.86695
3.58998
3.33743
3.13319
2.95267
2.75958
2.53416
2.28725
2.04042
1.80634
1.58895
1.38677
1.21299
1.09572
1.01283
0.973425
0.94343
0.924118
0.904065
0.898192
0.899524
0.917157
0.943173
0.9837
1.02845
1.08128
1.13468
1.19529
1.25962
1.33198
1.40565
1.48361
1.56368
1.64986
1.73334
1.81114
1.87723
1.93456
1.98336
2.02682
2.06327
2.09297
2.11434
2.12691
2.12936
2.12001
2.09784
2.06045
2.00754
1.93664
1.84959
1.74642
1.63137
1.5053
1.37263
1.23359
1.09203
0.948313
0.806468
0.666629
0.531407
0.401454
0.277488
0.163601
0.0564346
7.58445
6.73836
5.92382
4.96834
4.26593
3.42114
3.04366
2.98128
3.08677
3.20378
3.32483
3.50668
3.89546
4.70726
5.70886
6.46027
6.75768
6.90216
6.87266
6.7747
6.59386
6.45861
6.36426
6.29409
6.22741
6.20347
6.09288
5.92034
5.69624
5.43618
5.20339
4.98714
4.72791
4.44115
4.15412
3.87995
3.6014
3.3498
3.14709
2.96718
2.77354
2.54702
2.30038
2.05605
1.82497
1.60965
1.40727
1.23185
1.11413
1.03045
0.988988
0.955402
0.932133
0.908588
0.900116
0.898912
0.913779
0.936533
0.973853
1.01601
1.06706
1.11873
1.17762
1.24089
1.31233
1.38427
1.45991
1.53866
1.62442
1.70776
1.7856
1.85205
1.90979
1.95933
2.00398
2.04145
2.0714
2.09257
2.10484
2.10701
2.09794
2.07658
2.04031
1.98868
1.91922
1.83362
1.73208
1.61892
1.49484
1.36393
1.22642
1.0863
0.944141
0.803925
0.665673
0.531771
0.402465
0.279
0.162894
0.0559671
7.58989
6.77121
5.93082
4.96974
4.26532
3.41831
3.03345
2.96813
3.06358
3.1674
3.28904
3.46535
3.85909
4.67725
5.68623
6.42975
6.71423
6.85108
6.82371
6.71706
6.52719
6.39204
6.30341
6.24368
6.18578
6.17293
6.07489
5.9093
5.69021
5.43649
5.21256
5.00406
4.74529
4.45589
4.16996
3.89655
3.61686
3.36656
3.16444
2.98381
2.78956
2.56253
2.31723
2.07609
1.84849
1.63541
1.43307
1.25629
1.13847
1.05419
1.01022
0.971982
0.944822
0.918256
0.907474
0.903625
0.915631
0.934642
0.968315
1.00722
1.0558
1.10504
1.16172
1.22315
1.29312
1.3628
1.43556
1.51246
1.59739
1.68015
1.75768
1.82413
1.8823
1.93251
1.97833
2.01704
2.0476
2.0687
2.08081
2.08262
2.07366
2.05312
2.0182
1.96788
1.89993
1.81589
1.71615
1.60495
1.48292
1.3539
1.21813
1.0795
0.938979
0.800527
0.663978
0.531451
0.402895
0.279978
0.162823
0.0553288
7.61441
6.78915
5.93295
4.97069
4.26594
3.42021
3.02857
2.95822
3.03886
3.12485
3.25586
3.42782
3.82463
4.64879
5.66175
6.3963
6.66564
6.79437
6.76913
6.65284
6.45301
6.31944
6.23779
6.18999
6.14251
6.14146
6.05652
5.89747
5.68303
5.43606
5.22163
5.02021
4.7621
4.47014
4.18599
3.91329
3.63268
3.38402
3.18214
3.00012
2.80568
2.57907
2.33628
2.09834
1.87364
1.66212
1.45992
1.28271
1.16527
1.0807
1.03363
0.990065
0.959131
0.930352
0.917811
0.911313
0.920209
0.935373
0.965358
1.00101
1.0467
1.09296
1.14704
1.20633
1.27446
1.3416
1.41131
1.48622
1.57
1.65191
1.72887
1.79507
1.85347
1.90438
1.95137
1.99134
2.02293
2.04427
2.05633
2.0578
2.0487
2.02876
1.9952
1.94634
1.8799
1.79752
1.69967
1.59049
1.47044
1.34326
1.20937
1.07245
0.93362
0.796977
0.662152
0.531013
0.403261
0.280856
0.163325
0.0549219
7.67357
6.8039
5.93437
4.97204
4.26916
3.42602
3.02652
2.94935
3.01537
3.081
3.22326
3.39071
3.79264
4.62459
5.63691
6.3596
6.6085
6.7277
6.7033
6.57578
6.36673
6.23762
6.16538
6.13085
6.09604
6.10875
6.03754
5.88512
5.67631
5.43713
5.23286
5.03758
4.78057
4.48681
4.20541
3.93322
3.65187
3.40504
3.20206
3.0177
2.82362
2.59861
2.35952
2.12518
1.90288
1.69239
1.49118
1.31462
1.19808
1.11278
1.06178
1.01241
0.977888
0.94748
0.933432
0.923785
0.928967
0.940101
0.96628
0.998574
1.04088
1.0834
1.13402
1.19068
1.25662
1.32072
1.38708
1.45987
1.54205
1.62261
1.69862
1.76414
1.82243
1.87392
1.9221
1.96318
1.99598
2.01785
2.03003
2.03124
2.02194
2.00233
1.96989
1.92267
1.85803
1.7775
1.68183
1.57484
1.45692
1.33163
1.19964
1.0647
0.927843
0.793051
0.659971
0.530238
0.403384
0.281518
0.16393
0.0546796
7.73473
6.80578
5.92905
4.96914
4.27065
3.43038
3.02439
2.93897
2.99267
3.03845
3.19221
3.35682
3.76691
4.60938
5.61708
6.32454
6.54888
6.65915
6.63237
6.49117
6.27619
6.15521
6.09358
6.07146
6.04994
6.07699
6.01871
5.8727
5.66946
5.4386
5.24402
5.05319
4.79752
4.50301
4.22478
3.95226
3.67047
3.4255
3.22001
3.03351
2.84137
2.6195
2.38447
2.15368
1.93265
1.72254
1.52356
1.34863
1.2332
1.14656
1.09072
1.03571
0.997763
0.966132
0.950311
0.937177
0.938756
0.946331
0.969051
0.998235
1.03698
1.07535
1.12183
1.17583
1.23968
1.30056
1.36366
1.43462
1.51502
1.59395
1.66873
1.73326
1.79114
1.84313
1.89254
1.93461
1.96845
1.99114
2.00361
2.00466
1.99514
1.9757
1.94398
1.89815
1.8355
1.75702
1.66367
1.55897
1.44322
1.3199
1.1898
1.05685
0.922157
0.789249
0.657805
0.529417
0.403458
0.28219
0.164689
0.0547009
7.78328
6.80133
5.92051
4.96477
4.27224
3.43182
3.02232
2.93031
2.97263
2.99884
3.16133
3.32476
3.7446
4.59905
5.59687
6.28558
6.48242
6.58423
6.54954
6.39158
6.17724
6.0681
6.01705
6.00712
6.00053
6.04465
5.99916
5.86033
5.66392
5.44306
5.25744
5.06964
4.81569
4.52231
4.24758
3.97336
3.69209
3.44943
3.23778
3.04921
2.8604
2.64317
2.41279
2.18563
1.96538
1.75632
1.56118
1.38867
1.27384
1.1847
1.12352
1.06309
1.02212
0.988966
0.970672
0.953889
0.952128
0.956446
0.975658
1.00159
1.03631
1.06978
1.11117
1.16233
1.22396
1.28129
1.34115
1.41039
1.48849
1.56517
1.63823
1.70134
1.75853
1.81094
1.86163
1.90467
1.93927
1.96284
1.97575
1.97675
1.96709
1.94774
1.91662
1.87187
1.81118
1.73507
1.64433
1.54212
1.42872
1.30751
1.17945
1.04856
0.916109
0.785186
0.655347
0.528252
0.403234
0.282627
0.165399
0.0549433
7.81518
6.79418
5.90974
4.95928
4.27338
3.42969
3.01841
2.92205
2.95379
2.96214
3.13128
3.29768
3.72829
4.59529
5.58046
6.2447
6.41642
6.51106
6.46356
6.28525
6.07859
5.98366
5.94171
5.94334
5.95218
6.01424
5.97969
5.84805
5.65898
5.44801
5.27024
5.08452
4.83264
4.54139
4.26951
3.99242
3.71278
3.4734
3.25209
3.06255
2.87863
2.6676
2.44235
2.21756
1.99752
1.79037
1.5995
1.42998
1.31507
1.22242
1.15585
1.09123
1.04804
1.01245
0.991233
0.971123
0.966547
0.967978
0.98405
1.00688
1.03724
1.06527
1.10141
1.14985
1.20914
1.26282
1.32003
1.38784
1.46331
1.53736
1.60826
1.66975
1.7262
1.7791
1.83112
1.87528
1.91056
1.93493
1.94833
1.94936
1.93958
1.92025
1.88959
1.84576
1.78671
1.71308
1.62506
1.52542
1.4144
1.29533
1.16933
1.04057
0.91023
0.781216
0.65293
0.527015
0.402874
0.282943
0.166064
0.055353
7.83234
6.78524
5.89615
4.95502
4.27784
3.42782
3.01339
2.91477
2.93589
2.92698
3.09858
3.27248
3.71258
4.59031
5.56672
6.19564
6.34592
6.43127
6.36763
6.16971
5.97462
5.89293
5.86227
5.87817
5.90259
5.9835
5.95901
5.83531
5.65598
5.4545
5.28367
5.10062
4.85201
4.56502
4.29497
4.01281
3.73622
3.50141
3.26621
3.07554
2.89639
2.6939
2.47487
2.25118
2.03229
1.82832
1.64146
1.47466
1.35923
1.26219
1.19094
1.12398
1.07875
1.03954
1.015
0.991922
0.984507
0.982903
0.996108
1.01595
1.04114
1.06289
1.09366
1.13934
1.19552
1.24508
1.3003
1.36621
1.43848
1.50955
1.57758
1.63718
1.693
1.74642
1.7997
1.84497
1.88093
1.90599
1.91985
1.921
1.91116
1.89182
1.8616
1.81871
1.76118
1.69002
1.605
1.50811
1.39957
1.28273
1.15895
1.03244
0.904198
0.776969
0.650213
0.525446
0.402155
0.282959
0.166462
0.0557406
7.8418
6.77665
5.88104
4.95173
4.28429
3.42761
3.00693
2.9065
2.91844
2.8925
3.06416
3.25152
3.70211
4.58778
5.55824
6.14315
6.27766
6.34987
6.26441
6.05739
5.87368
5.80446
5.78844
5.81828
5.85464
5.953
5.93824
5.82242
5.65352
5.46015
5.29354
5.11418
4.87024
4.58938
4.31901
4.0304
3.75853
3.52845
3.27746
3.08574
2.91194
2.72
2.50669
2.28339
2.06645
1.86591
1.6821
1.5171
1.40014
1.29875
1.22448
1.15642
1.10858
1.06568
1.03781
1.0127
1.00274
0.998216
1.00944
1.02682
1.04637
1.06154
1.0872
1.13035
1.18286
1.2282
1.2825
1.34574
1.41453
1.4826
1.54752
1.60538
1.66091
1.71492
1.76923
1.81549
1.85209
1.87775
1.89207
1.89344
1.88357
1.86422
1.83438
1.79237
1.73632
1.66745
1.58548
1.4914
1.3853
1.27066
1.1491
1.02479
0.898534
0.772945
0.647543
0.523842
0.401398
0.282914
0.166632
0.0560416
7.84557
6.76612
5.86236
4.94998
4.29337
3.43167
3.00023
2.89822
2.90173
2.85705
3.02646
3.23174
3.69603
4.58474
5.54143
6.0833
6.20616
6.25523
6.13813
5.94094
5.76914
5.71502
5.71597
5.75726
5.80333
5.92048
5.91864
5.81142
5.65247
5.46787
5.30199
5.12722
4.89061
4.61904
4.34495
4.0503
3.78431
3.55657
3.2888
3.09499
2.92768
2.74632
2.53794
2.31615
2.1023
1.90568
1.72479
1.56043
1.4402
1.33589
1.26026
1.19075
1.14001
1.09411
1.06298
1.03649
1.02374
1.01611
1.02558
1.04081
1.0544
1.06282
1.08343
1.12382
1.17152
1.21279
1.26631
1.32583
1.39082
1.45548
1.51715
1.57346
1.62883
1.68337
1.73833
1.78535
1.82254
1.84872
1.8635
1.8651
1.8553
1.83599
1.80658
1.76551
1.71103
1.6444
1.56555
1.47445
1.37086
1.2585
1.13926
1.01711
0.89279
0.768809
0.64467
0.522002
0.400495
0.282697
0.166463
0.0561475
7.84428
6.75476
5.84248
4.94849
4.30185
3.43949
2.99366
2.88956
2.88625
2.82089
2.98874
3.21636
3.7019
4.58805
5.52359
6.02357
6.13893
6.15425
6.01178
5.82803
5.67041
5.63508
5.65044
5.69811
5.7519
5.88764
5.90025
5.80274
5.65191
5.47439
5.30693
5.13665
4.90916
4.64827
4.36863
4.06838
3.80835
3.57877
3.29794
3.10336
2.94401
2.77018
2.56505
2.34566
2.13547
1.94257
1.76376
1.59854
1.47439
1.36919
1.29266
1.22112
1.16834
1.12042
1.08685
1.05909
1.04399
1.0335
1.04144
1.05466
1.06258
1.06488
1.08157
1.11893
1.16045
1.19886
1.25119
1.3068
1.36811
1.42923
1.48802
1.54306
1.59834
1.65333
1.70871
1.75629
1.79404
1.82072
1.83599
1.83781
1.8281
1.80888
1.77991
1.73976
1.68686
1.62248
1.54653
1.45842
1.35727
1.24718
1.13018
1.01003
0.887484
0.764981
0.642027
0.520389
0.399753
0.282571
0.166303
0.0562827
7.8382
6.74124
5.82117
4.94667
4.31158
3.45173
2.98913
2.88103
2.8721
2.7833
2.94782
3.19406
3.71446
4.59407
5.50169
5.96183
6.0633
6.04235
5.88329
5.7112
5.57086
5.55587
5.58493
5.6369
5.69697
5.85235
5.88291
5.79732
5.65438
5.48114
5.31432
5.14923
4.93041
4.68004
4.39538
4.08971
3.8351
3.59952
3.30991
3.11476
2.96201
2.79302
2.59053
2.37487
2.16934
1.98027
1.80301
1.63562
1.50784
1.40211
1.32462
1.2514
1.19774
1.1484
1.1132
1.08376
1.06591
1.05304
1.05938
1.06994
1.0719
1.06849
1.0827
1.11596
1.14967
1.18646
1.23625
1.28819
1.34584
1.40319
1.45917
1.51292
1.56799
1.62322
1.67876
1.72679
1.76506
1.79221
1.80799
1.81004
1.80039
1.78138
1.75292
1.71378
1.66258
1.60058
1.52742
1.44223
1.3437
1.23596
1.12119
1.00296
0.882123
0.761077
0.63938
0.518787
0.398983
0.282415
0.166194
0.056479
7.82804
6.72776
5.80294
4.94354
4.3202
3.46462
2.98627
2.87158
2.85965
2.74612
2.90606
3.16607
3.72692
4.60376
5.47844
5.89821
5.97858
5.92775
5.75867
5.60037
5.47886
5.48262
5.52527
5.57807
5.64261
5.81635
5.86556
5.79292
5.65634
5.48401
5.3228
5.16299
4.95015
4.70628
4.41943
4.10855
3.85919
3.61459
3.32192
3.1286
2.98103
2.8138
2.61346
2.40201
2.20094
2.01479
1.83785
1.66769
1.53638
1.42895
1.35092
1.2771
1.22361
1.17345
1.13759
1.10701
1.08568
1.07127
1.07694
1.08396
1.08013
1.07189
1.08452
1.11239
1.13864
1.17466
1.22071
1.2698
1.32427
1.37807
1.43152
1.48427
1.53916
1.59444
1.64992
1.69835
1.7372
1.76489
1.78125
1.78357
1.77395
1.75517
1.72724
1.68913
1.63965
1.58008
1.50956
1.42697
1.3311
1.22567
1.11296
0.996516
0.877266
0.75764
0.637105
0.517447
0.398405
0.2824
0.166215
0.0567
7.81504
6.71257
5.78871
4.9404
4.32995
3.47815
2.98656
2.86212
2.84697
2.71013
2.8633
3.13131
3.72905
4.61037
5.44763
5.82981
5.87733
5.80122
5.63007
5.4898
5.38643
5.40981
5.46581
5.51623
5.58518
5.78067
5.8504
5.7889
5.66006
5.48584
5.33499
5.17988
4.97322
4.73115
4.44438
4.13234
3.88538
3.62669
3.33461
3.14753
3.00467
2.83609
2.63793
2.43076
2.2338
2.05019
1.87287
1.69946
1.56442
1.45461
1.3766
1.30316
1.25032
1.19943
1.16409
1.1332
1.10693
1.09076
1.09631
1.09857
1.08927
1.07775
1.08788
1.10812
1.12829
1.16297
1.20443
1.25076
1.30212
1.35268
1.40374
1.45566
1.51039
1.56548
1.6206
1.66929
1.70878
1.73707
1.75412
1.75676
1.74724
1.72869
1.70133
1.66432
1.61672
1.55969
1.49183
1.41169
1.31852
1.21545
1.10475
0.990122
0.872555
0.754329
0.634864
0.516074
0.397801
0.282357
0.16621
0.0569165
7.80013
6.69808
5.77803
4.93732
4.33918
3.48975
2.9887
2.85292
2.83548
2.67653
2.82369
3.10076
3.73109
4.62701
5.41352
5.76218
5.77128
5.67594
5.51012
5.3879
5.30029
5.34433
5.41119
5.45408
5.5287
5.7471
5.8378
5.78498
5.66218
5.48852
5.34667
5.19205
4.99135
4.74931
4.46512
4.15743
3.90829
3.6323
3.34441
3.16953
3.02932
2.85698
2.66114
2.45772
2.26371
2.08149
1.90262
1.72578
1.58709
1.47524
1.39714
1.325
1.2729
1.22183
1.18871
1.15722
1.12711
1.10932
1.11384
1.1109
1.09692
1.08402
1.09038
1.1017
1.11794
1.15056
1.18761
1.23082
1.27934
1.32742
1.37666
1.42812
1.48288
1.53772
1.59236
1.64111
1.68129
1.71031
1.72815
1.73121
1.72187
1.7035
1.67668
1.64075
1.59502
1.54056
1.47524
1.39751
1.30688
1.20611
1.09733
0.984525
0.868599
0.751593
0.633025
0.514988
0.397389
0.282418
0.16623
0.0571733
7.78172
6.68383
5.76723
4.93617
4.35111
3.5015
2.99499
2.84529
2.82357
2.64479
2.78476
3.07169
3.72911
4.64647
5.37273
5.68627
5.6549
5.54667
5.39071
5.28604
5.21336
5.27953
5.35575
5.38376
5.46809
5.71282
5.82883
5.78478
5.66262
5.49718
5.35936
5.20536
5.00855
4.76705
4.48571
4.19098
3.93027
3.63639
3.35785
3.19648
3.05539
2.87854
2.68578
2.4856
2.29375
2.11245
1.93175
1.75112
1.60901
1.49586
1.41779
1.34799
1.29649
1.24558
1.21575
1.18288
1.15011
1.13192
1.13144
1.12378
1.10591
1.09156
1.09304
1.09497
1.10836
1.1376
1.17034
1.20964
1.25523
1.30126
1.34913
1.40033
1.45504
1.5096
1.56363
1.6122
1.65308
1.68295
1.70167
1.70527
1.69623
1.678
1.65171
1.61686
1.57305
1.52117
1.4584
1.38326
1.29518
1.19676
1.08995
0.978998
0.864704
0.748845
0.631163
0.513883
0.396933
0.282389
0.166132
0.057451
7.76027
6.6711
5.75777
4.93622
4.36425
3.51129
3.00278
2.84059
2.81271
2.61643
2.75248
3.04909
3.72739
4.66289
5.32988
5.60527
5.53839
5.4253
5.28138
5.19096
5.13238
5.22119
5.30337
5.3083
5.40632
5.67581
5.81848
5.78409
5.65786
5.50591
5.36682
5.21713
5.01759
4.77755
4.50378
4.22311
3.94398
3.63786
3.3735
3.22222
3.07797
2.89744
2.70822
2.51029
2.31921
2.13774
1.9545
1.7699
1.62485
1.51129
1.43438
1.36785
1.3168
1.26648
1.24003
1.20642
1.17205
1.15319
1.14621
1.13608
1.11498
1.09819
1.09335
1.0874
1.09856
1.12317
1.1521
1.18776
1.23051
1.27491
1.32223
1.37364
1.42816
1.48235
1.53572
1.58401
1.62562
1.65647
1.67613
1.68047
1.67186
1.65373
1.62783
1.59392
1.55195
1.50243
1.44215
1.36967
1.28414
1.18803
1.0832
0.973985
0.861212
0.746439
0.629612
0.513088
0.396712
0.282471
0.166065
0.0578115
7.73358
6.65794
5.75028
4.93809
4.37973
3.52316
3.01508
2.84026
2.80056
2.59182
2.72317
3.02491
3.71712
4.66655
5.28347
5.51214
5.41527
5.30388
5.17278
5.09344
5.05134
5.16299
5.2455
5.22118
5.33998
5.63314
5.80298
5.7852
5.65595
5.51584
5.37191
5.23223
5.02322
4.78889
4.52604
4.25613
3.95801
3.64545
3.3939
3.24644
3.09757
2.9158
2.73053
2.53423
2.34353
2.16184
1.97616
1.78741
1.6399
1.5265
1.45196
1.38913
1.33902
1.29139
1.26615
1.23236
1.19729
1.17617
1.16386
1.15206
1.12693
1.10544
1.09265
1.08107
1.08944
1.10821
1.13339
1.16551
1.20518
1.24792
1.29507
1.34692
1.40095
1.45461
1.5071
1.55505
1.59737
1.62927
1.64994
1.65523
1.64721
1.62921
1.60353
1.57043
1.53022
1.48288
1.42513
1.3554
1.27253
1.17881
1.07617
0.968721
0.857468
0.743825
0.627942
0.512285
0.396543
0.282576
0.166005
0.0582343
7.70495
6.64548
5.74779
4.94063
4.39392
3.53554
3.02993
2.84595
2.78986
2.57429
2.69881
3.00509
3.71081
4.66681
5.2401
5.41313
5.29511
5.19204
5.0731
5.00086
4.97738
5.11018
5.18446
5.12661
5.27336
5.58454
5.77617
5.78171
5.65412
5.51774
5.37133
5.24075
5.02544
4.7959
4.54576
4.28342
3.97215
3.65634
3.41272
3.26351
3.10999
2.92971
2.74854
2.55289
2.36209
2.17966
1.9911
1.79871
1.64962
1.53667
1.46485
1.40716
1.35931
1.31558
1.28857
1.25594
1.2223
1.19793
1.18248
1.16759
1.138
1.1105
1.08948
1.0747
1.08004
1.09302
1.11461
1.14295
1.17979
1.22129
1.26869
1.32119
1.37474
1.42784
1.4793
1.52692
1.56989
1.6029
1.62454
1.63091
1.62364
1.60583
1.58012
1.54764
1.50886
1.46345
1.40813
1.34111
1.2609
1.16964
1.06937
0.963752
0.853951
0.741436
0.626533
0.511779
0.396656
0.282921
0.166128
0.0587222
7.67453
6.63292
5.75015
4.94416
4.40596
3.55274
3.05115
2.85857
2.77958
2.55713
2.67118
2.98512
3.69816
4.65166
5.19559
5.30715
5.17192
5.08087
4.97249
4.9066
4.90463
5.05614
5.11157
5.01972
5.20352
5.53981
5.74956
5.77143
5.64763
5.50954
5.37275
5.24867
5.03055
4.80548
4.56739
4.30857
3.99192
3.67446
3.43331
3.27609
3.11759
2.94114
2.76433
2.56931
2.3795
2.19654
2.00537
1.81036
1.66036
1.54799
1.47908
1.42797
1.38504
1.34148
1.31258
1.28312
1.25155
1.2245
1.20654
1.18486
1.14953
1.11556
1.08633
1.06956
1.07118
1.07883
1.09635
1.12049
1.15436
1.19473
1.24236
1.29526
1.3483
1.40083
1.45105
1.49829
1.5418
1.57592
1.59839
1.60579
1.5995
1.58197
1.55615
1.5241
1.48642
1.44274
1.38975
1.32542
1.24796
1.15938
1.0617
0.958217
0.849994
0.738761
0.625025
0.511283
0.396856
0.283422
0.166497
0.0592476
7.64439
6.62207
5.75686
4.94731
4.41448
3.57102
3.07587
2.87773
2.77213
2.53836
2.64034
2.97303
3.68741
4.62645
5.14705
5.20167
5.05587
4.97939
4.87918
4.81876
4.83885
5.00462
5.02793
4.91074
5.13977
5.51026
5.73439
5.74771
5.63057
5.48872
5.37309
5.24857
5.03229
4.81443
4.58222
4.32569
4.00859
3.69141
3.44998
3.28238
3.11901
2.947
2.77429
2.57999
2.39174
2.20769
2.01339
1.81644
1.66671
1.55623
1.49087
1.44626
1.40851
1.36309
1.33566
1.30998
1.28082
1.25316
1.2321
1.20095
1.15862
1.11781
1.08157
1.06349
1.06119
1.06483
1.07839
1.09859
1.12992
1.16917
1.21701
1.27018
1.32289
1.37487
1.42389
1.47071
1.51468
1.54973
1.57281
1.58101
1.57583
1.55876
1.53286
1.50096
1.46401
1.42176
1.37088
1.30911
1.23437
1.14856
1.05358
0.952505
0.846017
0.736237
0.62382
0.511124
0.397353
0.284206
0.167233
0.0598268
7.61426
6.61216
5.76705
4.95033
4.42109
3.59307
3.10954
2.90397
2.7682
2.51081
2.59574
2.9598
3.66535
4.58459
5.07644
5.0896
4.94112
4.87844
4.78348
4.73015
4.77336
4.94875
4.92005
4.79987
5.08661
5.48441
5.73376
5.72505
5.60342
5.45987
5.37132
5.24744
5.03914
4.83109
4.59352
4.34253
4.028
3.70952
3.46578
3.28637
3.11781
2.95067
2.7815
2.5891
2.40401
2.21871
2.02117
1.82308
1.67397
1.56729
1.50711
1.46818
1.4348
1.3891
1.36425
1.34162
1.31457
1.28801
1.26173
1.21979
1.16876
1.12004
1.07746
1.05757
1.05074
1.05149
1.06125
1.07799
1.10669
1.1443
1.19196
1.24521
1.29754
1.34884
1.39671
1.44296
1.4873
1.52293
1.54647
1.55521
1.55116
1.53468
1.50888
1.47695
1.44046
1.39941
1.35044
1.29108
1.21907
1.13615
1.04406
0.945681
0.841245
0.73322
0.622441
0.510984
0.397947
0.285107
0.168273
0.0605473
7.58732
6.60354
5.77969
4.95306
4.4267
3.6172
3.14954
2.93877
2.77253
2.48176
2.54393
2.93957
3.6403
4.53239
4.98376
4.97635
4.83503
4.78643
4.69435
4.64847
4.71316
4.89251
4.79961
4.7039
5.0464
5.45319
5.71985
5.7004
5.56952
5.42679
5.3598
5.24195
5.04555
4.84886
4.59856
4.34979
4.04232
3.7232
3.47689
3.2871
3.11298
2.95023
2.78292
2.59302
2.41184
2.22455
2.02309
1.82524
1.67719
1.57459
1.52123
1.48859
1.45845
1.41509
1.39259
1.37254
1.3487
1.32409
1.29091
1.23823
1.17722
1.12009
1.0722
1.05014
1.03867
1.03754
1.04401
1.05823
1.08457
1.12053
1.16797
1.2212
1.27315
1.32368
1.37076
1.41659
1.46111
1.49687
1.52063
1.52969
1.52638
1.5106
1.48504
1.45307
1.41688
1.37677
1.32945
1.27228
1.20295
1.123
1.03394
0.938322
0.836194
0.730118
0.621154
0.511058
0.398741
0.286258
0.169494
0.0614682
7.56511
6.59581
5.79569
4.95689
4.43058
3.64182
3.1963
2.98099
2.78536
2.45023
2.48336
2.89682
3.597
4.46309
4.86016
4.85305
4.72765
4.6934
4.60231
4.56696
4.64766
4.81524
4.68328
4.62603
5.01197
5.42414
5.69204
5.6792
5.53543
5.4014
5.34548
5.23705
5.05506
4.86955
4.61074
4.3542
4.05448
3.73664
3.48689
3.28785
3.1079
2.9497
2.78197
2.59589
2.42013
2.23058
2.02509
1.82855
1.6829
1.58394
1.53873
1.51319
1.48616
1.44613
1.42542
1.40822
1.38804
1.36473
1.32269
1.25895
1.18669
1.12089
1.06878
1.04317
1.02675
1.02369
1.02691
1.03901
1.06259
1.097
1.14436
1.19722
1.24853
1.29815
1.34467
1.39047
1.43491
1.47035
1.49408
1.50339
1.50046
1.4854
1.46016
1.42821
1.39221
1.35281
1.30686
1.25165
1.18502
1.10823
1.02244
0.929766
0.830306
0.726467
0.619536
0.510949
0.399587
0.287707
0.170816
0.0624585
7.54702
6.5888
5.81236
4.96173
4.43165
3.65801
3.24148
3.02811
2.80561
2.42144
2.42075
2.84724
3.54333
4.38841
4.72107
4.72865
4.62368
4.60685
4.51663
4.4911
4.57731
4.70431
4.58913
4.56641
4.97905
5.39985
5.6454
5.65488
5.49967
5.38055
5.32367
5.22879
5.06338
4.87903
4.62052
4.35212
4.05743
3.74355
3.49217
3.28542
3.09986
2.9461
2.77607
2.59419
2.42341
2.23108
2.02247
1.82639
1.68504
1.58974
1.55325
1.53491
1.51175
1.47544
1.4576
1.44451
1.42837
1.40523
1.35317
1.27721
1.19315
1.11976
1.06497
1.03481
1.01423
1.00914
1.00949
1.01985
1.04061
1.07407
1.12179
1.17394
1.22449
1.27307
1.31931
1.36572
1.40993
1.44473
1.46803
1.47748
1.47465
1.46023
1.43538
1.40354
1.36768
1.32867
1.28367
1.23013
1.16612
1.09261
1.01027
0.920754
0.824136
0.722757
0.617892
0.510883
0.400709
0.289465
0.172191
0.0633087
7.52809
6.58302
5.83026
4.96724
4.43055
3.66732
3.27628
3.07647
2.82618
2.39273
2.35584
2.79442
3.46911
4.30131
4.57199
4.59385
4.51413
4.51499
4.42494
4.40969
4.48426
4.57047
4.5063
4.51947
4.94803
5.38412
5.59497
5.62526
5.46625
5.36964
5.30129
5.22275
5.07852
4.88496
4.63498
4.3553
4.05915
3.74861
3.49725
3.28219
3.0918
2.94236
2.76942
2.59347
2.42612
2.23084
2.02023
1.82488
1.68905
1.59848
1.57134
1.55998
1.54151
1.50889
1.4943
1.48675
1.47469
1.44963
1.38564
1.29604
1.2001
1.11992
1.06183
1.02625
1.00233
0.99494
0.991891
1.00034
1.01829
1.05122
1.09937
1.15063
1.20033
1.24763
1.29371
1.34108
1.38502
1.41898
1.44163
1.45099
1.44815
1.43424
1.40987
1.37828
1.34249
1.30352
1.25897
1.20684
1.14536
1.07521
0.996517
0.910461
0.816952
0.718397
0.615834
0.510676
0.401865
0.291152
0.173479
0.0640174
7.50488
6.5787
5.84774
4.96982
4.42679
3.67068
3.29516
3.12482
2.84954
2.36787
2.30273
2.74674
3.39032
4.20912
4.4243
4.45782
4.40606
4.42758
4.33291
4.32474
4.3634
4.45184
4.42955
4.48063
4.91939
5.37196
5.54597
5.58545
5.43172
5.35871
5.27537
5.20947
5.08964
4.88892
4.64424
4.35561
4.05436
3.74672
3.49822
3.27433
3.08023
2.93515
2.75965
2.59012
2.42275
2.22435
2.01193
1.81801
1.68761
1.60336
1.5869
1.58186
1.56833
1.54091
1.53068
1.52935
1.52297
1.49261
1.4149
1.3118
1.20598
1.11933
1.05643
1.01569
0.989761
0.980145
0.973582
0.980325
0.995904
1.02874
1.07701
1.12774
1.177
1.22302
1.26908
1.31754
1.3613
1.39439
1.41613
1.4249
1.42184
1.40826
1.38463
1.35356
1.3179
1.27864
1.23404
1.18296
1.12381
1.05692
0.98192
0.899441
0.809261
0.713798
0.613764
0.510551
0.402949
0.292624
0.174628
0.0647058
7.47932
6.57785
5.8653
4.97056
4.42263
3.67117
3.29942
3.16626
2.87284
2.34255
2.25734
2.69561
3.29451
4.1029
4.26619
4.30618
4.29119
4.33575
4.2274
4.22584
4.22468
4.34173
4.35329
4.45086
4.8895
5.34574
5.51162
5.54828
5.40393
5.34133
5.25653
5.19635
5.09636
4.90018
4.65776
4.35993
4.05091
3.74368
3.49765
3.26544
3.06803
2.92659
2.75029
2.58917
2.41846
2.21683
2.00311
1.81313
1.68667
1.61116
1.60638
1.6069
1.59903
1.5779
1.57209
1.57692
1.57704
1.53729
1.4443
1.32866
1.21398
1.12045
1.05092
1.00523
0.977454
0.96539
0.955144
0.959996
0.973163
1.00598
1.05393
1.10452
1.15394
1.19875
1.24483
1.29425
1.33789
1.37019
1.39087
1.39856
1.39514
1.38167
1.35895
1.32867
1.2932
1.25339
1.20831
1.15787
1.10079
1.037
0.965731
0.887022
0.800541
0.708477
0.611269
0.510075
0.403645
0.293774
0.175579
0.0654143
7.45664
6.58186
5.87939
4.96791
4.41737
3.66971
3.29593
3.19711
2.89749
2.31922
2.22307
2.64776
3.19732
3.99336
4.10804
4.14914
4.17744
4.24905
4.12134
4.11215
4.09478
4.23599
4.2738
4.4302
4.85825
5.2905
5.48323
5.51134
5.38067
5.31472
5.23718
5.18162
5.09245