/*--------------------------------*- C++ -*----------------------------------*\
| =========                 |                                                 |
| \\      /  F ield         | OpenFOAM: The Open Source CFD Toolbox           |
|  \\    /   O peration     | Version:  4.1                                   |
|   \\  /    A nd           | Web:      www.OpenFOAM.org                      |
|    \\/     M anipulation  |                                                 |
\*---------------------------------------------------------------------------*/
FoamFile
{
    version     2.0;
    format      ascii;
    class       surfaceScalarField;
    location    "11";
    object      phi;
}
// * * * * * * * * * * * * * * * * * * * * * * * * * * * * * * * * * * * * * //

dimensions      [0 3 -1 0 0 0 0];

internalField   nonuniform List<scalar> 
52920
(
1797.23
-103.772
1886.02
-98.7992
1974.46
-85.9025
2039.51
-75.7373
2125.28
-69.0016
2183.71
-68.7782
2256.74
-58.3033
2301.97
-49.6065
2350.41
-31.7673
2377.48
-22.9944
2420.56
-27.2014
2467.04
-37.1355
2520.97
-42.8199
2572.67
-46.6917
2628.69
-53.815
2698.17
-65.1804
2773.99
-77.0525
2866.62
-89.0223
2964.18
-99.4477
3072.02
-106.564
3176.41
-107.956
3284.03
-106.598
3384.68
-104.645
3488.74
-102.692
3585.08
-98.551
3680.56
-94.168
3770.3
-89.217
3855.37
-85.0379
3937.73
-81.7317
4018.16
-80.1511
4098.65
-80.2222
4182.18
-81.3021
4265.79
-81.4876
4348.3
-80.2864
4428.83
-77.8671
4506.65
-74.8672
4581.86
-71.5069
4652.89
-67.9515
4721.73
-64.9458
4787.56
-62.8519
4853.45
-62.2478
4919.78
-63.0897
4988.53
-65.1608
5059.73
-67.9873
5135.13
-71.2595
5212.28
-74.1858
5288.96
-76.6319
5374.02
-79.2811
5456.23
-80.7898
5543.35
-82.3757
5629.01
-83.3892
5717.36
-84.4327
5805.69
-85.3332
5894.84
-86.0954
5985.28
-86.9632
6075.29
-87.6908
6167.62
-88.5424
6258.58
-89.2385
6352.37
-90.1778
6444.37
-90.9754
6539.79
-91.8306
6632.89
-92.424
6729.04
-92.9695
6822.49
-93.2345
6918.84
-93.3853
7012.27
-93.3796
7108.09
-93.3379
7201.07
-93.1854
7296.21
-92.9742
7388.64
-92.6789
7482.7
-92.3577
7574.22
-91.9129
7667.03
-91.4201
7757.48
-90.8416
7848.82
-90.2781
7938.15
-89.7783
8028.43
-89.4158
8117.21
-89.2362
8207.1
-89.2514
8296
-89.4052
8386.09
-89.6446
8475.45
-89.8669
8565.7
-90.0172
8655.19
-90.0164
8745.12
-89.8585
8834.14
-89.5192
8923.09
-89.0352
9011.06
-88.414
9098.58
-87.6991
9185.1
-86.894
9270.9
-86.0306
9355.71
-85.1061
9439.62
-84.1433
9522.54
-83.1151
9604.38
-82.0411
9684.82
-80.5456
9764.24
-79.5906
9839.81
-75.611
9916.08
-76.3691
-77.2291
1934.66
-220.146
2038.14
-212.048
2139.56
-184.3
2210.39
-158.779
2309.97
-149.369
2375.36
-144.406
2460.97
-127.013
2511.53
-101.692
2569.56
-69.0194
2604.59
-52.5959
2662.64
-68.1694
2724.74
-89.7714
2795.67
-101.778
2864.59
-109.66
2940.64
-126.548
3033.04
-152.783
3132.36
-178.69
3247.29
-201.686
3364.61
-220.792
3489.67
-232.599
3608.96
-233.775
3730.16
-230.505
3842.79
-225.313
3957.75
-220.037
4063.91
-210.369
4168.47
-200.053
4266.98
-189.37
4360.75
-180.482
4452.02
-173.675
4542.22
-170.845
4633.79
-171.981
4729.79
-175.222
4827.24
-176.637
4924.77
-175.161
5021.33
-171.099
5116.01
-165.659
5208.79
-159.52
5298.1
-153.076
5385.77
-147.517
5470.83
-143.577
5555.96
-142.109
5641.05
-142.955
5727.46
-145.682
5814.57
-149.413
5903.55
-153.526
5991.68
-156.832
6076.58
-159.142
6166.63
-161.331
6251.13
-161.83
6337.58
-162.077
6419.92
-161.495
6502.2
-160.845
6581.84
-160.011
6659.72
-158.966
6736.31
-158.13
6810.04
-157.21
6883.58
-156.416
6953.45
-155.599
7023.74
-155.135
7090.16
-154.735
7157.84
-154.351
7221.43
-153.908
7286.36
-153.363
7347.31
-152.743
7409.93
-151.898
7468.81
-151.203
7529.35
-150.455
7586.64
-149.884
7645.82
-149.204
7702.25
-148.743
7760.44
-148.25
7816.41
-147.861
7874.16
-147.416
7930.21
-147.116
7987.95
-146.908
8044.61
-147.037
8103.28
-147.468
8161.61
-148.431
8222.27
-149.762
8283.23
-151.482
8346.68
-153.299
8410.67
-155.133
8476.82
-156.712
8543.39
-157.969
8611.53
-158.774
8679.78
-159.142
8748.87
-159.069
8817.75
-158.607
8886.86
-157.812
8955.51
-156.71
9023.85
-155.346
9091.47
-153.715
9158.33
-151.857
9224.19
-149.727
9288.86
-147.392
9352.08
-144.244
9413.26
-141.237
9473.19
-135.79
9521.41
-124.831
-128.137
2085.84
-347.364
2197.2
-333.067
2305.63
-290.72
2386.9
-250.742
2495.24
-241.755
2573.26
-233.211
2668.72
-208.906
2733.04
-171.87
2807.06
-129.017
2864.93
-108.061
2945.19
-134.715
3027.92
-164.498
3116.25
-180.658
3201.78
-191.14
3293.29
-216.574
3397.64
-253.283
3504.23
-286.144
3619.46
-312.747
3731.97
-334.161
3847.88
-346.106
3956.43
-344.341
4065.68
-337.142
4167.18
-329.077
4272.03
-322.128
4370.62
-309.886
4469.76
-296.957
4565.12
-283.54
4657.55
-272.211
4748.51
-263.604
4838.93
-260.625
4930.86
-263.434
5027.09
-269.288
5124.65
-272.235
5221.96
-270.496
5317.77
-264.625
5410.93
-256.388
5500.94
-246.413
5585.67
-235.312
5666.17
-224.728
5740.71
-215.767
5810.97
-209.458
5876.11
-205.707
5936.87
-203.769
5992.51
-202.789
6044.34
-202.119
6090.23
-200.665
6128.16
-198.008
6167.07
-194.714
6196.14
-190.133
6223.54
-184.779
6242.99
-179.043
6258.87
-172.832
6268.43
-166.694
6272.62
-160.134
6272
-153.86
6264.92
-147.872
6254.49
-141.668
6236.73
-136.197
6216.51
-130.541
6188.9
-126.301
6160.39
-121.16
6124.76
-117.835
6089.15
-113.345
6047.29
-111.028
6006.85
-107.074
5961.21
-105.875
5917.88
-103.235
5870.84
-103.51
5827.42
-102.187
5781.88
-103.878
5740.85
-104.275
5699.42
-107.29
5663.55
-109.076
5628.88
-113.237
5600.52
-116.622
5575.03
-122.388
5557.07
-127.88
5543.69
-135.825
5538.9
-143.716
5540.04
-153.419
5550.26
-162.578
5566.89
-172.522
5592.09
-181.318
5623.34
-189.962
5662
-197.123
5705.82
-203.631
5755.51
-208.707
5809.3
-212.992
5867.49
-216.12
5928.79
-218.487
5993.15
-219.931
6059.69
-220.609
6128.09
-220.514
6197.77
-219.619
6268.16
-218.023
6339.44
-215.611
6408.84
-210.836
6481.17
-208.13
6542.53
-186.296
-174.434
2233.63
-473.526
2351.41
-458.533
2466.23
-403.231
2556.63
-351.949
2672.03
-340.854
2759.59
-329.013
2862.33
-296.533
2936.79
-246.101
3020.23
-192.689
3087.64
-169.816
3172.38
-203.759
3254.94
-238.008
3338.27
-252.903
3414.21
-260.921
3488.98
-287.995
3566.04
-325.835
3633.27
-355.778
3697.41
-375.235
3750.7
-391.913
3802.99
-400.33
3846.34
-395.196
3891.1
-386.064
3931.97
-379.338
3983.6
-377.36
4037.59
-370.675
4100.63
-362.059
4167.1
-352.374
4236.25
-343.444
4307.55
-336.033
4380.04
-333.839
4454.8
-338.649
4534.81
-347.405
4617.23
-352.528
4700.46
-351.173
4783.35
-344.183
4864.76
-333.791
4943.77
-320.355
5017.35
-304.37
5085.74
-287.43
5146.19
-271.231
5199.76
-256.819
5244.9
-244.477
5282.14
-233.706
5310.74
-224.16
5332.63
-215.416
5346.28
-207.108
5349.77
-198.152
5353.71
-187.737
5344.99
-176.362
5333.58
-163.707
5311.7
-150.777
5284.63
-136.93
5248.8
-123.144
5205.26
-108.655
5154.65
-94.5362
5094.78
-80.9589
5029.9
-67.3343
4954.54
-54.6547
4875.41
-42.124
4785.75
-31.6707
4695.03
-21.0895
4594.5
-13.1451
4494.78
-5.06459
4386.78
-0.036127
4282.14
5.61623
4170.89
7.65001
4064.75
9.8738
3954.51
8.11826
3851.84
6.65846
3747.67
1.22661
3652.48
-4.12948
3558.19
-12.7469
3473.96
-20.9597
3392.34
-31.9522
3321
-42.8648
3254.09
-56.6989
3198.62
-71.1871
3149.88
-88.9999
3114.04
-107.766
3087.14
-129.039
3074.09
-150.25
3070.99
-172.264
3081.14
-192.893
3100.89
-212.741
3132.26
-230.359
3172.01
-246.356
3221.17
-260.003
3277.23
-271.865
3340.6
-281.676
3409.45
-289.826
3483.69
-296.246
3562.09
-301.102
3644.23
-304.456
3729.33
-306.318
3816.64
-306.759
3906.18
-306.224
3995.76
-301.373
4086.7
-299.646
4180.42
-280.492
-246.164
2351.93
-603.088
2470.76
-585.732
2586.22
-516.886
2677.58
-453.071
2790.96
-440.72
2877.63
-425.726
2978.38
-385.13
3052.33
-325.534
3131.72
-258.713
3188.49
-224.481
3252.95
-254.35
3306.78
-283.452
3354.38
-290.379
3385.73
-287.567
3402.15
-302.706
3402.34
-321.608
3371.9
-326.586
3321.55
-319.141
3250.01
-321.268
3175.65
-322.284
3093.57
-315.594
3019.3
-307.182
2951.33
-314.061
2912.37
-333.487
2894.21
-353.298
2903.37
-367.357
2929.81
-376.636
2970.01
-382.202
3021.63
-385.84
3081.67
-392.671
3149.47
-405.552
3227.58
-422.297
3312.34
-434.438
3401.74
-437.727
3494.49
-433.748
3589.58
-425.526
3686.02
-412.558
3779.98
-394.981
3871.19
-374.234
3955.81
-352.766
4034.66
-331.879
4105.72
-312.513
4169.54
-294.192
4225.36
-277.288
4275.59
-261.704
4318.44
-247.661
4351.92
-233.536
4388.3
-217.065
4411.76
-199.242
4433.62
-179.574
4444.19
-159.147
4448.86
-136.779
4443.53
-114.384
4429.82
-91.3747
4408.75
-69.1203
4377.87
-47.534
4342.15
-26.4906
4295.66
-6.41005
4245.78
12.8768
4184.97
29.8999
4123.57
45.8314
4051.98
58.7858
3981.56
70.5548
3902.03
79.2024
3825.55
87.4117
3740.57
92.1937
3658.93
96.3844
3569.53
96.689
3484.71
96.1643
3394.06
91.0625
3309.05
84.8306
3220.49
74.7558
3138.6
64.368
3054.65
51.0254
2977.09
37.3866
2898.99
20.3902
2828.32
1.81159
2759.86
-21.4337
2701.1
-47.16
2648.07
-76.9417
2607.13
-107.863
2574.52
-140.536
2554.82
-172.218
2544.44
-203.232
2546.3
-231.646
2557.11
-257.957
2578.48
-281.173
2607.78
-301.872
2645.73
-319.685
2690.41
-335.07
2741.87
-347.929
2798.8
-358.447
2860.81
-366.745
2927.15
-372.889
2997.06
-376.933
3070.16
-379.421
3145.48
-376.898
3222.04
-376.191
3304.75
-363.292
-317.654
2405.64
-713.56
2512.48
-699.793
2616.67
-619.346
2696.59
-543.741
2797.07
-525.612
2871.6
-507.761
2961.05
-458.331
3025.15
-386.934
3089.54
-298.792
3117.3
-243.525
3137.57
-254.602
3136.04
-269.327
3123.56
-262.715
3086.95
-241.293
3020.03
-230.056
2916.92
-211.428
2762.3
-176.574
2578.27
-132.564
2373.07
-125.081
2179.33
-133.461
1992.76
-145.57
1836.42
-160.323
1706.71
-203.863
1632.27
-266.338
1596.07
-330.163
1602.67
-377.846
1633.74
-411.952
1682.75
-434.924
1746.92
-451.99
1822.79
-469.832
1908.78
-492.375
2007.1
-517.636
2112.46
-536.584
2222.51
-543.959
2335.96
-542.283
2451.78
-535.436
2569.12
-522.489
2684.07
-503.355
2797.16
-479.115
2904.42
-452.801
3007.44
-425.907
3104.35
-400.142
3196.36
-375.637
3282.82
-353.408
3366.25
-333.159
3443.69
-315.315
3512.78
-297.913
3587.54
-277.392
3649.94
-254.807
3711.57
-228.582
3761.46
-200.666
3806.48
-170.612
3842.04
-140.133
3868.75
-108.179
3887.09
-76.7744
3894.16
-45.8844
3895.01
-16.1252
3884.02
12.2037
3868.84
38.8023
3841.99
62.9422
3812.82
85.5492
3771.6
105.211
3728.91
122.749
3675.13
136.853
3622.05
149.29
3559.24
157.988
3498.42
164.821
3429.19
167.852
3362.78
169.398
3288.14
167.046
3215.38
163.187
3135.32
155.367
3058.14
146.033
2975.73
133.305
2896.75
119.18
2814.48
101.31
2736.94
80.5755
2658.96
54.1303
2588.27
23.2833
2521.14
-13.1238
2464.34
-52.4336
2414.43
-94.4878
2376.42
-136.494
2347.01
-178
2329.5
-216.972
2320.66
-253.293
2322.33
-286
2331.9
-315.396
2350.26
-341.221
2375.49
-363.838
2407.84
-383.269
2446.05
-399.651
2489.84
-413.123
2538.45
-423.828
2591.35
-431.861
2648.14
-437.823
2708.31
-438.448
2770.65
-439.428
2840.67
-433.976
-383.239
2351.35
-804.876
2439.37
-795.01
2526.41
-704.727
2587.91
-615.659
2668.17
-591.604
2720.93
-572.189
2791.86
-516.195
2841.61
-443.941
2887.89
-329.94
2878.69
-233.194
2846.73
-204.966
2786.26
-197.924
2721.22
-182.815
2634.23
-147.534
2512.99
-105.919
2352.7
-42.1463
2137.1
36.4868
1908.09
109.728
1679.32
103.469
1494.12
60.4625
1334.38
11.2252
1224.54
-40.6768
1144.03
-126.703
1118.18
-231.082
1115.58
-327.846
1144.53
-399.819
1187.12
-450.463
1239.87
-485.057
1301.43
-510.498
1370.29
-536.691
1447.93
-568.553
1538.75
-603.509
1635.98
-629.563
1736.27
-640.103
1838.2
-639.737
1941.95
-634.516
2047.54
-622.35
2150.88
-602.266
2253.31
-575.829
2351.01
-546.7
2446.51
-516.85
2538.11
-488.363
2627.1
-460.989
2712.63
-436.24
2797.67
-414.001
2878.89
-394.66
2953.66
-375.913
3037.68
-353.266
3110.89
-327.928
3187.22
-298.182
3255.32
-266.746
3321.55
-231.891
3380.71
-196.033
3432.88
-157.175
3477.74
-117.687
3511.31
-77.5675
3538.07
-38.3333
3551.57
-0.311549
3559.25
35.4979
3554.02
68.1255
3546.14
98.0861
3525.68
125.261
3502.29
150.432
3465.97
172.217
3428.13
191.526
3378.55
206.596
3328.65
218.766
3268.74
226.574
3210.62
231.568
3144.73
231.869
3081.43
230.113
3010.51
225.086
2941.23
218.657
2865.19
208.299
2791.39
195.693
2713.38
178.412
2639.32
157.099
2564.01
128.762
2495.02
94.3725
2428.46
52.8327
2370.98
6.85311
2318.96
-42.9682
2277.42
-93.5622
2242.97
-144.023
2219.06
-192.048
2202.48
-237.132
2195.16
-278.077
2194.46
-315.065
2201.41
-347.874
2214.11
-376.825
2232.95
-402.037
2256.78
-423.678
2285.56
-441.953
2318.66
-456.991
2355.67
-468.974
2396.39
-478.508
2440.65
-482.801
2487.47
-486.156
2542.59
-489.111
-438.83
2210.91
-859.772
2265.43
-857.974
2321.22
-759.487
2349.32
-656.286
2395
-619.947
2412.21
-598.005
2459.45
-543.116
2500.92
-479.758
2546.61
-339.363
2523.43
-195.041
2471.85
-120.526
2391.95
-95.53
2319.55
-82.3819
2231
-41.2308
2114.68
21.9195
1977.19
108.148
1799.34
205.387
1631.15
282.706
1470.83
250.489
1349.87
172.544
1241.37
95.3533
1171.94
13.8152
1118.93
-100.215
1107.44
-229.945
1105.54
-342.886
1125.06
-424.55
1151.76
-482.494
1185.76
-523.801
1227.59
-554.746
1276.59
-587.248
1335.19
-628.049
1408.33
-672.652
1487.92
-704.936
1570.12
-717.299
1653.43
-716.772
1738.56
-711.978
1826.13
-700.49
1911.93
-679.658
1997.18
-650.661
2077.73
-618.022
2156.89
-584.566
2233.13
-552.648
2307.84
-522.242
2380.24
-495.617
2453.89
-472.943
2525.29
-454.237
2591.8
-436.782
2670.92
-414.788
2740.62
-389.285
2815.77
-358.044
2884.09
-324.864
2952.72
-287.19
3016.32
-247.93
3075.65
-204.878
3130.53
-160.105
3176.08
-112.999
3216.37
-65.8552
3244.1
-19.2508
3266.64
25.0036
3275.81
66.125
3281.85
103.655
3275.74
137.432
3267.55
168.941
3246.54
197.785
3223.4
223.98
3187.85
245.654
3151.09
263.417
3103.73
276.263
3057.09
285.132
3001.78
288.761
2948.76
288.803
2889.72
284.823
2833.53
279.509
2770.48
271.382
2708.86
260.352
2642.18
243.889
2578.61
221.875
2513.08
191.826
2452.83
154.185
2393.86
108.282
2342.44
56.5981
2294.9
0.364173
2256.02
-57.3776
2222.49
-115.116
2197.69
-170.559
2178.61
-222.739
2167.29
-270.409
2161.13
-313.395
2161.19
-351.602
2165.62
-385.311
2174.87
-414.738
2187.84
-440.116
2204.63
-461.734
2224.72
-479.815
2247.94
-494.553
2274.1
-506.587
2303.25
-513.568
2334.56
-518.567
2373.13
-528.465
-481.721
1961.25
-858.197
1953.97
-858.424
1958.9
-761.883
1942.87
-653.922
1953.36
-612.173
1939.19
-599.328
1975.04
-561.526
2028.79
-542.806
2103.04
-390.93
2100.59
-191.482
2073.45
-67.9701
2017.13
-24.1338
1959.13
-4.47216
1875.37
49.2024
1779.15
120.526
1690.63
205.855
1578.92
314.221
1470.01
408.126
1350.67
372.523
1255.03
279.965
1165.1
186.435
1109.64
83.0359
1066.44
-56.527
1059.16
-210.103
1056.46
-337.905
1070.57
-429.388
1088.99
-495.06
1114.06
-544.808
1146.98
-583.377
1186.45
-623.787
1234.88
-674.287
1297.99
-729.798
1367.69
-769.574
1440.2
-784.861
1513.68
-785.084
1588.44
-781.323
1665.08
-770.621
1739.71
-749.291
1813.81
-718.376
1882.92
-683.049
1950.49
-647.332
2015.06
-613.873
2078.26
-581.956
2139.37
-554.433
2202.49
-532.155
2264.25
-514.938
2322.13
-499.468
2395.05
-478.887
2459.26
-454.063
2530.55
-422.076
2595.73
-388.21
2662.9
-349.141
2726.03
-307.8
2786.16
-262.092
2844.03
-214.205
2894.69
-162.352
2942.23
-109.178
2978.54
-55.3033
3010.92
-3.51327
3030.69
45.5198
3047.62
90.7923
3051.99
131.88
3055
169.573
3046.37
204.785
3036.09
237.967
3013.39
266.817
2989.16
291.05
2954.13
309.671
2919.38
323.304
2875.76
331
2833.53
334.117
2784.66
332.315
2739.49
327.707
2689.1
320.644
2640.27
311.835
2585.76
297.59
2533.23
276.921
2477.8
246.839
2426.53
207.775
2375.44
159.181
2330.57
103.614
2288.34
42.6135
2253.4
-20.5928
2222.54
-84.159
2199.1
-145.598
2180.19
-203.674
2167.91
-257.002
2159.84
-305.166
2157.02
-347.977
2157.53
-385.647
2161.81
-418.505
2168.69
-446.801
2178.27
-471.001
2190.08
-491.39
2204.01
-508.306
2220.01
-522.342
2238.19
-531.65
2257.79
-537.962
2282.42
-553.003
-511.71
1570.39
-761.128
1487.31
-787.917
1451.72
-726.124
1417.96
-638.397
1431.14
-602.317
1422.28
-602.295
1475.36
-586.446
1551.37
-608.159
1650.67
-434.992
1668.64
-187.266
1678.11
-33.3164
1664.95
18.7991
1649.17
45.2816
1607.05
111.872
1551.09
190.268
1489.52
279.008
1392.79
399.679
1294.47
510.524
1185.81
466.62
1104.03
349.254
1032.99
229.89
997.001
100.947
968.98
-57.1696
969.816
-222.455
968.928
-354.871
981.022
-446.759
995.458
-514.719
1016
-569.858
1043.97
-613.394
1077.65
-658.553
1119.67
-716.638
1176.68
-781.826
1240.52
-828.189
1307.46
-845.642
1375.67
-845.764
1445.09
-841.511
1515.85
-830.194
1584.14
-807.445
1651.67
-773.509
1713.76
-733.926
1773.96
-693.66
1830.73
-655.938
1885.86
-620.726
1938.64
-591.596
1993.66
-570.018
2047.76
-555.66
2098.56
-543.895
2166.33
-526.593
2225.58
-503.902
2293.17
-472.257
2354.81
-438.098
2419.84
-398.649
2482.14
-356.457
2542.37
-308.972
2601.74
-259.232
2655.27
-204.361
2707.53
-147.016
2749.7
-87.5064
2789.16
-29.5576
2816.73
26.1012
2842.4
77.9055
2855.53
125.676
2867.11
169.25
2867.64
209.571
2867.6
248.004
2855.69
282.825
2842.31
312.771
2818.19
336.56
2794.19
354.442
2761.23
365.836
2729.22
371.815
2690.11
372.299
2653.44
368.913
2611.94
362.263
2572.68
354.262
2527.78
341.519
2483.97
322.018
2436.46
292.043
2392.17
251.65
2347.29
200.645
2307.68
141.495
2270
76.121
2238.79
7.84143
2211.04
-61.0518
2189.97
-127.945
2172.8
-191.258
2161.55
-249.519
2153.89
-302.097
2150.9
-348.76
2150.66
-389.585
2153.48
-424.874
2158.09
-454.989
2164.55
-480.541
2172.3
-501.994
2181.29
-519.737
2191.4
-534.466
2202.86
-544.788
2215.11
-551.382
2229.96
-568.661
-531.861
1090.6
-648.671
1013.16
-719.343
997.551
-706.558
986.929
-647.169
1033.84
-623.974
1051.35
-641.269
1126.66
-640.154
1211.32
-706.829
1321.3
-517.927
1354.12
-222.126
1388.6
-42.1864
1402.93
17.7086
1415.1
51.04
1398.38
132.338
1361.97
227.997
1309.49
340.618
1215.16
493.559
1123.74
622.16
1029.31
568.376
966.724
427.858
916.605
285.792
899.177
136.281
883.062
-37.2862
888.532
-212.334
886.197
-348.191
894.737
-443.987
905.329
-518.284
922.588
-582.174
947.223
-633.236
976.683
-684.745
1013.77
-751.33
1066.26
-827.917
1126.01
-882.649
1189.14
-903.683
1253.44
-904.936
1318.73
-901.441
1385.05
-890.062
1448.62
-866.2
1511.35
-829.973
1568.39
-787.265
1623.48
-744.404
1674.74
-704.575
1723.64
-666.983
1769.47
-636.141
1817.61
-615.103
1865.33
-603.637
1910.49
-595.532
1974.31
-581.268
2029.81
-560.717
2094.78
-529.666
2153.94
-495.777
2217.02
-456.342
2278.34
-414.519
2338
-365.964
2397.65
-315.216
2452.31
-258.334
2507.2
-197.991
2553
-133.812
2597.26
-70.4306
2630.31
-8.62418
2662.39
49.3304
2682.46
103.642
2701.17
153.57
2708.78
199.611
2716.52
243.379
2713.09
284.124
2708.44
320.281
2693.11
349.823
2677.76
372.737
2653.35
388.541
2629.55
398.319
2598.34
401.943
2568.86
401.072
2534.11
395.819
2501.94
389.011
2464.32
378.356
2427.36
361.552
2385.84
333.359
2346.89
293.111
2306.89
240.801
2271.67
179.175
2238
110.252
2210.44
37.6417
2186.07
-36.0948
2168.05
-107.951
2153.57
-176.123
2144.59
-238.932
2138.73
-295.599
2137.02
-345.796
2137.61
-389.559
2140.8
-427.135
2145.23
-458.855
2150.94
-485.567
2157.29
-507.816
2164.18
-526.152
2171.42
-541.26
2179.2
-552.265
2187.25
-559.098
2196.02
-577.24
-544.505
814.227
-561.995
757.955
-681.577
760.549
-710.107
761.17
-673.023
824.547
-658.81
850.897
-682.077
931.079
-685.154
1009.38
-768.564
1114.67
-552.712
1144.51
-225.559
1181.67
-28.3757
1201.45
32.2164
1222.34
68.0248
1214.5
163.077
1186.15
272.405
1139.44
398.297
1048.37
570.671
967.724
706.783
893.217
626.419
852.943
452.166
823.327
284.951
820.373
119.282
811.585
-58.6022
818.114
-230.251
812.192
-360.311
816.482
-452.518
824.02
-530.184
839.658
-601.367
862.547
-657.21
888.615
-710.933
920.851
-782.943
969.004
-869.782
1025.52
-932.749
1085.82
-956.507
1146.62
-956.883
1207.76
-951.695
1269.63
-938.975
1328.62
-913.446
1386.91
-874.034
1439.48
-826.792
1490.22
-779.081
1536.82
-734.035
1580.27
-691.656
1619.59
-657.924
1660.91
-637.775
1702.4
-630.998
1742.24
-629.009
1802.61
-619.775
1854.75
-602.872
1917.42
-573.421
1974.41
-539.962
2035.44
-500.24
2095.56
-459.095
2154.9
-410.361
2215
-359.111
2270.68
-301.202
2327.75
-238.991
2376.44
-171.483
2424.69
-103.892
2462.27
-37.1534
2499.71
25.8568
2525.6
85.5195
2550.5
140.898
2564.12
192.07
2578.04
240.242
2581.21
285.697
2583.42
326.984
2575.01
361.532
2566.46
388.789
2548.77
408.498
2531.45
421.555
2506.57
427.957
2483.09
429.164
2453.67
425.481
2426.77
419.132
2394.9
409.455
2363.99
393.926
2328.19
367.064
2294.64
326.352
2259.89
272.302
2229.61
207.783
2200.61
135.192
2177.26
58.2429
2156.76
-20.175
2142.21
-96.8092
2130.84
-169.474
2124.52
-236.37
2120.9
-296.557
2120.95
-349.612
2122.77
-395.543
2126.76
-434.646
2131.64
-467.317
2137.45
-494.433
2143.47
-516.69
2149.6
-534.692
2155.59
-549.279
2161.52
-559.843
2167.29
-566.055
2172.59
-583.334
-552.958
646.99
-495.795
617.636
-660.72
635.071
-722.109
638.68
-699.764
707.102
-697.842
733.763
-733.91
813.239
-739.996
885.036
-858.836
981.703
-620.826
998.843
-247.853
1027.55
-30.8678
1041.4
30.2052
1059.16
67.0079
1050.68
172.492
1025.25
297.549
980.088
452.188
892.366
660.347
830.42
790.547
778.762
688.644
759.656
490.508
745.607
308.357
751.103
135.246
744.523
-45.6187
749.548
-216.816
739.502
-344.327
740.688
-440.202
747.313
-528.444
763.876
-611.754
786.813
-674.336
810.087
-730.063
837.71
-807.562
882.47
-907.381
937.386
-981.798
996.193
-1009.63
1053.74
-1008.84
1110.21
-1002.34
1167.25
-989.167
1221.65
-962.836
1275.89
-921.794
1324.83
-872.082
1372.17
-822.15
1414.89
-774.387
1453.56
-728.139
1487.14
-691.03
1522.03
-670.426
1557.12
-667.639
1591.97
-672.07
1649.51
-667.937
1699.21
-654.623
1760.41
-626.867
1816.21
-594.645
1876.18
-554.902
1935.22
-514.876
1994.09
-466.795
2053.88
-415.163
2109.49
-356.728
2167.6
-293.387
2218.07
-223.252
2269.19
-152.034
2310.19
-80.6801
2351.81
-12.7615
2382.16
52.3894
2412
113.525
2430.51
170.466
2449.36
223.941
2457.72
274.596
2465.47
321.587
2462.71
361.767
2459.81
394.209
2447.75
418.533
2436.01
435.68
2416.68
445.531
2398.66
449.629
2374.76
448.117
2353.33
442.974
2327.29
434.711
2302.78
421.023
2273.3
396.507
2245.67
356.648
2216.52
301.913
2191.43
235.582
2167.25
160.204
2148.2
79.8805
2131.43
-2.39636
2120.06
-83.0854
2111.44
-159.768
2107.44
-230.363
2105.72
-293.796
2107.27
-349.512
2110.15
-397.447
2114.82
-438.023
2120.08
-471.709
2126.07
-499.429
2131.99
-521.843
2137.79
-539.77
2143.18
-554.042
2148.21
-564.395
2152.89
-570.303
2156.39
-586.559
-558.327
555.154
-468.161
545.695
-672.847
569.951
-748.26
570.702
-729.746
637.786
-734.229
660.912
-771.751
737.652
-776.362
803.319
-901.344
889.422
-622.944
890.81
-219.447
908.296
8.98867
913.348
63.6512
924.683
97.0596
913.062
208.855
888.177
339.799
842.08
508.094
754.866
731.062
710.189
836.795
681.656
697.492
680.898
471.409
677.285
278.65
686.012
105.003
678.88
-70.0487
681.634
-230.607
668.278
-349.069
668.495
-443.126
677.286
-540.309
697.344
-633.799
721.058
-697.46
740.726
-748.148
763.173
-827.787
805.43
-941.531
860.025
-1028.27
917.612
-1057.84
971.164
-1051.51
1022.21
-1040.08
1074.25
-1025.73
1124.34
-998.883
1175.12
-955.848
1221.1
-902.487
1265.5
-847.528
1304.34
-792.886
1337.64
-739.602
1364.7
-698.293
1393
-678.426
1421.47
-681.473
1450.61
-695.011
1505.42
-699.575
1553
-691.98
1613
-666.881
1667.66
-635.757
1726.63
-595.639
1784.16
-555.403
1842.4
-508.402
1902.42
-457.042
1958.26
-398.468
2017.67
-334.982
2069.9
-263.442
2123.8
-189.725
2167.91
-114.868
2213.35
-42.9904
2247.68
26.6711
2281.96
92.5329
2304.93
154.353
2328.28
212.235
2341.31
267.013
2354.11
318.373
2356.68
363.062
2359.23
399.631
2352.75
427.73
2346.61
448.043
2332.99
460.632
2320.61
466.8
2302.43
466.779
2286.4
462.243
2266.14
454.4
2247.76
441.05
2224.68
417.763
2203.03
378.125
2179.5
322.41
2159.48
254.031
2139.89
175.898
2124.84
92.2707
2111.5
6.48846
2102.92
-77.8453
2096.56
-158.045
2094.37
-231.871
2094.08
-298.017
2096.69
-355.816
2100.29
-405.171
2105.41
-446.595
2110.88
-480.726
2116.9
-508.427
2122.65
-530.418
2128.16
-547.632
2133.13
-561.034
2137.63
-570.502
2141.78
-575.642
2144.54
-590.092
-562.678
502.37
-440.44
502.09
-678.062
526.629
-765.853
521.913
-749.652
585.128
-766.79
604.757
-818.979
679.06
-827.645
741.45
-989.22
818.24
-673.801
805.128
-216.441
811.229
26.7883
805.784
77.8824
808.542
109.896
792.06
224.412
765.079
367.333
717.179
568.824
633.898
822.499
609.398
885.664
601.306
720.28
612.495
483.12
611.931
292.197
619.593
122.406
610.412
-52.241
611.826
-210.581
597.548
-327.507
600.178
-430.454
613.857
-545.262
638.616
-652.279
662.385
-715.658
677.295
-759.198
695.479
-843.282
737.559
-976.566
792.728
-1077.92
847.975
-1107.83
896.117
-1094.64
941.306
-1079.98
988.907
-1067
1035.63
-1041.25
1083.8
-998.144
1127.38
-943.258
1168.8
-885.444
1203.1
-825.628
1229.88
-765.05
1249.26
-718.246
1270.76
-698.655
1294.1
-707.795
1319.21
-730.073
1372.16
-742.958
1419.06
-741.629
1479.14
-719.071
1533.7
-689.531
1592.62
-649.415
1649.52
-609.25
1706.85
-563.504
1766.76
-513.072
1821.79
-453.962
1881.28
-390.774
1934.17
-318.436
1989.84
-242.733
2036.22
-164.676
2084.77
-88.9794
2122.49
-14.6526
2160.7
56.2336
2187.82
123.396
2215.54
186.488
2233.07
246.123
2250.78
302.501
2258.69
352.158
2266.75
393.65
2265.94
426.193
2265.5
450.531
2257.62
466.593
2250.88
475.746
2238.34
477.988
2227.76
475.071
2213.22
468.172
2200.69
456.124
2183.75
434.796
2167.75
396.871
2149.33
341.518
2133.76
272.491
2118.05
192.745
2106.31
106.858
2095.83
18.3306
2089.6
-68.9326
2085.13
-152.142
2084.43
-228.812
2085.26
-297.47
2088.69
-357.257
2092.85
-408.038
2098.3
-450.445
2103.87
-485.155
2109.8
-513.1
2115.3
-534.948
2120.45
-551.851
2124.98
-564.799
2129.01
-573.914
2132.74
-578.87
2135.2
-592.194
-565.966
465.926
-445.65
469.201
-703.213
489.923
-788.405
478.452
-769.332
537.076
-794.536
553.296
-848.775
626.882
-856.955
687.374
-1021.67
755.616
-649.796
731.334
-161.134
729.333
90.0757
716.292
131.595
712.195
156.76
690.721
271.057
659.538
415.256
608.269
629.266
531.667
883.29
523.732
891.534
531.133
690.487
548.668
443.474
547.104
258.887
552.354
95.5946
542.148
-74.1672
543.959
-222.007
531.588
-332.721
539.915
-439.319
560.675
-567.438
589.811
-681.484
611.403
-734.596
620.313
-764.419
635.663
-854.672
678.723
-1009.78
732.839
-1122.33
783.083
-1146.79
824.986
-1123.63
865.874
-1105.14
911.462
-1094.71
956.757
-1070.4
1003.14
-1025.5
1043.83
-966.175
1080.65
-900.724
1108.28
-830.215
1126.47
-758.996
1136.87
-707.381
1152.12
-692.905
1173.07
-714.259
1197.59
-749.13
1251.02
-772.262
1298.35
-778.677
1359.25
-759.174
1413.56
-729.712
1471.59
-688.375
1526.77
-646.372
1581.33
-600.106
1640.27
-551.725
1694.52
-492.778
1753.85
-430.431
1807.05
-358.568
1864.23
-282.252
1912.68
-202.395
1964.28
-124.117
2005.43
-46.3829
2047.68
28.288
2079.2
99.4944
2111.63
166.505
2133.86
230.028
2156.51
290.041
2169.72
343.397
2183.22
388.55
2188.03
424.556
2193.15
451.917
2190.88
470.715
2189.58
482.002
2182.45
485.882
2176.92
483.937
2167.38
477.396
2159.65
465.65
2147.93
445.008
2136.81
407.97
2122.94
352.613
2111.35
282.642
2099.15
201.27
2090.36
113.108
2082.44
21.9785
2078.34
-68.053
2075.65
-153.937
2076.34
-233.076
2078.24
-303.777
2082.45
-365.043
2087.12
-416.746
2092.9
-459.569
2098.54
-494.273
2104.35
-521.793
2109.57
-542.951
2114.36
-558.921
2118.43
-570.868
2121.98
-579.02
2125.23
-583.303
2127.4
-595.13
-569.286
439.553
-433.641
439.077
-704.769
453.259
-795.044
434.29
-775.746
487.898
-817.164
501.352
-891.311
575.647
-908.102
637.014
-1114.25
698.82
-691.55
665.508
-141.601
656.428
120.503
635.88
157.487
624.055
182.223
596.987
293.66
558.795
453.962
504.342
702.19
441.149
959.145
449.459
908.499
466.588
691.042
485.039
451.044
479.366
280.431
483.007
120.675
473.121
-53.8715
477.344
-201.994
470.163
-317.362
487.358
-439.585
515.508
-586.348
546.522
-705.49
563.068
-744.85
566.757
-763.745
582.298
-867.356
626.037
-1046.2
676.278
-1166.93
720.636
-1185.66
758.659
-1156.57
799.261
-1140.46
846.354
-1135.54
891.994
-1111.91
936.173
-1063.86
971.953
-999.394
1001.37
-926.801
1019.9
-847.73
1028.35
-767.039
1030.91
-711.916
1043.67
-705.727
1067.93
-743.222
1098.84
-791.75
1157.76
-821.717
1208.1
-832.409
1270.95
-814.238
1325.58
-783.94
1382.43
-740.415
1435.65
-696.898
1486.47
-649.293
1541.52
-602.864
1592.63
-545.035
1648.9
-482.952
1699.68
-412.283
1755.98
-336.214
1804.58
-255.39
1857.69
-175.161
1901.1
-94.278
1946.46
-15.7659
1981.61
59.7382
2018.12
131.358
2044.61
199.566
2071.85
264.084
2089.88
321.911
2108.34
371.697
2118.27
411.971
2128.46
443.416
2131.26
465.825
2134.89
480.329
2132.62
486.763
2131.79
486.867
2126.92
481.533
2123.79
471.231
2116.84
452.137
2110.21
417.35
2100.42
363.27
2092.33
293.733
2083.16
211.831
2076.92
122.402
2071.18
29.3711
2068.91
-62.8444
2067.77
-151.056
2069.75
-232.402
2072.66
-305.002
2077.63
-367.722
2082.87
-420.427
2089.03
-463.843
2094.81
-498.684
2100.54
-526.026
2105.53
-546.785
2110.03
-562.309
2113.76
-573.712
2116.91
-581.42
2119.68
-585.507
2121.46
-596.502
-571.847
415.75
-442.128
410.437
-720.411
418.43
-804.027
392.719
-782.849
442.19
-835.412
452.205
-912.969
529.177
-934.489
590.882
-1143.64
644.509
-650.933
603.813
-69.385
590.661
198.192
566.02
223.936
548.018
242.177
515.714
349.417
469.635
513.386
408.935
770.592
361.262
992.292
383.545
878.952
406.799
642.201
423.009
410.676
413.254
253.151
417.378
94.77
409.734
-79.3485
417.578
-218.292
417.738
-335.052
444.791
-465.355
478.906
-620.007
508.164
-732.161
517.692
-748.566
518.811
-758.082
535.382
-877.634
575.748
-1074.45
619.87
-1198.88
662.034
-1213.37
702.917
-1181.19
749.208
-1167.43
800.919
-1165.9
847.046
-1138.61
886.905
-1081.04
914.581
-1005.62
933.982
-920.372
942.477
-828.625
943.049
-739.657
942.991
-688.611
960.408
-701.273
993.913
-762.542
1035.18
-828.046
1102.39
-864.351
1155.74
-875.571
1219.38
-856.755
1272.89
-822.908
1326.78
-774.725
1375.84
-727.12
1421.31
-676.131
1469.72
-629.424
1515.81
-574.194
1567.67
-513.218
1614.19
-444.686
1667.77
-370.65
1714.72
-290.837
1767.76
-210.511
1812.02
-128.367
1859.31
-47.8168
1897.08
30.2821
1936.74
104.85
1966.75
176.313
1997.89
243.664
2020.12
304.667
2042.96
357.607
2057.49