/*--------------------------------*- C++ -*----------------------------------*\
| =========                 |                                                 |
| \\      /  F ield         | OpenFOAM: The Open Source CFD Toolbox           |
|  \\    /   O peration     | Version:  4.1                                   |
|   \\  /    A nd           | Web:      www.OpenFOAM.org                      |
|    \\/     M anipulation  |                                                 |
\*---------------------------------------------------------------------------*/
FoamFile
{
    version     2.0;
    format      ascii;
    class       volVectorField;
    location    "11";
    object      U;
}
// * * * * * * * * * * * * * * * * * * * * * * * * * * * * * * * * * * * * * //

dimensions      [0 1 -1 0 0 0 0];

internalField   nonuniform List<vector> 
26785
(
(1.16354e-15 -0.0134711 14.2678)
(1.20092e-15 -0.00948045 14.5003)
(8.39065e-16 -0.00523987 14.6413)
(1.06678e-16 -0.00203231 14.6778)
(1.28762e-15 0.000474355 14.705)
(1.23998e-15 0.00095632 14.7197)
(1.74266e-15 0.00462436 14.6931)
(1.66109e-15 0.00747116 14.6292)
(4.42187e-16 0.0129235 14.4761)
(1.07822e-15 0.0159156 14.2671)
(1.62507e-15 0.0149851 14.0642)
(7.06917e-16 0.0120548 13.9409)
(7.30181e-16 0.0102005 13.8578)
(6.84774e-16 0.00884898 13.784)
(7.20533e-16 0.00655595 13.712)
(7.26202e-16 0.00292429 13.6888)
(7.38262e-16 -0.000896287 13.7209)
(6.64195e-16 -0.00488504 13.8111)
(6.70183e-16 -0.00848754 13.9552)
(5.18101e-16 -0.0109486 14.1297)
(4.66341e-16 -0.0114075 14.3065)
(3.13433e-16 -0.0108363 14.4744)
(3.36927e-16 -0.0100379 14.6267)
(3.9509e-16 -0.00922772 14.7673)
(8.26295e-16 -0.00765345 14.892)
(8.97046e-16 -0.00599779 14.9894)
(3.86558e-16 -0.00415355 15.073)
(7.73532e-16 -0.00256022 15.1343)
(9.56294e-16 -0.00126677 15.1769)
(-3.55322e-16 -0.000551748 15.2097)
(2.95251e-15 -0.000392542 15.2367)
(1.84878e-16 -0.00060569 15.2684)
(-2.67676e-16 -0.000521161 15.3057)
(-2.02464e-15 3.61948e-05 15.3397)
(-4.40802e-16 0.00101804 15.3674)
(1.01678e-15 0.00220062 15.386)
(2.77702e-16 0.00352067 15.395)
(8.03124e-17 0.00492458 15.3924)
(9.29012e-17 0.00613642 15.3789)
(3.79443e-16 0.00700035 15.3571)
(-7.74008e-16 0.00730371 15.331)
(-3.64657e-16 0.00705376 15.3067)
(-2.2693e-16 0.00633175 15.288)
(9.77843e-16 0.00530071 15.2777)
(2.38348e-16 0.00406578 15.2784)
(1.32841e-15 0.0029014 15.2855)
(5.19474e-16 0.00185962 15.2962)
(5.71492e-17 0.000775103 15.3201)
(1.58439e-17 0.000101834 15.3487)
(1.96546e-16 -0.000592757 15.3793)
(-6.52996e-16 -0.00107677 15.4142)
(1.10071e-16 -0.00157721 15.4495)
(1.69538e-16 -0.00202929 15.4875)
(3.29981e-16 -0.00242082 15.5257)
(2.71055e-16 -0.00284745 15.5661)
(1.91817e-16 -0.00321273 15.6063)
(1.58229e-15 -0.00363032 15.6477)
(6.43374e-16 -0.00397862 15.6895)
(4.27513e-16 -0.00442594 15.7322)
(1.32747e-15 -0.00481357 15.7751)
(2.37515e-16 -0.00522941 15.8189)
(2.00951e-16 -0.00553061 15.8632)
(6.18516e-17 -0.00580819 15.9073)
(2.83191e-16 -0.00596281 15.9509)
(8.30475e-16 -0.00606681 15.9936)
(5.16741e-16 -0.00609334 16.0353)
(5.18473e-16 -0.00610332 16.0756)
(5.66738e-16 -0.00605769 16.1144)
(5.58455e-16 -0.0059899 16.1516)
(4.61284e-16 -0.00588185 16.1874)
(4.20372e-16 -0.00577041 16.2213)
(1.00821e-15 -0.00561286 16.2535)
(6.94249e-16 -0.00544378 16.2837)
(7.61716e-16 -0.00524053 16.3122)
(6.19127e-16 -0.00504602 16.3386)
(3.93143e-16 -0.00487296 16.3632)
(1.09368e-15 -0.0047533 16.3863)
(1.0269e-15 -0.00469894 16.4084)
(1.02017e-15 -0.00471642 16.4297)
(1.01229e-15 -0.00478137 16.4507)
(1.08728e-15 -0.00487713 16.4715)
(1.08973e-15 -0.00496437 16.4924)
(1.00165e-15 -0.00502673 16.513)
(1.07746e-15 -0.00503489 16.5334)
(1.02276e-15 -0.00498973 16.5531)
(9.60529e-16 -0.00488095 16.572)
(1.02888e-15 -0.00472415 16.5896)
(1.15672e-15 -0.0045209 16.606)
(1.06449e-15 -0.00428934 16.6208)
(9.96931e-16 -0.00402967 16.634)
(1.08668e-15 -0.00375652 16.6454)
(1.13794e-15 -0.0034688 16.6551)
(1.16717e-15 -0.00317822 16.6629)
(1.19856e-15 -0.00287192 16.669)
(1.25483e-15 -0.00256188 16.6732)
(1.12841e-15 -0.00209907 16.675)
(1.23181e-15 -0.00194323 16.6749)
(1.28467e-15 -0.000251111 16.6714)
(1.31375e-15 -0.000887669 16.6634)
(1.33959e-15 -0.00228353 16.6552)
(1.24141e-15 -0.039039 15.3181)
(5.92612e-16 -0.0320808 15.6476)
(1.49121e-15 -0.0162291 15.8475)
(1.46393e-15 -0.00326695 15.9058)
(-4.35521e-16 0.00262393 15.9594)
(1.63077e-15 0.00438489 16.0036)
(8.67764e-16 0.0147761 16.0039)
(-2.12663e-16 0.0271052 15.9567)
(3.68957e-15 0.0455848 15.8063)
(1.96531e-15 0.0552146 15.6065)
(1.19707e-15 0.0483674 15.4374)
(1.43691e-15 0.037028 15.3686)
(1.37506e-15 0.0305921 15.3381)
(1.25605e-15 0.0262531 15.3147)
(3.51393e-15 0.0175314 15.3005)
(2.38705e-15 0.00410154 15.3509)
(9.75621e-16 -0.00919212 15.4624)
(1.45415e-15 -0.0213317 15.626)
(2.29414e-15 -0.0314806 15.8297)
(1.57952e-15 -0.037719 16.0481)
(1.3562e-15 -0.0380282 16.2552)
(1.87335e-15 -0.0356816 16.4444)
(2.48285e-15 -0.0324401 16.6112)
(2.7083e-15 -0.0291881 16.7599)
(1.83179e-15 -0.0236602 16.8875)
(2.46504e-15 -0.0178712 16.9838)
(2.6781e-15 -0.0117499 17.0646)
(2.08905e-15 -0.0065966 17.1225)
(1.3552e-15 -0.00257693 17.1617)
(-1.22503e-16 -0.000634764 17.1933)
(4.39736e-15 -0.000712597 17.2234)
(1.85277e-15 -0.0019027 17.2635)
(1.35948e-15 -0.00212395 17.3139)
(1.80755e-15 -0.000855751 17.3651)
(1.2339e-15 0.00172144 17.4133)
(1.18764e-15 0.00490402 17.4549)
(1.59261e-15 0.00835878 17.4886)
(1.60948e-15 0.0118892 17.5123)
(1.5926e-15 0.0147994 17.5265)
(1.76909e-15 0.0166463 17.533)
(2.34744e-15 0.0168908 17.5352)
(1.73348e-16 0.0156076 17.5378)
(9.9677e-16 0.0130832 17.5427)
(1.27772e-15 0.00986278 17.5509)
(1.62184e-15 0.0063452 17.5634)
(2.01398e-15 0.00325858 17.5746)
(3.5669e-15 0.000652913 17.5814)
(2.54095e-15 -0.001803 17.5926)
(3.00365e-15 -0.00322377 17.6004)
(1.45247e-15 -0.00455107 17.6031)
(3.74824e-15 -0.00535953 17.6029)
(2.68375e-15 -0.00616876 17.5967)
(2.47096e-15 -0.00687508 17.5872)
(3.56397e-15 -0.00746991 17.5721)
(1.29944e-15 -0.00815795 17.5538)
(1.99352e-15 -0.00875048 17.5302)
(3.63525e-15 -0.00943356 17.5031)
(2.73276e-15 -0.0100434 17.4721)
(1.56807e-15 -0.0108398 17.4377)
(2.41883e-15 -0.0115747 17.3998)
(2.49143e-15 -0.0123032 17.3595)
(3.30176e-15 -0.0128621 17.3169)
(2.29856e-15 -0.0132976 17.272)
(1.77261e-15 -0.0135276 17.225)
(2.45729e-15 -0.0135725 17.1762)
(2.51192e-15 -0.0135316 17.1262)
(2.43318e-15 -0.0133943 17.0749)
(2.36582e-15 -0.0132002 17.0229)
(3.29175e-15 -0.012888 16.9704)
(2.70877e-15 -0.0125453 16.9182)
(2.52134e-15 -0.012126 16.8659)
(2.61284e-15 -0.0116377 16.8142)
(2.01097e-15 -0.0110655 16.7631)
(2.34981e-15 -0.0104582 16.7132)
(2.34517e-15 -0.0098399 16.6643)
(1.77025e-15 -0.00931016 16.617)
(2.58509e-15 -0.00889101 16.5716)
(2.43256e-15 -0.00867915 16.5288)
(2.74971e-15 -0.0086351 16.4888)
(2.10672e-15 -0.00875887 16.4523)
(2.43701e-15 -0.0089491 16.4191)
(2.56872e-15 -0.00915652 16.3897)
(1.89342e-15 -0.0092843 16.3634)
(2.18526e-15 -0.00929486 16.34)
(2.29914e-15 -0.00914968 16.319)
(2.0844e-15 -0.0088508 16.3)
(2.44595e-15 -0.00841062 16.2822)
(2.32905e-15 -0.00785038 16.2653)
(2.33808e-15 -0.00720008 16.2487)
(2.41452e-15 -0.00647088 16.2322)
(2.51749e-15 -0.00568813 16.2153)
(2.52915e-15 -0.0048498 16.1978)
(2.62089e-15 -0.00397556 16.1792)
(2.35139e-15 -0.00304284 16.1594)
(2.53213e-15 -0.00208252 16.1381)
(2.62009e-15 -0.000696494 16.1145)
(2.58037e-15 0.000148112 16.0897)
(2.64069e-15 0.0034807 16.0569)
(2.68381e-15 0.00643641 16.0376)
(2.69768e-15 0.00259481 15.9536)
(1.55834e-15 -0.0633051 16.5299)
(5.11999e-16 -0.052423 16.8675)
(2.82065e-15 -0.0255905 17.0773)
(1.10538e-15 -0.00133919 17.1554)
(1.75561e-15 0.00567712 17.2359)
(2.32574e-15 0.0110105 17.313)
(2.02589e-15 0.0261809 17.3459)
(1.57393e-15 0.0484538 17.3286)
(1.90851e-15 0.0751742 17.226)
(2.14545e-15 0.0882769 17.1061)
(2.20203e-15 0.0731891 17.033)
(2.33118e-15 0.0550114 17.0448)
(2.54653e-15 0.0451749 17.073)
(2.42238e-15 0.0387753 17.0951)
(2.00998e-15 0.0238402 17.1218)
(2.86343e-15 0.00149207 17.2011)
(3.5814e-15 -0.0196002 17.3186)
(2.64623e-15 -0.0374294 17.4572)
(3.08071e-15 -0.0517158 17.6058)
(3.27269e-15 -0.0595855 17.7489)
(3.36501e-15 -0.0586235 17.8717)
(2.88255e-15 -0.0540234 17.9741)
(2.9281e-15 -0.0483257 18.0567)
(5.12615e-15 -0.0427882 18.1289)
(3.73441e-15 -0.0338352 18.1913)
(4.1436e-15 -0.0245741 18.2355)
(2.64596e-15 -0.0151544 18.275)
(2.49594e-15 -0.00725696 18.3013)
(3.18012e-15 -0.00126165 18.3159)
(3.04887e-15 0.00123396 18.3266)
(3.46436e-15 0.000254056 18.3376)
(2.5161e-15 -0.00258894 18.3591)
(1.22169e-15 -0.00391108 18.3914)
(3.89695e-15 -0.00278054 18.4242)
(3.62751e-15 0.0005278 18.4532)
(2.66123e-15 0.0049801 18.474)
(2.88449e-15 0.0100774 18.4843)
(2.8845e-15 0.0154501 18.4804)
(3.02721e-15 0.0201104 18.4606)
(3.06701e-15 0.0233891 18.4247)
(3.13069e-15 0.0246182 18.3735)
(3.25953e-15 0.0239252 18.3094)
(3.24536e-15 0.0218113 18.2327)
(3.2708e-15 0.0189837 18.1439)
(3.3623e-15 0.0159488 18.0448)
(3.43424e-15 0.0135021 17.9312)
(3.40754e-15 0.0118657 17.8027)
(3.34545e-15 0.0105746 17.6697)
(3.24344e-15 0.0102913 17.5253)
(3.19094e-15 0.0102976 17.3686)
(3.21968e-15 0.0107044 17.2033)
(3.27447e-15 0.0111957 17.0261)
(3.20354e-15 0.0116847 16.8407)
(3.02741e-15 0.012315 16.6441)
(2.78225e-15 0.0127647 16.4399)
(3.56783e-15 0.0131082 16.2253)
(2.46998e-15 0.013441 16.0039)
(1.48146e-15 0.0135088 15.774)
(2.51007e-15 0.0134905 15.538)
(2.13438e-15 0.0129976 15.2945)
(1.67105e-15 0.0127694 15.0472)
(1.97431e-15 0.0120533 14.7955)
(1.78608e-15 0.0117568 14.5416)
(1.46884e-15 0.0109182 14.2856)
(1.22782e-15 0.0106754 14.0301)
(1.72542e-15 0.00967371 13.7754)
(1.2005e-15 0.00914532 13.5235)
(2.11366e-15 0.00782916 13.2749)
(1.63678e-15 0.00706047 13.0319)
(1.50782e-15 0.00552032 12.7953)
(1.40468e-15 0.00445556 12.5666)
(1.17265e-15 0.00281895 12.3468)
(2.49533e-16 0.00168107 12.1373)
(7.23446e-16 5.07783e-05 11.9391)
(1.52281e-15 -0.00124942 11.7529)
(1.21144e-15 -0.00313068 11.5798)
(1.15875e-15 -0.00492092 11.421)
(1.12378e-15 -0.00742581 11.2775)
(1.0562e-15 -0.00996113 11.1501)
(1.02429e-15 -0.0130336 11.0397)
(9.8721e-16 -0.0159388 10.9464)
(1.07266e-15 -0.019001 10.8699)
(1.06779e-15 -0.0216199 10.8095)
(9.64159e-16 -0.0240378 10.7643)
(9.51485e-16 -0.0258594 10.7327)
(9.96495e-16 -0.0273137 10.7136)
(1.03236e-15 -0.0281927 10.7051)
(1.06986e-15 -0.028697 10.7061)
(1.18537e-15 -0.0287613 10.7148)
(1.43459e-15 -0.0285038 10.7302)
(1.09224e-15 -0.0278981 10.7509)
(1.15916e-15 -0.026988 10.7759)
(9.3257e-16 -0.0257885 10.8041)
(1.23497e-15 -0.0242736 10.8345)
(1.26142e-15 -0.0225031 10.8663)
(1.33861e-15 -0.0201485 10.8977)
(1.41397e-15 -0.0172209 10.9329)
(1.33478e-15 -0.0142324 10.9521)
(1.40019e-15 -0.00208313 11.0065)
(1.40859e-15 -0.00066387 10.9785)
(2.05784e-15 -0.0833622 17.7211)
(2.62893e-15 -0.0692145 18.0527)
(2.51333e-15 -0.0321437 18.2674)
(1.08137e-15 0.00144101 18.3617)
(1.9873e-15 0.00929361 18.4604)
(2.34881e-15 0.0172054 18.5543)
(1.32705e-15 0.03784 18.6018)
(2.43603e-15 0.0691237 18.6005)
(2.92992e-15 0.10294 18.5225)
(2.51765e-15 0.117554 18.4268)
(2.63448e-15 0.095114 18.3603)
(3.17314e-15 0.0716203 18.347)
(3.63696e-15 0.0600531 18.3248)
(1.71765e-15 0.0527041 18.277)
(2.53983e-15 0.0327691 18.2089)
(3.3917e-15 0.004123 18.1511)
(3.83941e-15 -0.0215779 18.0791)
(3.31107e-15 -0.0419207 17.9751)
(3.31809e-15 -0.0589384 17.8425)
(3.9543e-15 -0.0685473 17.6885)
(3.78884e-15 -0.067774 17.5155)
(3.86524e-15 -0.0631388 17.3323)
(3.74479e-15 -0.0585104 17.1498)
(3.66189e-15 -0.0550859 16.9934)
(3.57069e-15 -0.0475848 16.8732)
(3.64724e-15 -0.0390122 16.778)
(3.70651e-15 -0.0300049 16.7161)
(3.53343e-15 -0.0221451 16.6705)
(3.35396e-15 -0.0159717 16.6341)
(3.63796e-15 -0.0136673 16.6058)
(2.42114e-15 -0.015908 16.5823)
(4.03212e-15 -0.0206918 16.5729)
(2.17084e-15 -0.0232978 16.5794)
(3.31375e-15 -0.0221576 16.5911)
(5.0906e-15 -0.0176501 16.6036)
(2.96256e-15 -0.0111365 16.6126)
(2.28103e-15 -0.00306677 16.6152)
(4.76552e-15 0.00607559 16.6051)
(3.50379e-15 0.0151434 16.5774)
(2.53049e-15 0.0231799 16.5289)
(4.52709e-15 0.0294726 16.4583)
(3.6373e-15 0.0339645 16.3659)
(2.88032e-15 0.0371151 16.2509)
(4.65703e-15 0.0393916 16.114)
(4.24898e-15 0.0411661 15.9583)
(3.74424e-15 0.0428881 15.781)
(2.71301e-15 0.045383 15.5859)
(1.42446e-15 0.0483909 15.3837)
(2.11936e-15 0.0519007 15.1678)
(4.29166e-15 0.0559031 14.9349)
(3.27315e-15 0.0599168 14.6922)
(4.73308e-15 0.0642458 14.4323)
(1.70142e-15 0.0683723 14.1623)
(1.33523e-15 0.0727856 13.8757)
(3.75044e-16 0.0767849 13.579)
(2.91019e-16 0.0803232 13.2663)
(2.4525e-15 0.0838128 12.9446)
(-5.71604e-17 0.0865668 12.6097)
(6.25692e-16 0.0891581 12.2668)
(-1.84096e-15 0.090332 11.9122)
(7.49443e-17 0.091857 11.5531)
(2.41519e-16 0.0917382 11.1882)
(-8.56837e-16 0.0921379 10.8221)
(-2.66272e-16 0.0905298 10.4542)
(-7.71603e-16 0.0897781 10.0898)
(-1.87031e-15 0.0865348 9.72891)
(8.79649e-16 0.0839237 9.37487)
(1.60481e-15 0.0786144 9.02883)
(-1.55361e-15 0.0740752 8.69451)
(-1.53864e-15 0.0669611 8.3736)
(-1.35553e-15 0.0605953 8.06798)
(-3.06785e-15 0.0521891 7.77914)
(-1.14361e-15 0.0447336 7.50833)
(-1.76937e-15 0.03562 7.25641)
(-3.19816e-15 0.0272179 7.0232)
(-4.96759e-15 0.0171698 6.80971)
(-2.91363e-15 0.00740091 6.61675)
(-2.34303e-15 -0.00414108 6.44603)
(-3.66702e-15 -0.0155893 6.29847)
(-3.27573e-15 -0.0282515 6.17554)
(-3.03496e-15 -0.0402863 6.07754)
(-2.89041e-15 -0.0525561 6.00474)
(-2.57031e-15 -0.0635446 5.95586)
(-2.4904e-15 -0.0738938 5.9299)
(-2.4524e-15 -0.0826051 5.92466)
(-2.48498e-15 -0.0902591 5.93845)
(-2.87812e-15 -0.0963238 5.96866)
(-1.56476e-15 -0.101271 6.01349)
(-1.53629e-15 -0.104896 6.07055)
(-2.05284e-15 -0.107525 6.13825)
(-8.75601e-16 -0.109105 6.21454)
(-1.70815e-15 -0.109782 6.29807)
(-1.65417e-15 -0.109598 6.38715)
(-1.00748e-15 -0.108552 6.48056)
(-9.78759e-16 -0.106729 6.5772)
(-9.25322e-16 -0.104321 6.67444)
(-6.88873e-16 -0.0991871 6.77724)
(-4.47056e-16 -0.0967 6.86716)
(-4.3751e-16 -0.079856 6.97631)
(-4.17853e-16 -0.0613713 7.07885)
(2.26941e-15 -0.0989492 18.6932)
(2.88116e-15 -0.0842484 18.9834)
(2.81193e-15 -0.0383307 19.1741)
(3.26126e-15 0.0032531 19.2453)
(9.10902e-16 0.011853 19.3092)
(2.41483e-15 0.0216584 19.3642)
(3.58404e-15 0.0476673 19.3732)
(2.18629e-15 0.0865656 19.3438)
(2.19927e-15 0.128083 19.2357)
(2.94368e-15 0.145414 19.0804)
(3.57178e-15 0.118881 18.9052)
(2.76839e-15 0.0922843 18.7331)
(3.89254e-15 0.0807399 18.5204)
(1.92651e-15 0.0745446 18.2563)
(3.14745e-15 0.0539808 17.9252)
(5.09701e-15 0.0258104 17.5302)
(3.00178e-15 0.00249289 17.0333)
(3.38628e-15 -0.0144875 16.4263)
(3.03295e-15 -0.0327466 15.7462)
(2.79475e-15 -0.0454624 15.0434)
(2.44484e-15 -0.0488689 14.3482)
(2.48763e-15 -0.0492797 13.6806)
(2.34424e-15 -0.0543956 13.0681)
(2.02253e-15 -0.0635488 12.5634)
(1.97337e-15 -0.0692774 12.1912)
(2.46033e-15 -0.071311 11.9319)
(3.38936e-15 -0.0706701 11.7786)
(1.95427e-15 -0.0686402 11.6929)
(1.43834e-15 -0.0661068 11.6567)
(2.61358e-15 -0.0662923 11.6613)
(2.77608e-15 -0.0711937 11.6921)
(2.89997e-15 -0.0789233 11.753)
(2.92265e-15 -0.0836538 11.8444)
(2.60461e-15 -0.0829772 11.9523)
(1.70558e-15 -0.0777104 12.0707)
(3.82074e-15 -0.0696908 12.1952)
(2.87412e-15 -0.0588764 12.3227)
(2.82481e-15 -0.0455733 12.445)
(2.6219e-15 -0.0309757 12.5544)
(2.51695e-15 -0.0166046 12.6448)
(2.3661e-15 -0.00326793 12.7124)
(1.8985e-15 0.00862281 12.7569)
(3.33083e-15 0.0193707 12.7764)
(2.84234e-15 0.0289022 12.772)
(2.16528e-15 0.0373103 12.7477)
(1.8846e-15 0.044598 12.7004)
(1.6463e-15 0.0521326 12.6343)
(1.41575e-15 0.0608104 12.5635)
(7.42558e-16 0.0699225 12.4777)
(1.64706e-15 0.0798309 12.3727)
(5.56964e-16 0.0897489 12.255)
(2.59025e-15 0.100432 12.1149)
(1.77307e-16 0.110645 11.9578)
(-9.71352e-16 0.121047 11.7794)
(-4.83944e-16 0.130819 11.5865)
(-1.36901e-15 0.139935 11.3745)
(-2.68474e-15 0.148713 11.1496)
(-1.76062e-15 0.156665 10.9103)
(-1.56826e-16 0.164175 10.6597)
(-2.60496e-15 0.169952 10.3963)
(-1.63262e-15 0.175163 10.1252)
(-1.22611e-15 0.178047 9.8474)
(-3.24747e-15 0.180457 9.56556)
(-2.47906e-15 0.180581 9.28064)
(-2.31885e-15 0.180806 8.99496)
(-1.27203e-15 0.178428 8.70966)
(-2.90369e-15 0.175925 8.42471)
(-4.95194e-16 0.170499 8.14078)
(-3.74735e-15 0.164924 7.85875)
(-2.69564e-15 0.156012 7.58161)
(-4.68177e-15 0.146608 7.30976)
(-4.54469e-15 0.134493 7.04616)
(-3.68646e-15 0.122633 6.79125)
(-4.76011e-15 0.108878 6.54686)
(-6.88827e-15 0.0953676 6.31166)
(-5.32122e-15 0.0798641 6.08731)
(-2.73438e-15 0.0639388 5.87411)
(-3.82497e-15 0.045459 5.67503)
(-4.59955e-15 0.0261571 5.49158)
(-2.89307e-15 0.00485384 5.32718)
(-3.78934e-15 -0.0164025 5.18341)
(-3.36523e-15 -0.0381824 5.06252)
(-3.39098e-15 -0.0586743 4.96448)
(-3.11957e-15 -0.0782487 4.88977)
(-3.89466e-15 -0.0956792 4.83706)
(-2.44104e-15 -0.111418 4.80542)
(-2.53398e-15 -0.124863 4.79269)
(-2.40994e-15 -0.136468 4.79741)
(-2.4113e-15 -0.146016 4.81728)
(-1.55612e-15 -0.153849 4.85081)
(-1.90533e-15 -0.159949 4.89593)
(-1.70599e-15 -0.164477 4.95125)
(-1.2461e-15 -0.167536 5.01496)
(-1.87003e-15 -0.169185 5.08578)
(-1.73114e-15 -0.169477 5.16267)
(-1.81104e-15 -0.168866 5.24277)
(-1.21365e-15 -0.164768 5.32956)
(-1.28111e-15 -0.162678 5.41189)
(-1.33472e-15 -0.149547 5.49931)
(-1.14947e-15 -0.118632 5.61682)
(2.86658e-15 -0.115939 19.1936)
(2.02537e-15 -0.101836 19.3509)
(2.56034e-15 -0.047555 19.4463)
(3.37966e-15 0.0018643 19.4281)
(2.69109e-15 0.0118256 19.3977)
(2.94291e-15 0.0222258 19.3636)
(3.28987e-15 0.0526267 19.2899)
(2.9098e-15 0.0979128 19.2021)
(2.67908e-15 0.149649 19.0338)
(4.05801e-15 0.174364 18.761)
(5.00371e-15 0.150666 18.3762)
(1.83765e-15 0.125438 17.9233)
(2.21399e-15 0.116047 17.4061)
(2.99424e-15 0.114515 16.8367)
(3.04991e-15 0.100999 16.1537)
(3.14656e-15 0.0851612 15.3237)
(2.85095e-15 0.0759418 14.3003)
(2.42331e-15 0.0717299 13.1117)
(2.06474e-15 0.0535131 11.853)
(1.42677e-15 0.0331792 10.637)
(6.58297e-16 0.0164701 9.5228)
(-9.18981e-17 0.000421264 8.53694)
(-3.61144e-15 -0.0293475 7.71567)
(-3.92596e-15 -0.0679751 7.11644)
(2.74333e-15 -0.104499 6.74745)
(6.94162e-16 -0.130697 6.55896)
(-1.73219e-16 -0.14724 6.52019)
(6.8706e-17 -0.15657 6.5639)
(4.44451e-18 -0.162099 6.66532)
(4.49934e-15 -0.168412 6.81767)
(1.5383e-15 -0.178315 7.0013)
(1.29676e-15 -0.190329 7.21628)
(1.68581e-15 -0.198094 7.46031)
(1.08062e-15 -0.198446 7.71632)
(1.14882e-15 -0.192751 7.97825)
(1.58986e-15 -0.183334 8.24179)
(2.10774e-15 -0.16978 8.50399)
(7.70623e-16 -0.152297 8.75693)
(1.13975e-15 -0.131934 8.99448)
(8.21008e-16 -0.110743 9.21181)
(2.0031e-15 -0.0898178 9.40616)
(3.14088e-15 -0.0701601 9.57856)
(1.54103e-15 -0.051731 9.7284)
(2.43487e-15 -0.0350269 9.85807)
(1.74773e-15 -0.0199055 9.97187)
(8.5672e-16 -0.0065944 10.0643)
(4.40456e-16 0.00645048 10.1371)
(1.78604e-16 0.0212657 10.2077)
(-5.45778e-17 0.0368715 10.2636)
(-3.2259e-16 0.0539426 10.2998)
(-5.67197e-16 0.0712637 10.3176)
(-9.23362e-16 0.0895341 10.3109)
(-1.34071e-15 0.107913 10.2869)
(-1.55375e-15 0.126561 10.2383)
(-1.5674e-15 0.144318 10.1696)
(-1.59099e-15 0.161106 10.0755)
(-1.69566e-15 0.176979 9.96154)
(-1.68247e-15 0.191632 9.8273)
(-1.14015e-16 0.205158 9.67699)
(-1.90117e-15 0.216663 9.51021)
(-2.34516e-15 0.227089 9.33043)
(-4.22791e-15 0.235254 9.13746)
(-2.08942e-15 0.241921 8.93281)
(-1.91313e-15 0.245882 8.71785)
(-8.35703e-16 0.249044 8.49538)
(-1.23776e-15 0.249591 8.26776)
(-1.57514e-15 0.249277 8.03619)
(-2.59487e-15 0.24616 7.80294)
(-5.04459e-15 0.242224 7.56788)
(-5.64646e-15 0.235342 7.33253)
(-5.21836e-15 0.227616 7.09439)
(-4.11721e-15 0.217077 6.85537)
(-3.70835e-15 0.2054 6.61624)
(-4.78504e-15 0.191085 6.37996)
(-6.32965e-15 0.176218 6.14632)
(-1.77755e-15 0.158939 5.9177)
(-2.01042e-15 0.140277 5.6947)
(-9.14182e-16 0.118143 5.48065)
(-2.65244e-15 0.0938228 5.27732)
(-2.28452e-15 0.0663468 5.08884)
(-2.38928e-15 0.0377214 4.9175)
(-2.37917e-15 0.00780348 4.76647)
(-1.96835e-15 -0.0213978 4.63643)
(-9.3748e-16 -0.049825 4.52869)
(-1.18295e-15 -0.0760189 4.44256)
(-3.65733e-15 -0.100123 4.37762)
(-2.41305e-15 -0.121451 4.33189)
(-2.36401e-15 -0.140333 4.30414)
(-2.31355e-15 -0.156562 4.29224)
(-2.43866e-15 -0.170454 4.29478)
(-1.50966e-15 -0.181991 4.3099)
(-1.98121e-15 -0.191319 4.33642)
(-2.71746e-15 -0.198554 4.37264)
(-2.31015e-15 -0.203813 4.4173)
(-1.92276e-15 -0.207175 4.46942)
(-1.45843e-15 -0.209069 4.52674)
(-2.06606e-15 -0.207094 4.59164)
(-2.02311e-15 -0.205882 4.65742)
(-1.85945e-15 -0.197719 4.72271)
(-1.78081e-15 -0.160855 4.8335)
(2.94417e-15 -0.129792 18.841)
(3.06921e-15 -0.121706 18.8395)
(2.62711e-15 -0.0622353 18.826)
(4.09275e-15 -0.00630139 18.7047)
(2.25726e-15 0.0043554 18.5613)
(3.0723e-15 0.0126835 18.4092)
(3.6399e-15 0.0454752 18.219)
(2.96331e-15 0.0938547 18.0677)
(4.96566e-15 0.160778 17.8531)
(7.15126e-15 0.20456 17.4602)
(2.66955e-15 0.197689 16.838)
(2.55758e-15 0.181209 16.0905)
(2.89252e-15 0.175253 15.3007)
(3.00954e-15 0.182213 14.5259)
(2.82489e-15 0.184363 13.6325)
(4.0434e-15 0.192315 12.5733)
(3.69844e-15 0.207948 11.305)
(2.84742e-15 0.225101 9.9109)
(9.77453e-16 0.202525 8.55259)
(-8.24612e-16 0.16368 7.38086)
(-3.8944e-15 0.121934 6.42331)
(-4.84041e-15 0.0790792 5.67668)
(-5.20625e-15 0.0154872 5.1383)
(-4.62061e-15 -0.0577982 4.81587)
(-2.76997e-15 -0.125119 4.66965)
(-1.99622e-15 -0.17379 4.6333)
(-2.84847e-15 -0.205694 4.69682)
(-5.03502e-15 -0.225043 4.80512)
(5.48626e-16 -0.237838 4.94068)
(6.55611e-16 -0.250472 5.10443)
(1.04485e-15 -0.266482 5.28816)
(-3.63285e-16 -0.284321 5.50352)
(2.72983e-16 -0.296407 5.74927)
(1.00731e-15 -0.298574 6.00307)
(1.99688e-15 -0.293341 6.2559)
(5.95847e-16 -0.284027 6.50602)
(-3.70121e-16 -0.269577 6.75605)
(9.18619e-16 -0.249942 6.99814)
(1.73116e-15 -0.226271 7.22632)
(1.33723e-15 -0.201037 7.43809)
(1.91016e-15 -0.175502 7.63215)
(2.09471e-15 -0.15104 7.81135)
(3.80939e-15 -0.127679 7.97493)
(2.94086e-15 -0.106351 8.12436)
(1.84831e-15 -0.0868893 8.2641)
(1.421e-15 -0.0696213 8.38849)
(1.67666e-15 -0.0527109 8.49845)
(7.73923e-18 -0.0333368 8.61374)
(-4.07623e-16 -0.0126659 8.71974)
(-1.42369e-15 0.0104568 8.8109)
(-2.98765e-15 0.0348084 8.89457)
(-2.59688e-15 0.0603622 8.96078)
(-9.94516e-16 0.0859369 9.01449)
(1.0424e-15 0.112554 9.04792)
(1.26467e-15 0.138636 9.06277)
(1.29798e-15 0.163993 9.05158)
(1.01055e-15 0.187921 9.01755)
(-3.31043e-16 0.210282 8.95876)
(2.88178e-15 0.230736 8.87792)
(1.17599e-16 0.248714 8.77466)
(-2.61416e-16 0.264874 8.65543)
(-1.25286e-16 0.278598 8.52139)
(-6.22748e-16 0.290643 8.37185)
(-2.614e-15 0.299827 8.20654)
(-8.97249e-16 0.307053 8.02782)
(-2.23688e-15 0.3112 7.83809)
(1.08921e-15 0.31347 7.63867)
(8.24788e-16 0.312645 7.43208)
(-1.60107e-15 0.310228 7.22002)
(-4.8479e-15 0.304725 7.0063)
(-5.46757e-15 0.297915 6.79184)
(-1.69656e-15 0.288463 6.57676)
(-4.03409e-15 0.278233 6.35898)
(-1.4178e-15 0.265358 6.14027)
(-5.35642e-15 0.250498 5.92078)
(-5.12595e-15 0.232661 5.70398)
(-1.06996e-15 0.212517 5.49091)
(-6.10377e-16 0.188003 5.28513)
(-2.74466e-15 0.159979 5.08814)
(-2.83068e-15 0.127629 4.90381)
(-2.09442e-15 0.0929137 4.73413)
(-2.33454e-15 0.0561048 4.5821)
(-3.15562e-15 0.0193623 4.44827)
(-1.47225e-15 -0.0168187 4.33396)
(-2.76517e-15 -0.0508471 4.2386)
(-2.70165e-15 -0.0824673 4.16213)
(-2.78856e-15 -0.110912 4.10268)
(-3.17905e-15 -0.136404 4.05907)
(-2.86482e-15 -0.15877 4.02937)
(-2.74615e-15 -0.178282 4.01241)
(-1.98285e-15 -0.195 4.00643)
(-2.54041e-15 -0.209038 4.01054)
(-3.03602e-15 -0.22055 4.02343)
(-3.26479e-15 -0.229643 4.04419)
(-3.18023e-15 -0.236447 4.07201)
(-2.53602e-15 -0.241472 4.10512)
(-2.37218e-15 -0.242458 4.1454)
(-2.4249e-15 -0.243129 4.18966)
(-2.52321e-15 -0.241229 4.23021)
(-2.42164e-15 -0.202583 4.32198)
(3.60964e-15 -0.144525 17.8423)
(3.0844e-15 -0.148014 17.5914)
(3.81172e-15 -0.0879999 17.3864)
(3.41652e-15 -0.0273826 17.0874)
(2.73026e-15 -0.015323 16.7559)
(3.12166e-15 -0.010091 16.4159)
(2.37218e-15 0.0213081 16.0655)
(4.08123e-15 0.0665801 15.8879)
(4.17519e-15 0.153835 15.7373)
(2.59355e-15 0.232191 15.3759)
(2.82051e-15 0.257002 14.6988)
(2.80874e-15 0.254068 13.8846)
(3.11004e-15 0.248524 13.0707)
(3.22063e-15 0.257748 12.3482)
(2.66617e-15 0.274323 11.513)
(5.54484e-15 0.308369 10.56)
(5.46459e-15 0.35138 9.48778)
(2.12205e-15 0.381622 8.38612)
(-1.63886e-15 0.339779 7.39321)
(-6.09079e-15 0.271485 6.57049)
(-7.29912e-15 0.204698 5.89173)
(-7.40185e-15 0.13916 5.36294)
(-5.80508e-15 0.0543572 4.98189)
(-5.71417e-15 -0.0379259 4.75345)
(-4.36704e-15 -0.11805 4.63825)
(-2.53723e-15 -0.175732 4.57972)
(-4.47366e-15 -0.215007 4.58835)
(-1.79872e-16 -0.2407 4.62761)
(-1.23391e-15 -0.258345 4.69068)
(-4.4237e-16 -0.27653 4.78341)
(-9.78549e-16 -0.299927 4.89976)
(-3.98581e-16 -0.325756 5.05458)
(3.31399e-16 -0.343772 5.24457)
(1.02362e-15 -0.348859 5.44332)
(1.734e-15 -0.345198 5.64115)
(-9.2248e-16 -0.338026 5.83676)
(-8.43839e-16 -0.325655 6.03513)
(4.44928e-16 -0.306911 6.22997)
(4.60932e-16 -0.282982 6.41352)
(4.10497e-17 -0.256801 6.58223)
(1.70509e-16 -0.229997 6.73588)
(9.84101e-16 -0.204158 6.87915)
(3.01023e-15 -0.179353 7.01099)
(1.46813e-15 -0.156948 7.1328)
(7.07419e-16 -0.136999 7.24997)
(3.20101e-16 -0.119785 7.35694)
(2.60549e-16 -0.102977 7.4548)
(6.65219e-16 -0.0829488 7.56612)
(-2.60007e-15 -0.0610486 7.67441)
(-3.02905e-15 -0.0358403 7.77357)
(2.88814e-16 -0.00948964 7.86928)
(-1.4871e-15 0.0194302 7.95279)
(-2.56241e-16 0.0487827 8.02809)
(2.08741e-16 0.0805064 8.0894)
(5.97167e-16 0.112727 8.13906)
(-4.19154e-16 0.145433 8.16836)
(3.12063e-16 0.17717 8.17812)
(5.39582e-16 0.207585 8.16484)
(1.06807e-15 0.235737 8.12997)
(-1.25569e-15 0.2609 8.07245)
(5.38729e-16 0.283216 7.99533)
(5.78689e-16 0.302806 7.90208)
(3.2361e-16 0.320452 7.79514)
(-1.7172e-17 0.335603 7.67271)
(-4.42956e-16 0.348462 7.53501)
(-6.83249e-16 0.357607 7.38373)
(6.09014e-16 0.364037 7.22014)
(-2.9369e-16 0.366857 7.04698)
(-2.93392e-15 0.367041 6.86594)
(-3.7862e-15 0.363532 6.68034)
(-5.50213e-15 0.358042 6.49092)
(-3.64637e-15 0.350017 6.30217)
(-3.8123e-15 0.340967 6.11481)
(-3.94958e-15 0.329571 5.9268)
(-3.18089e-15 0.316772 5.73577)
(-6.25727e-15 0.299495 5.54493)
(-7.58006e-15 0.27889 5.35572)
(-6.08863e-15 0.25307 5.17187)
(-3.8096e-15 0.222581 4.99472)
(-3.54744e-15 0.186805 4.82768)
(-3.23911e-15 0.147621 4.67227)
(-3.95736e-15 0.105686 4.53115)
(-4.368e-15 0.063219 4.4047)
(-4.18371e-15 0.0211165 4.29419)
(-3.22465e-15 -0.0189671 4.19914)
(-2.77164e-15 -0.0564952 4.11972)
(-2.98287e-15 -0.0905615 4.05452)
(-3.00155e-15 -0.121205 4.00257)
(-3.17852e-15 -0.148369 3.96198)
(-2.10297e-15 -0.172266 3.93177)
(-2.50151e-15 -0.193043 3.91037)
(-3.48925e-15 -0.21086 3.89699)
(-3.26264e-15 -0.225895 3.89053)
(-2.81543e-15 -0.238309 3.89039)
(-2.46564e-15 -0.248212 3.89603)
(-2.25654e-15 -0.25609 3.90627)
(-2.4079e-15 -0.260098 3.92224)
(-2.68615e-15 -0.262909 3.94328)
(-2.60261e-15 -0.26736 3.95849)
(-2.61518e-15 -0.230756 4.02048)
(4.50598e-15 -0.156231 16.0761)
(2.56726e-15 -0.177253 15.3579)
(3.58978e-15 -0.12482 14.8095)
(4.17065e-15 -0.0634919 14.2647)
(3.28529e-15 -0.0493143 13.7504)
(3.28948e-15 -0.0496928 13.2777)
(3.13665e-15 -0.0275083 12.8531)
(2.35948e-15 0.00160614 12.7859)
(4.41369e-15 0.109137 12.8891)
(5.92789e-16 0.229234 12.7671)
(1.54859e-15 0.289445 12.2856)
(3.17191e-15 0.299262 11.685)
(3.14708e-15 0.293778 11.0584)
(3.81893e-15 0.311555 10.4122)
(4.23048e-15 0.344019 9.65876)
(4.45982e-15 0.388778 8.92328)
(4.42541e-15 0.442882 8.20969)
(4.79044e-15 0.478009 7.48029)
(-5.31933e-15 0.43099 6.74425)
(-7.7053e-15 0.351308 6.07732)
(-8.67703e-15 0.272913 5.50249)
(-5.88547e-15 0.192004 5.05594)
(-1.01679e-14 0.0905693 4.73521)
(-9.62586e-16 -0.0175821 4.54168)
(-7.74612e-15 -0.108195 4.43792)
(-3.35371e-16 -0.172818 4.36935)
(-5.70012e-15 -0.217629 4.35168)
(2.88637e-15 -0.249327 4.35938)
(-2.5579e-16 -0.272533 4.39342)
(-7.08296e-16 -0.296481 4.45767)
(1.85282e-15 -0.327039 4.54289)
(-1.29599e-15 -0.360679 4.66615)
(3.88986e-15 -0.384073 4.82644)
(1.95149e-15 -0.391379 4.99745)
(2.14999e-16 -0.388506 5.16909)
(-8.18634e-16 -0.382581 5.33806)
(-2.9293e-15 -0.371596 5.50815)
(-8.19912e-16 -0.353223 5.67427)
(-6.85323e-16 -0.328341 5.82991)
(-1.83457e-15 -0.300435 5.9714)
(-1.99165e-15 -0.271965 6.09796)
(-2.59955e-15 -0.244702 6.21438)
(-3.89857e-17 -0.218508 6.32041)
(-9.45129e-16 -0.195413 6.41765)
(-1.57931e-15 -0.1758 6.51211)
(-1.60454e-15 -0.159619 6.59916)
(-1.76209e-15 -0.144061 6.68082)
(-2.12041e-15 -0.124682 6.78203)
(-2.39318e-15 -0.102731 6.88441)
(-2.53987e-15 -0.0763674 6.98137)
(-2.44502e-15 -0.0488127 7.0777)
(-2.34284e-15 -0.017516 7.16549)
(-2.3988e-15 0.0143732 7.24861)
(-2.34834e-15 0.0488931 7.31984)
(-2.3799e-15 0.0845864 7.38372)
(-2.49125e-15 0.12214 7.43306)
(-4.34624e-16 0.159633 7.46789)
(-1.638e-15 0.196521 7.48353)
(1.27973e-16 0.231177 7.47996)
(-1.41657e-15 0.263081 7.45544)
(-1.88519e-15 0.291706 7.41245)
(-1.35205e-15 0.316822 7.35139)
(-3.40484e-15 0.339573 7.27551)
(-2.74101e-15 0.36003 7.18701)
(-1.09273e-15 0.378454 7.08448)
(-3.57353e-15 0.393273 6.9679)
(-2.27342e-15 0.404505 6.83771)
(-3.17692e-15 0.411611 6.69667)
(-5.4227e-15 0.415225 6.54632)
(-6.4267e-15 0.414609 6.39008)
(-6.76426e-15 0.410948 6.22853)
(-4.88013e-15 0.404055 6.06496)
(-5.87619e-15 0.3958 5.90086)
(-3.07509e-15 0.385557 5.74105)
(-3.47495e-15 0.373601 5.57925)
(-1.01068e-14 0.35822 5.41586)
(-6.58939e-15 0.338015 5.25161)
(-5.93351e-15 0.311657 5.09023)
(-5.89809e-15 0.279518 4.93307)
(-2.46601e-15 0.241187 4.78344)
(-1.71192e-15 0.198499 4.64274)
(-5.95748e-15 0.152452 4.51347)
(-4.62381e-15 0.10531 4.39609)
(-3.29824e-15 0.0583267 4.29196)
(-2.23352e-15 0.0132488 4.20073)
(-3.65292e-15 -0.0291387 4.12268)
(-2.13417e-15 -0.067898 4.05663)
(-2.0558e-15 -0.102792 4.00197)
(-1.85522e-15 -0.13377 3.95701)
(-1.75931e-15 -0.161075 3.92066)
(-1.56324e-15 -0.184908 3.89136)
(-8.87352e-16 -0.205472 3.86828)
(-2.55994e-15 -0.22306 3.85027)
(-1.59502e-15 -0.237862 3.83684)
(-1.29718e-15 -0.250098 3.82753)
(-1.87235e-15 -0.2602 3.82163)
(-1.49589e-15 -0.266616 3.81984)
(-2.02798e-15 -0.271108 3.82292)