/*--------------------------------*- C++ -*----------------------------------*\
| =========                 |                                                 |
| \\      /  F ield         | OpenFOAM: The Open Source CFD Toolbox           |
|  \\    /   O peration     | Version:  4.1                                   |
|   \\  /    A nd           | Web:      www.OpenFOAM.org                      |
|    \\/     M anipulation  |                                                 |
\*---------------------------------------------------------------------------*/
FoamFile
{
    version     2.0;
    format      ascii;
    class       volScalarField;
    location    "9";
    object      p;
}
// * * * * * * * * * * * * * * * * * * * * * * * * * * * * * * * * * * * * * //

dimensions      [0 2 -2 0 0 0 0];

internalField   nonuniform List<scalar> 
26785
(
0.277773
0.265044
0.252983
0.24163
0.230911
0.220792
0.211187
0.202074
0.193399
0.185131
0.17723
0.169671
0.162442
0.155519
0.148891
0.142527
0.136416
0.130545
0.124913
0.119508
0.114324
0.109346
0.10457
0.0999893
0.0955933
0.0913755
0.0873249
0.0834406
0.0797128
0.0761428
0.0727151
0.0694285
0.0662742
0.0632535
0.0603547
0.0575733
0.0548986
0.0523297
0.0498666
0.0475137
0.0452708
0.0431362
0.0411042
0.0391683
0.037321
0.035556
0.0338678
0.0322519
0.0307042
0.0292221
0.0278033
0.0264455
0.0251458
0.023901
0.0227091
0.021569
0.0204799
0.0194408
0.0184493
0.0175018
0.0165951
0.0157275
0.0148994
0.0141124
0.0133679
0.0126656
0.0120036
0.0113789
0.0107881
0.010228
0.00969585
0.00918921
0.00870635
0.00824585
0.00780537
0.00738318
0.00697895
0.00659253
0.00622307
0.00586893
0.00552778
0.00519684
0.00487323
0.00455442
0.00423888
0.00392649
0.00361873
0.0033182
0.00302768
0.00274912
0.00248289
0.00222745
0.0019796
0.00173517
0.00148981
0.00123973
0.000981358
0.000713159
0.00043499
0.00014768
0.277769
0.265038
0.252976
0.241623
0.230904
0.220785
0.211181
0.202068
0.193394
0.185126
0.177225
0.169666
0.162437
0.155515
0.148886
0.142522
0.136412
0.13054
0.124909
0.119504
0.114319
0.109341
0.104566
0.0999848
0.0955887
0.0913708
0.0873201
0.083436
0.0797083
0.0761384
0.0727106
0.069424
0.0662698
0.0632494
0.0603507
0.0575692
0.0548943
0.0523253
0.0498621
0.0475092
0.0452663
0.0431318
0.0411
0.0391643
0.0373172
0.0355524
0.0338643
0.0322483
0.0307005
0.0292183
0.0277997
0.0264422
0.0251426
0.0238979
0.022706
0.0215658
0.0204767
0.0194377
0.0184462
0.0174987
0.0165919
0.0157242
0.0148961
0.0141091
0.0133646
0.0126624
0.0120005
0.0113758
0.0107851
0.0102252
0.00969304
0.00918634
0.00870333
0.00824271
0.00780216
0.00738001
0.00697588
0.00658959
0.00622028
0.00586632
0.00552533
0.00519453
0.00487098
0.00455215
0.00423649
0.00392398
0.00361617
0.00331572
0.00302542
0.00274722
0.00248143
0.00222645
0.00197902
0.0017349
0.00148972
0.00123964
0.000981198
0.000712898
0.000434637
0.00014744
0.27776
0.265026
0.252963
0.24161
0.230892
0.220773
0.211169
0.202057
0.193384
0.185115
0.177215
0.169656
0.162428
0.155505
0.148877
0.142512
0.136402
0.130531
0.1249
0.119495
0.11431
0.109332
0.104556
0.0999755
0.0955794
0.0913614
0.0873105
0.0834267
0.0796992
0.0761295
0.0727018
0.0694152
0.0662611
0.063241
0.0603425
0.0575609
0.0548859
0.0523168
0.0498535
0.0475007
0.0452578
0.0431233
0.0410917
0.0391563
0.0373096
0.0355451
0.033857
0.0322409
0.030693
0.0292109
0.0277927
0.0264357
0.0251365
0.0238918
0.0226998
0.0215596
0.0204704
0.0194313
0.0184397
0.0174923
0.0165856
0.015718
0.0148899
0.014103
0.0133584
0.0126562
0.0119943
0.0113698
0.0107792
0.0102193
0.00968724
0.0091805
0.00869735
0.00823664
0.0077961
0.0073741
0.00697013
0.00658398
0.00621481
0.00586095
0.00552006
0.0051893
0.00486578
0.004547
0.00423145
0.00391915
0.00361167
0.00331168
0.00302195
0.00274435
0.00247914
0.00222467
0.00197763
0.00173374
0.00148865
0.00123861
0.000980153
0.000711907
0.000433833
0.000147049
0.277746
0.265008
0.252944
0.241591
0.230873
0.220755
0.211152
0.202041
0.193368
0.1851
0.1772
0.169641
0.162413
0.155491
0.148863
0.142498
0.136388
0.130517
0.124886
0.119481
0.114296
0.109318
0.104542
0.0999615
0.0955654
0.0913473
0.0872963
0.0834129
0.0796856
0.0761161
0.0726885
0.0694021
0.0662482
0.0632284
0.06033
0.0575484
0.0548733
0.0523041
0.0498408
0.047488
0.0452451
0.0431107
0.0410793
0.0391445
0.0372984
0.0355342
0.0338461
0.0322297
0.0306817
0.0291999
0.0277822
0.026426
0.0251272
0.0238826
0.0226906
0.0215503
0.0204609
0.0194215
0.0184299
0.0174826
0.0165761
0.0157087
0.0148808
0.0140938
0.0133492
0.0126469
0.0119851
0.0113606
0.0107702
0.0102105
0.0096785
0.00917173
0.00868845
0.00822764
0.00778719
0.00736538
0.0069616
0.00657561
0.00620656
0.00585279
0.00551195
0.00518121
0.00485775
0.00453912
0.00422385
0.00391202
0.0036052
0.00330599
0.0030171
0.00274031
0.00247581
0.00222193
0.00197533
0.00173171
0.00148677
0.00123678
0.00097846
0.000710428
0.000432717
0.000146555
0.277728
0.264984
0.252918
0.241564
0.230847
0.220731
0.211129
0.202019
0.193347
0.185079
0.177179
0.169621
0.162393
0.155472
0.148844
0.142479
0.136369
0.130498
0.124867
0.119463
0.114278
0.1093
0.104524
0.0999428
0.0955467
0.0913284
0.0872774
0.0833943
0.0796675
0.0760981
0.0726708
0.0693846
0.066231
0.0632114
0.0603133
0.0575316
0.0548566
0.0522874
0.0498241
0.0474712
0.0452282
0.0430937
0.0410628
0.0391287
0.0372833
0.0355196
0.0338314
0.0322147
0.0306666
0.0291851
0.0277684
0.026413
0.0251149
0.0238705
0.0226784
0.0215379
0.0204482
0.0194085
0.0184168
0.0174697
0.0165635
0.0156964
0.0148686
0.0140816
0.0133369
0.0126345
0.0119727
0.0113484
0.0107582
0.0101987
0.00966685
0.00916009
0.0086767
0.00821575
0.00777542
0.00735383
0.00695023
0.00656439
0.00619545
0.00584177
0.00550098
0.00517028
0.00484692
0.00452857
0.00421381
0.00390269
0.00359677
0.00329859
0.00301074
0.00273495
0.00247134
0.00221818
0.00197212
0.00172886
0.00148418
0.00123436
0.00097619
0.000708496
0.000431351
0.000145989
0.277706
0.264954
0.252885
0.241532
0.230816
0.2207
0.2111
0.201991
0.19332
0.185053
0.177154
0.169595
0.162369
0.155448
0.14882
0.142455
0.136346
0.130475
0.124844
0.11944
0.114255
0.109276
0.1045
0.0999194
0.0955233
0.0913048
0.0872538
0.0833712
0.0796449
0.0760757
0.0726487
0.0693628
0.0662094
0.0631903
0.0602924
0.0575107
0.0548357
0.0522665
0.0498032
0.0474503
0.0452071
0.0430726
0.0410421
0.0391089
0.0372645
0.0355012
0.033813
0.032196
0.0306478
0.0291668
0.027751
0.0263969
0.0250995
0.0238552
0.0226631
0.0215224
0.0204323
0.0193922
0.0184004
0.0174534
0.0165477
0.0156811
0.0148535
0.0140664
0.0133215
0.0126189
0.0119572
0.0113331
0.0107432
0.010184
0.00965234
0.00914564
0.00866217
0.00820105
0.00776083
0.00733943
0.00693598
0.00655026
0.00618142
0.00582784
0.00548714
0.00515652
0.00483335
0.00451544
0.00420136
0.00389114
0.00358633
0.00328939
0.00300281
0.00272821
0.00246565
0.00221339
0.00196804
0.00172529
0.00148095
0.00123137
0.000973485
0.000706221
0.000429768
0.000145365
0.277679
0.264918
0.252846
0.241492
0.230778
0.220664
0.211066
0.201958
0.193288
0.185022
0.177123
0.169565
0.16234
0.155419
0.148792
0.142427
0.136317
0.130447
0.124817
0.119412
0.114227
0.109249
0.104473
0.0998914
0.0954951
0.0912764
0.0872256
0.0833434
0.0796176
0.0760487
0.0726221
0.0693366
0.0661836
0.0631648
0.0602672
0.0574856
0.0548107
0.0522416
0.0497783
0.0474252
0.0451818
0.0430472
0.0410173
0.0390851
0.0372417
0.035479
0.0337907
0.0321734
0.0306251
0.0291447
0.0277303
0.0263776
0.025081
0.0238368
0.0226447
0.0215039
0.0204132
0.0193725
0.0183806
0.0174339
0.0165288
0.0156627
0.0148353
0.0140481
0.0133028
0.0126002
0.0119385
0.0113147
0.0107252
0.0101663
0.00963499
0.00912844
0.00864491
0.00818361
0.00774345
0.00732215
0.00691877
0.00653313
0.00616441
0.00581096
0.00547039
0.00513993
0.0048171
0.00449973
0.00418645
0.00387733
0.00357384
0.00327835
0.00299324
0.00272005
0.00245877
0.00220761
0.00196314
0.00172105
0.00147719
0.00122795
0.000970429
0.000703674
0.000428028
0.000144705
0.277649
0.264875
0.2528
0.241446
0.230734
0.220621
0.211025
0.201919
0.193251
0.184985
0.177087
0.16953
0.162306
0.155385
0.148758
0.142394
0.136285
0.130414
0.124784
0.11938
0.114195
0.109216
0.10444
0.0998587
0.0954623
0.0912435
0.0871928
0.083311
0.0795858
0.0760173
0.0725911
0.069306
0.0661535
0.063135
0.0602378
0.0574563
0.0547817
0.0522127
0.0497493
0.047396
0.0451523
0.0430176
0.0409882
0.0390573
0.0372151
0.0354531
0.0337647
0.032147
0.0305987
0.029119
0.0277061
0.026355
0.0250594
0.0238153
0.0226233
0.0214823
0.0203909
0.0193495
0.0183573
0.0174111
0.0165067
0.0156412
0.014814
0.0140265
0.013281
0.0125782
0.0119167
0.0112933
0.0107042
0.0101459
0.00961484
0.00910849
0.00862498
0.00816351
0.00772328
0.00730196
0.00689856
0.00651295
0.00614434
0.00579109
0.00545076
0.00512057
0.00479816
0.00448144
0.00416912
0.00386126
0.00355929
0.00326546
0.00298205
0.00271051
0.00245074
0.00220089
0.00195749
0.0017162
0.0014729
0.0012241
0.000967031
0.000700897
0.000426181
0.000144021
0.277614
0.264827
0.252748
0.241394
0.230683
0.220572
0.210979
0.201875
0.193209
0.184944
0.177047
0.16949
0.162267
0.155347
0.14872
0.142356
0.136247
0.130377
0.124748
0.119343
0.114158
0.109179
0.104403
0.0998214
0.0954248
0.0912058
0.0871552
0.0832739
0.0795494
0.0759812
0.0725556
0.069271
0.066119
0.063101
0.0602042
0.0574229
0.0547485
0.0521797
0.0497163
0.0473627
0.0451186
0.0429837
0.0409549
0.0390253
0.0371845
0.0354233
0.0337349
0.0321169
0.0305685
0.0290897
0.0276784
0.0263293
0.0250347
0.0237906
0.0225987
0.0214576
0.0203653
0.019323
0.0183306
0.0173848
0.0164812
0.0156164
0.0147895
0.0140018
0.013256
0.0125531
0.0118918
0.0112688
0.0106804
0.0101226
0.00959195
0.00908584
0.00860239
0.00814076
0.00770029
0.00727879
0.00687527
0.00648964
0.00612118
0.00576822
0.00542825
0.00509846
0.00477657
0.00446062
0.00414941
0.003843
0.00354274
0.00325078
0.00296929
0.00269963
0.00244161
0.00219329
0.00195096
0.00171051
0.00146803
0.0012199
0.000963413
0.000697984
0.000424261
0.000143313
0.277574
0.264772
0.252688
0.241335
0.230626
0.220518
0.210928
0.201826
0.193161
0.184897
0.177001
0.169445
0.162223
0.155304
0.148678
0.142313
0.136205
0.130335
0.124706
0.119301
0.114116
0.109138
0.104362
0.0997795
0.0953827
0.0911634
0.0871131
0.0832322
0.0795085
0.0759407
0.0725156
0.0692316
0.0660801
0.0630626
0.0601663
0.0573854
0.0547112
0.0521426
0.0496792
0.0473252
0.0450808
0.0429456
0.0409174
0.0389893
0.03715
0.0353896
0.0337014
0.032083
0.0305346
0.0290567
0.0276474
0.0263003
0.0250067
0.0237625
0.022571
0.0214296
0.0203363
0.0192931
0.0183004
0.0173551
0.0164524
0.0155883
0.0147617
0.0139739
0.0132278
0.0125249
0.0118639
0.0112415
0.0106537
0.0100965
0.00956641
0.00906055
0.00857713
0.0081153
0.00767442
0.00725258
0.00684882
0.00646315
0.00609489
0.00574235
0.00540292
0.00507366
0.00475239
0.00443736
0.00412744
0.00382266
0.00352429
0.00323441
0.00295507
0.00268752
0.00243127
0.0021843
0.00194334
0.0017042
0.00146275
0.00121539
0.000959562
0.000694894
0.000422223
0.000142557
0.277531
0.264711
0.252623
0.241269
0.230563
0.220457
0.210871
0.201771
0.193108
0.184845
0.17695
0.169395
0.162174
0.155256
0.14863
0.142266
0.136158
0.130289
0.12466
0.119255
0.11407
0.109092
0.104315
0.0997329
0.0953358
0.0911164
0.0870663
0.0831859
0.0794629
0.0758957
0.0724712
0.0691877
0.066037
0.0630199
0.0601241
0.0573436
0.0546698
0.0521014
0.049638
0.0472837
0.0450387
0.0429034
0.0408757
0.0389491
0.0371114
0.0353521
0.0336641
0.0320454
0.030497
0.0290201
0.0276128
0.0262679
0.0249755
0.0237311
0.02254
0.0213983
0.0203038
0.0192596
0.0182667
0.0173219
0.0164201
0.0155568
0.0147305
0.0139428
0.0131966
0.0124937
0.0118331
0.0112114
0.0106243
0.0100678
0.00953826
0.00903269
0.00854925
0.00808713
0.00764558
0.00722318
0.00681911
0.0064334
0.00606544
0.0057135
0.00537482
0.00504622
0.00472573
0.0044118
0.00410336
0.00380041
0.00350413
0.00321646
0.00293932
0.00267375
0.0024194
0.00217432
0.00193508
0.00169736
0.00145699
0.00121043
0.0009553
0.00069148
0.000419967
0.000141711
0.277485
0.264643
0.25255
0.241196
0.230493
0.220391
0.210808
0.20171
0.19305
0.184788
0.176894
0.169341
0.16212
0.155203
0.148578
0.142214
0.136107
0.130238
0.124609
0.119205
0.11402
0.109041
0.104265
0.0996818
0.0952844
0.0910646
0.0870148
0.083135
0.0794128
0.0758462
0.0724223
0.0691395
0.0659895
0.0629729
0.0600777
0.0572977
0.0546243
0.0520561
0.0495926
0.0472379
0.0449925
0.0428569
0.0408298
0.0389047
0.0370689
0.0353108
0.0336232
0.0320042
0.0304558
0.02898
0.0275748
0.0262321
0.0249407
0.0236961
0.0225056
0.0213635
0.0202678
0.0192226
0.0182294
0.0172852
0.0163843
0.0155219
0.0146961
0.0139085
0.0131624
0.0124597
0.0117995
0.0111785
0.0105922
0.0100365
0.00950756
0.00900228
0.00851877
0.00805621
0.00761377
0.0071906
0.00678608
0.00640032
0.00603277
0.00568166
0.005344
0.00501619
0.00469661
0.00438398
0.00407726
0.00377633
0.00348224
0.00319685
0.00292201
0.00265875
0.00240665
0.00216365
0.0019262
0.00168987
0.00145051
0.00120472
0.000950356
0.000687554
0.000417392
0.000140746
0.277434
0.264569
0.252471
0.241117
0.230418
0.220318
0.210739
0.201644
0.192986
0.184725
0.176833
0.169281
0.162062
0.155146
0.148521
0.142158
0.13605
0.130182
0.124554
0.119149
0.113965
0.108986
0.104209
0.099626
0.0952282
0.0910082
0.0869587
0.0830794
0.0793581
0.0757922
0.0723691
0.069087
0.0659377
0.0629215
0.0600269
0.0572476
0.0545746
0.0520066
0.0495432
0.0471881
0.044942
0.0428062
0.0407798
0.0388563
0.0370225
0.0352658
0.0335786
0.0319595
0.0304111
0.0289364
0.0275332
0.0261926
0.0249022
0.0236574
0.0224675
0.021325
0.0202281
0.0191819
0.0181885
0.0172448
0.0163448
0.0154835
0.0146584
0.0138712
0.0131253
0.0124228
0.0117632
0.0111429
0.0105575
0.0100026
0.00947428
0.00896927
0.00848562
0.00802244
0.00757889
0.00715479
0.00674974
0.00636395
0.00599693
0.0056469
0.00531054
0.00498364
0.00466512
0.00435401
0.00404923
0.00375051
0.00345879
0.00317586
0.00290354
0.00264279
0.00239309
0.00215224
0.00191651
0.00168144
0.00144296
0.00119792
0.000944476
0.000682976
0.000414457
0.00013966
0.27738
0.264488
0.252384
0.241032
0.230336
0.220239
0.210665
0.201573
0.192918
0.184658
0.176767
0.169216
0.161999
0.155084
0.148459
0.142096
0.13599
0.130121
0.124494
0.11909
0.113905
0.108926
0.104149
0.0995656
0.0951674
0.0909471
0.086898
0.0830193
0.0792988
0.0757339
0.0723115
0.0690301
0.0658816
0.0628659
0.0599718
0.0571931
0.0545206
0.0519529
0.0494895
0.047134
0.0448874
0.0427514
0.0407256
0.0388039
0.0369722
0.0352171
0.0335305
0.0319113
0.030363
0.0288893
0.027488
0.0261493
0.0248598
0.0236149
0.0224256
0.0212826
0.0201846
0.0191375
0.018144
0.0172008
0.0163018
0.0154415
0.0146174
0.0138308
0.0130853
0.0123833
0.0117242
0.0111047
0.0105201
0.00996611
0.00943837
0.00893356
0.00844963
0.00798567
0.00754085
0.00711572
0.00671016
0.00632442
0.00595809
0.00560937
0.00527458
0.00494873
0.00463148
0.00432214
0.00401952
0.0037232
0.003434
0.00315368
0.00288402
0.0026259
0.00237865
0.00213988
0.00190573
0.00167173
0.00143401
0.00118976
0.00093752
0.000677741
0.000411222
0.000138487
0.277321
0.264401
0.252291
0.240939
0.230247
0.220155
0.210585
0.201496
0.192844
0.184585
0.176696
0.169147
0.161931
0.155016
0.148393
0.14203
0.135924
0.130056
0.12443
0.119025
0.113841
0.108862
0.104085
0.0995005
0.0951019
0.0908813
0.0868326
0.0829545
0.0792351
0.0756711
0.0722497
0.0689689
0.0658212
0.0628059
0.0599124
0.0571343
0.0544622
0.0518949
0.0494317
0.0470759
0.0448286
0.0426924
0.0406674
0.0387475
0.0369181
0.0351647
0.033479
0.0318598
0.0303116
0.0288387
0.027439
0.026102
0.0248133
0.0235683
0.0223796
0.0212361
0.0201372
0.0190895
0.0180959
0.0171532
0.0162552
0.0153961
0.0145732
0.0137875
0.0130426
0.0123411
0.0116827
0.0110638
0.0104801
0.0099269
0.00939971
0.00889497
0.00841058
0.00794568
0.00749954
0.00707341
0.00666746
0.00628194
0.00591649
0.00556931
0.0052363
0.00491168
0.00459598
0.00428868
0.00398839
0.00369457
0.00340798
0.00313034
0.00286341
0.00260793
0.00236308
0.00212625
0.00189349
0.0016604
0.00142338
0.00118014
0.000929551
0.000671993
0.000407818
0.000137278
0.277261
0.264306
0.252191
0.240841
0.230153
0.220064
0.210499
0.201414
0.192764
0.184508
0.17662
0.169072
0.161858
0.154945
0.148322
0.141959
0.135854
0.129987
0.124361
0.118956
0.113772
0.108793
0.104016
0.0994308
0.0950317
0.0908107
0.0867625
0.0828852
0.0791668
0.0756039
0.0721835
0.0689035
0.0657565
0.0627417
0.0598485
0.0570711
0.0543995
0.0518326
0.0493697
0.0470135
0.0447657
0.0426294
0.0406053
0.0386872
0.0368602
0.0351088
0.0334239
0.0318049
0.0302567
0.0287845
0.0273861
0.0260505
0.0247624
0.0235176
0.0223294
0.0211855
0.020086
0.0190378
0.0180442
0.0171021
0.0162051
0.0153473
0.0145257
0.0137412
0.0129971
0.0122964
0.0116385
0.0110203
0.0104374
0.00988487
0.00935811
0.00885328
0.00836825
0.00790227
0.00745488
0.0070279
0.00662182
0.00623679
0.00587245
0.00552699
0.00519589
0.00487275
0.0045589
0.00425384
0.00395598
0.00366469
0.00338072
0.00310576
0.00284152
0.00258863
0.00234606
0.00211102
0.00187949
0.00164718
0.00141101
0.00116919
0.000920849
0.000666002
0.000404373
0.00013607
0.277197
0.264204
0.252084
0.240735
0.230052
0.219968
0.210408
0.201326
0.19268
0.184425
0.17654
0.168993
0.161781
0.154868
0.148246
0.141884
0.135779
0.129913
0.124288
0.118883
0.113699
0.108719
0.103942
0.0993564
0.0949568
0.0907354
0.0866878
0.0828112
0.079094
0.0755324
0.072113
0.0688337
0.0656876
0.0626731
0.0597803
0.0570034
0.0543325
0.0517661
0.0493035
0.0469471
0.0446987
0.0425625
0.0405394
0.0386232
0.0367986
0.0350492
0.0333655
0.0317467
0.0301986
0.0287266
0.0273291
0.0259945
0.024707
0.0234627
0.0222749
0.0211307
0.0200309
0.0189826
0.0179891
0.0170474
0.0161514
0.015295
0.014475
0.013692
0.012949
0.0122489
0.0115917
0.0109741
0.0103918
0.00983986
0.00931337
0.00880824
0.00832242
0.00785531
0.00740688
0.00697931
0.00657346
0.00618925
0.00582628
0.00548267
0.00515352
0.00483215
0.00452043
0.00421772
0.00392231
0.0036335
0.00335207
0.00307972
0.00281809
0.0025677
0.00232729
0.00209389
0.00186349
0.00163203
0.0013971
0.00115746
0.000911917
0.000659868
0.000400906
0.000134867
0.27713
0.264095
0.251969
0.240623
0.229945
0.219866
0.210311
0.201233
0.19259
0.184337
0.176454
0.168909
0.161698
0.154787
0.148165
0.141804
0.1357
0.129834
0.12421
0.118805
0.113621
0.108641
0.103864
0.0992774
0.0948772
0.0906554
0.0866083
0.0827327
0.0790167
0.0754564
0.0720382
0.0687597
0.0656143
0.0626002
0.0597077
0.0569313
0.054261
0.0516953
0.0492333
0.0468767
0.0446277
0.0424917
0.0404698
0.0385554
0.0367333
0.0349861
0.0333035
0.0316851
0.0301369
0.0286649
0.0272679
0.025934
0.0246471
0.0234034
0.022216
0.0210717
0.019972
0.0189239
0.0179305
0.0169893
0.0160943
0.0152394
0.0144211
0.0136398
0.0128981
0.0121988
0.0115421
0.010925
0.0103432
0.0097917
0.00926525
0.00875968
0.00827295
0.00780473
0.00735559
0.00692782
0.00652261
0.00613959
0.00577825
0.00543653
0.00510931
0.00479
0.00448059
0.00418028
0.00388724
0.00360081
0.00332182
0.00305197
0.00279285
0.00254486
0.00230654
0.00207471
0.00184547
0.00161537
0.00138263
0.00114534
0.000902557
0.000653647
0.00039758
0.000133693
0.277061
0.263979
0.251848
0.240504
0.229832
0.219758
0.210209
0.201135
0.192495
0.184244
0.176363
0.16882
0.161611
0.1547
0.14808
0.141719
0.135616
0.129751
0.124127
0.118723
0.113539
0.108559
0.103781
0.0991937
0.0947929
0.0905707
0.0865242
0.0826495
0.0789349
0.0753761
0.0719591
0.0686813
0.0655367
0.0625229
0.0596306
0.0568548
0.0541853
0.0516204
0.049159
0.0468024
0.044553
0.0424173
0.0403968
0.0384841
0.0366643
0.0349193
0.0332379
0.03162
0.0300716
0.0285993
0.0272024
0.0258689
0.0245826
0.0233399
0.0221527
0.0210087
0.0199095
0.0188619
0.0178688
0.0169279
0.0160336
0.0151802
0.0143639
0.0135845
0.0128443
0.0121459
0.0114897
0.010873
0.0102916
0.00974021
0.00921359
0.00870744
0.0082198
0.0077506
0.00730119
0.00687365
0.00646952
0.00608807
0.00572854
0.00538869
0.00506329
0.00474624
0.00443926
0.00414129
0.00385052
0.00356634
0.00328967
0.00302225
0.00276559
0.00251996
0.00228368
0.00205361
0.00182643
0.00159818
0.00136726
0.00113251
0.000892999
0.000647566
0.000394537
0.000132597
0.276987
0.263855
0.251719
0.240378
0.229713
0.219644
0.210101
0.201031
0.192395
0.184147
0.176268
0.168727
0.161519
0.154609
0.14799
0.14163
0.135527
0.129663
0.12404
0.118637
0.113453
0.108472
0.103693
0.0991054
0.0947039
0.0904814
0.0864354
0.0825617
0.0788485
0.0752912
0.0718755
0.0685986
0.0654547
0.0624413
0.0595492
0.0567738
0.0541053
0.0515415
0.0490808
0.0467243
0.0444747
0.0423396
0.0403203
0.0384093
0.0365914
0.0348485
0.0331685
0.031551
0.0300025
0.0285297
0.0271324
0.0257991
0.0245136
0.0232722
0.0220853
0.0209419
0.0198435
0.0187966
0.0178038
0.0168631
0.0159695
0.0151176
0.0143034
0.013526
0.0127874
0.01209
0.0114343
0.0108179
0.0102366
0.00968521
0.00915823
0.00865146
0.00816301
0.00769309
0.00724393
0.00681705
0.00641444
0.00603486
0.00567724
0.00533912
0.00501539
0.00470071
0.00439614
0.00410043
0.00381182
0.00352978
0.00325538
0.00299038
0.00273623
0.00249317
0.00225953
0.00203184
0.00180633
0.00157972
0.00135112
0.00111946
0.000883569
0.000641755
0.000391794
0.000131681
0.276914
0.263722
0.251583
0.240246
0.229587
0.219524
0.209988
0.200922
0.19229
0.184044
0.176167
0.168628
0.161422
0.154514
0.147895
0.141535
0.135434
0.129571
0.123949
0.118545
0.113362
0.108381
0.103601
0.0990124
0.0946104
0.0903873
0.0863418
0.0824692
0.0787575
0.0752018
0.0717873
0.0685113
0.0653681
0.0623552
0.0594635
0.0566886
0.0540212
0.0514586
0.0489989
0.0466426
0.0443931
0.0422586
0.0402407
0.0383309
0.0365147
0.0347737
0.033095
0.031478
0.0299294
0.0284558
0.0270578
0.0257246
0.0244403
0.0232004
0.0220139
0.0208715
0.0197744
0.0187283
0.0177357
0.0167949
0.0159019
0.0150515
0.0142394
0.0134642
0.0127274
0.012031
0.0113757
0.0107595
0.0101782
0.00962658
0.00909911
0.00859176
0.00810272
0.00763247
0.00718414
0.00675832
0.00635759
0.00598005
0.00562432
0.00528769
0.00496544
0.0046531
0.00435088
0.00405731
0.00377076
0.0034909
0.00321902
0.00295673
0.00270544
0.00246516
0.00223399
0.00200845
0.00178489
0.0015605
0.00133478
0.00110662
0.000874343
0.000635923
0.000389648
0.000131066
0.276838
0.263582
0.25144
0.240108
0.229456
0.219399
0.209869
0.200807
0.192179
0.183936
0.176062
0.168525
0.161321
0.154413
0.147795
0.141436
0.135336
0.129474
0.123853
0.11845
0.113267
0.108285
0.103505
0.0989149
0.0945122
0.0902886
0.0862437
0.0823721
0.0786619
0.0751077
0.0716945
0.0684194
0.0652771
0.0622647
0.0593735
0.0565992
0.053933
0.0513719
0.0489133
0.0465575
0.0443084
0.0421748
0.0401579
0.038249
0.0364339
0.0346945
0.0330171
0.0314007
0.0298519
0.0283776
0.0269788
0.0256456
0.0243627
0.0231248
0.0219388
0.0207978
0.0197022
0.018657
0.0176643
0.016723
0.0158309
0.0149822
0.014172
0.013399
0.012664
0.0119688
0.0113138
0.0106977
0.0101163
0.00956423
0.00903622
0.00852842
0.00803914
0.00756907
0.00712219
0.00669774
0.00629914
0.00592365
0.0055696
0.00523419
0.00491324
0.0046031
0.00430309
0.00401171
0.00372757
0.00345022
0.0031808
0.00292116
0.00267276
0.00243537
0.00220689
0.00198384
0.00176269
0.00154099
0.00131873
0.00109405
0.000864709
0.000630569
0.00038824
0.000130757
0.276759
0.263434
0.251289
0.239962
0.229318
0.219267
0.209744
0.200688
0.192064
0.183823
0.175952
0.168417
0.161215
0.154308
0.147691
0.141333
0.135234
0.129373
0.123753
0.11835
0.113167
0.108184
0.103404
0.0988129
0.0944094
0.0901854
0.0861408
0.0822702
0.0785615
0.0750088
0.0715969
0.0683229
0.0651814
0.0621697
0.0592791
0.0565057
0.0538409
0.0512815
0.0488243
0.0464693
0.044221
0.0420882
0.0400721
0.0381635
0.0363488
0.0346106
0.0329345
0.0313188
0.02977
0.0282949
0.0268952
0.0255621
0.024281
0.0230456
0.0218604
0.020721
0.0196271
0.0185824
0.0175889
0.0166475
0.0157563
0.0149098
0.0141019
0.0133306
0.0125973
0.0119031
0.0112485
0.0106323
0.0100506
0.00949813
0.00896963
0.00846159
0.00797251
0.00750324
0.00705839
0.00663554
0.00623913
0.00586551
0.00551282
0.00517837
0.0048586
0.00455049
0.0042528
0.00396382
0.003682
0.00340706
0.00314027
0.0028836
0.00263841
0.00240416
0.00217865
0.00195846
0.00174031
0.00152202
0.00130309
0.00108083
0.000855607
0.000625911
0.000387316
0.00013058
0.276679
0.263278
0.251131
0.239811
0.229174
0.21913
0.209614
0.200563
0.191943
0.183705
0.175837
0.168305
0.161104
0.154199
0.147582
0.141225
0.135127
0.129267
0.123648
0.118246
0.113063
0.10808
0.103298
0.0987063
0.0943021
0.0900776
0.0860334
0.0821637
0.0784564
0.0749051
0.0714945
0.0682216
0.0650812
0.0620703
0.0591805
0.0564081
0.053745
0.0511876
0.048732
0.0463783
0.044131
0.041999
0.0399832
0.0380744
0.0362594
0.0345218
0.032847
0.0312322
0.0296835
0.0282078
0.0268072
0.0254744
0.0241953
0.0229628
0.0217791
0.0206413
0.0195489
0.0185042
0.0175101
0.0165685
0.0156782
0.0148337
0.0140285
0.0132594
0.0125273
0.011834
0.0111798
0.0105633
0.00998122
0.00942827
0.00889944
0.00839146
0.00790308
0.00743524
0.00699271
0.00657183
0.00617748
0.00580538
0.00545366
0.00511998
0.00480139
0.00449524
0.0041998
0.00391311
0.00363369
0.00336144
0.00309766
0.00284434
0.0026027
0.00237193
0.00214978
0.00193294
0.00171832
0.00150297
0.00128672
0.00106833
0.000847403
0.000621751
0.000386362
0.000130248
0.276596
0.263113
0.250965
0.239652
0.229025
0.218987
0.209479
0.200432
0.191817
0.183583
0.175718
0.168187
0.160988
0.154084
0.147468
0.141112
0.135015
0.129156
0.123539
0.118137
0.112954
0.10797
0.103188
0.0985953
0.0941904
0.0899654
0.0859214
0.0820525
0.0783465
0.0747964
0.0713871
0.0681156
0.0649764
0.0619665
0.0590777
0.0563065
0.0536454
0.0510902
0.0486366
0.0462846
0.0440387
0.0419073
0.0398912
0.0379814
0.0361655
0.034428
0.0327542
0.0311406
0.0295923
0.0281163
0.0267149
0.0253825
0.0241058
0.0228765
0.0216949
0.0205588
0.0194676
0.018423
0.0174283
0.0164864
0.0155965
0.0147538
0.0139513
0.0131848
0.0124544
0.0117617
0.0111076
0.0104908
0.00990813
0.00935474
0.00882579
0.00831823
0.00783106
0.00736524
0.00692472
0.00650651
0.0061139
0.00574287
0.00539181
0.00505882
0.00474144
0.00443714
0.00414384
0.0038595
0.0035827
0.00331353
0.00305332
0.00280393
0.00256628
0.00233912
0.00212049
0.00190706
0.00169558
0.00148382
0.00127138
0.00105692
0.000839887
0.000617645
0.000384797
0.00012947
0.276515
0.262937
0.250792
0.239487
0.228869
0.218839
0.209338
0.200297
0.191686
0.183455
0.175593
0.168065
0.160868
0.153965
0.14735
0.140994
0.134899
0.129041
0.123425
0.118024
0.112841
0.107857
0.103074
0.0984798
0.0940741
0.0898488
0.0858049
0.0819365
0.0782317
0.0746827
0.0712748
0.0680047
0.064867
0.0618583
0.0589707
0.0562009
0.053542
0.0509894
0.0485384
0.0461884
0.043944
0.041813
0.0397961
0.0378847
0.0360669
0.0343288
0.0326562
0.031044
0.0294965
0.0280203
0.0266186
0.0252866
0.0240124
0.0227865
0.0216075
0.0204736
0.0193837
0.0183391
0.0173437
0.016401
0.0155112
0.01467
0.0138703
0.0131066
0.0123782
0.0116865
0.0110322
0.0104148
0.00983147
0.00927769
0.00874886
0.00824209
0.00775658
0.00729323
0.00685478
0.00643928
0.00604799
0.00567761
0.005327
0.00499472
0.00467857
0.00437606
0.00408492
0.00380313
0.00352941
0.003264
0.0030077
0.00276199
0.00252823
0.00230533
0.0020908
0.00188126
0.00167361
0.00146579
0.00125711
0.00104629
0.000832566
0.000613058
0.000382118
0.000128038
0.276432
0.262753
0.250611
0.239316
0.228707
0.218685
0.209192
0.200156
0.191551
0.183323
0.175464
0.167939
0.160744
0.153841
0.147227
0.140872
0.134778
0.128922
0.123307
0.117906
0.112723
0.107739
0.102955
0.0983598
0.0939534
0.0897277
0.0856839
0.0818159
0.078112
0.0745641
0.0711575
0.0678892
0.0647531
0.0617458
0.0588595
0.0560914
0.053435
0.0508854
0.0484373
0.0460897
0.043847
0.0417162
0.0396977
0.0377839
0.0359636
0.0342244
0.0325528
0.0309424
0.0293961
0.0279202
0.0265183
0.025187
0.0239154
0.0226932
0.0215172
0.0203857
0.0192973
0.0182527
0.0172562
0.0163124
0.0154223
0.0145823
0.0137851
0.0130244
0.0122983
0.0116078
0.0109538
0.0103358
0.00975155
0.00919732
0.00866883
0.00816318
0.00767966
0.00721901
0.00678278
0.00636961
0.00597922
0.00560926
0.00525908
0.00492759
0.00461274
0.00431207
0.00402331
0.00374447
0.00347405
0.00321218
0.00296
0.00271908
0.00249009
0.00227172
0.00206141
0.00185593
0.00165221
0.0014483
0.00124327
0.00103574
0.000824795
0.000607466
0.000377967
0.000125874
0.276348
0.26256
0.250423
0.239138
0.228539
0.218525
0.20904
0.20001
0.19141
0.183186
0.17533
0.167808
0.160614
0.153713
0.1471
0.140745
0.134653
0.128798
0.123184
0.117784
0.112601
0.107616
0.102832
0.0982353
0.0938282
0.0896022
0.0855583
0.0816905
0.0779874
0.0744404
0.0710353
0.067769
0.0646348
0.0616289
0.0587442
0.055978
0.0533244
0.0507782
0.0483335
0.0459886
0.0437475
0.0416167
0.0395961
0.0376792
0.0358557
0.0341147
0.032444
0.0308359
0.0292914
0.0278162
0.0264145
0.0250841
0.023815
0.0225965
0.0214238
0.0202951
0.0192084
0.0181637
0.0171659
0.0162205
0.0153298
0.0144907
0.0136959
0.0129382
0.0122146
0.0115255
0.010872
0.0102537
0.00966884
0.00911424
0.00858603
0.00808153
0.0076
0.00714198
0.00670818
0.00629699
0.0059074
0.00553778
0.00518804
0.00485742
0.00454399
0.00424529
0.00395898
0.00368312
0.00341652
0.00315926
0.00291221
0.00267643
0.00245223
0.00223826
0.00203208
0.00183059
0.00163081
0.00143075
0.00122925
0.0010249
0.000816194
0.000600446
0.000372176
0.000123026
0.276264
0.262356
0.250227
0.238954
0.228366
0.21836
0.208883
0.199859
0.191264
0.183044
0.175192
0.167672
0.16048
0.15358
0.146968
0.140614
0.134523
0.12867
0.123057
0.117657
0.112475
0.107489
0.102704
0.0981063
0.0936984
0.0894721
0.0854282
0.0815604
0.077858
0.0743117
0.0709083
0.0676441
0.064512
0.0615078
0.0586247
0.0558608
0.0532104
0.050668
0.0482269
0.0458848
0.0436453
0.0415141
0.039491
0.0375704
0.035743
0.0339998
0.0323302
0.0307249
0.0291827
0.0277086
0.0263075
0.0249781
0.0237115
0.0224966
0.0213275
0.0202016
0.0191166
0.0180719
0.0170725
0.0161254
0.0152338
0.0143953
0.0136029
0.0128482
0.0121271
0.0114396
0.0107867
0.0101681
0.00958275
0.00902798
0.00850027
0.00799702
0.00751756
0.00706224
0.0066308
0.00622127
0.00583226
0.00546292
0.00511374
0.00478416
0.00447228
0.00417571
0.00389228
0.00362025
0.00335835
0.00310634
0.00286467
0.00263403
0.00241445
0.00220465
0.00200239
0.00180473
0.00160878
0.00141244
0.00121437
0.00101296
0.000805888
0.000591595
0.000364739
0.000119634
0.276179
0.262141
0.250024
0.238764
0.228187
0.21819
0.208721
0.199703
0.191113
0.182897
0.175048
0.167531
0.160342