/*--------------------------------*- C++ -*----------------------------------*\
| =========                 |                                                 |
| \\      /  F ield         | OpenFOAM: The Open Source CFD Toolbox           |
|  \\    /   O peration     | Version:  4.1                                   |
|   \\  /    A nd           | Web:      www.OpenFOAM.org                      |
|    \\/     M anipulation  |                                                 |
\*---------------------------------------------------------------------------*/
FoamFile
{
    version     2.0;
    format      ascii;
    class       surfaceScalarField;
    location    "9";
    object      phi;
}
// * * * * * * * * * * * * * * * * * * * * * * * * * * * * * * * * * * * * * //

dimensions      [0 3 -1 0 0 0 0];

internalField   nonuniform List<scalar> 
52920
(
16.9049
-0.0034879
16.8855
0.0193564
16.8444
0.0411122
16.7836
0.060853
16.7046
0.0789904
16.6093
0.0953412
16.499
0.11026
16.3753
0.1237
16.2393
0.136012
16.0921
0.147168
15.9347
0.157398
15.7681
0.166615
15.5932
0.174927
15.4107
0.18247
15.2217
0.188966
15.0269
0.194874
14.827
0.199854
14.6228
0.204236
14.4148
0.20796
14.2036
0.211194
13.9899
0.213758
13.7738
0.216042
13.556
0.217821
13.3369
0.21913
13.1166
0.220277
12.8957
0.220852
12.6746
0.221155
12.4533
0.221289
12.2323
0.221023
12.0117
0.220548
11.7918
0.21992
11.573
0.218848
11.3554
0.217591
11.1391
0.216275
10.9245
0.214611
10.7116
0.212833
10.5007
0.21091
10.2922
0.2085
10.0864
0.205848
9.88331
0.203075
9.68319
0.200121
9.48585
0.197341
9.29104
0.194805
9.09875
0.192297
8.90898
0.189765
8.72198
0.186997
8.53817
0.183814
8.35782
0.180347
8.18095
0.176872
8.00734
0.173609
7.83676
0.170583
7.66907
0.167682
7.50437
0.164706
7.34292
0.161448
7.1851
0.157815
7.03123
0.15387
6.88146
0.149775
6.73571
0.145749
6.59376
0.141948
6.45539
0.138366
6.32051
0.134883
6.18919
0.13132
6.06162
0.127572
5.93794
0.123679
5.81819
0.119749
5.70232
0.115863
5.59025
0.11207
5.48191
0.10834
5.37731
0.104609
5.27647
0.100837
5.17946
0.0970044
5.08635
0.0931121
4.99716
0.0891966
4.91167
0.0854907
4.82982
0.0818458
4.7519
0.0779228
4.67795
0.0739439
4.60802
0.0699386
4.54209
0.06592
4.4802
0.0618958
4.42233
0.0578668
4.36851
0.0538281
4.31874
0.0497622
4.2731
0.0456436
4.23164
0.0414594
4.19444
0.0372033
4.16157
0.0328686
4.13312
0.0284517
4.10917
0.0239514
4.08979
0.0193709
4.07507
0.0147236
4.06504
0.010026
4.05975
0.00528613
4.05925
0.00049604
4.06361
-0.00435495
4.07285
-0.00923939
4.08718
-0.0143278
4.10677
-0.0195899
4.13176
-0.0249943
-0.0304798
16.9047
-0.00714578
16.8853
0.0387199
16.8442
0.082247
16.7833
0.121722
16.7043
0.158007
16.609
0.19069
16.4987
0.22053
16.375
0.24741
16.239
0.272027
16.0918
0.294345
15.9344
0.314794
15.7678
0.333261
15.5928
0.349865
15.4103
0.364987
15.2213
0.377959
15.0264
0.389786
14.8265
0.399724
14.6223
0.408472
14.4144
0.415897
14.2032
0.422372
13.9894
0.42752
13.7734
0.432098
13.5555
0.435704
13.3363
0.438307
13.116
0.440601
12.8951
0.441744
12.6739
0.442305
12.4526
0.442592
12.2316
0.44207
12.0111
0.441081
11.7911
0.439834
11.5723
0.437706
11.3547
0.435147
11.1385
0.432545
10.9238
0.429253
10.711
0.425663
10.5
0.421854
10.2915
0.417065
10.0856
0.411704
9.88253
0.406165
9.68238
0.400271
9.48505
0.394662
9.29024
0.389612
9.09791
0.384631
8.90813
0.379542
8.72115
0.373977
8.5374
0.367565
8.35715
0.360595
8.18036
0.353666
8.00676
0.347207
7.83614
0.341204
7.66841
0.335411
7.50365
0.329462
7.34216
0.322938
7.18434
0.315636
7.0305
0.307705
6.88079
0.299487
6.7351
0.29144
6.59316
0.283884
6.45476
0.276768
6.31984
0.269805
6.18851
0.262651
6.06096
0.255118
5.93732
0.247314
5.8176
0.239469
5.70173
0.231731
5.58964
0.224162
5.48127
0.216715
5.37662
0.209256
5.27575
0.201703
5.17872
0.194036
5.08558
0.186255
4.99635
0.178424
4.91086
0.170985
4.82899
0.163718
4.75105
0.155862
4.6771
0.147894
4.60716
0.139871
4.54126
0.13182
4.4794
0.123763
4.42156
0.115701
4.36777
0.107621
4.31805
0.0994892
4.27244
0.0912525
4.23102
0.0828816
4.19385
0.0743695
4.16101
0.0657048
4.13259
0.0568726
4.10867
0.0478716
4.08932
0.0387145
4.07461
0.0294296
4.06458
0.0200508
4.05927
0.0105983
4.05872
0.00104403
4.06301
-0.00864476
4.07219
-0.0184186
4.08646
-0.0285954
4.10598
-0.0391109
4.13089
-0.0499023
-0.0608601
16.9043
-0.0108845
16.8849
0.0581097
16.8437
0.123418
16.7828
0.182627
16.7038
0.23706
16.6084
0.286068
16.4981
0.330816
16.3744
0.371142
16.2384
0.408047
16.0912
0.441541
15.9338
0.472197
15.7671
0.49995
15.5921
0.524858
15.4095
0.547579
15.2204
0.567033
15.0254
0.584747
14.8256
0.599604
14.6214
0.61268
14.4135
0.623778
14.2023
0.633521
13.9885
0.641329
13.7724
0.648226
13.5544
0.653709
13.3351
0.657601
13.1147
0.660984
12.8937
0.662703
12.6726
0.663488
12.4513
0.6639
12.2302
0.663147
12.0097
0.661603
11.7898
0.659698
11.5709
0.656561
11.3534
0.652692
11.1372
0.648785
10.9225
0.643932
10.7096
0.638523
10.4987
0.63282
10.29
0.625725
10.0841
0.617636
9.88092
0.609302
9.68068
0.60051
9.4833
0.592037
9.28849
0.584428
9.09615
0.576965
8.90645
0.569245
8.71961
0.560813
8.53601
0.551173
8.35585
0.540754
8.17907
0.530444
8.00544
0.520831
7.83478
0.511866
7.66702
0.503165
7.50227
0.494217
7.34079
0.484419
7.183
0.473419
7.02923
0.461473
6.87956
0.449156
6.73388
0.437126
6.59192
0.425841
6.4535
0.415188
6.31861
0.404702
6.18734
0.393914
6.05986
0.382598
5.93627
0.370908
5.81655
0.35919
5.70064
0.34764
5.58849
0.33631
5.48006
0.325139
5.37537
0.313952
5.27445
0.302623
5.17736
0.291129
5.08414
0.279472
4.99483
0.267732
4.9093
0.256515
4.82737
0.245654
4.74938
0.233843
4.67542
0.221856
4.6055
0.209791
4.53964
0.197681
4.47784
0.185567
4.42008
0.17346
4.36637
0.161329
4.31675
0.149117
4.27124
0.136757
4.22992
0.124205
4.19284
0.111444
4.16009
0.0984547
4.13174
0.0852185
4.10788
0.071733
4.08857
0.0580243
4.07385
0.044142
4.06377
0.0301317
4.05836
0.0160014
4.05771
0.00170186
4.06187
-0.0128108
4.07091
-0.0274513
4.08503
-0.0427148
4.10438
-0.058463
4.12909
-0.0746151
-0.0910668
16.9037
-0.0146222
16.8842
0.0775414
16.843
0.164645
16.782
0.243588
16.7029
0.316162
16.6075
0.381487
16.4972
0.441132
16.3734
0.494906
16.2374
0.54408
16.0902
0.588763
15.9328
0.629619
15.766
0.666698
15.5909
0.69994
15.4082
0.73027
15.219
0.756228
15.024
0.779771
14.8241
0.799487
14.62
0.816851
14.4122
0.831598
14.201
0.844645
13.9871
0.855224
13.7709
0.864472
13.5527
0.871875
13.3333
0.877059
13.1128
0.881442
12.8918
0.883743
12.6705
0.884739
12.4492
0.885217
12.2281
0.884245
12.0076
0.882127
11.7878
0.879504
11.5689
0.875405
11.3514
0.870247
11.1352
0.864991
10.9205
0.858643
10.7075
0.851439
10.4965
0.84381
10.2878
0.834489
10.0817
0.823687
9.87853
0.812504
9.67819
0.80085
9.48072
0.789502
9.28589
0.779261
9.09359
0.769261
8.90401
0.758824
8.71736
0.747459
8.53392
0.734617
8.35384
0.720836
8.17705
0.707232
8.00338
0.694496
7.83268
0.682566
7.66491
0.670935
7.50018
0.65895
7.33874
0.645857
7.18102
0.631133
7.02735
0.615149
6.87773
0.598774
6.73203
0.58282
6.59006
0.567814
6.45165
0.553599
6.31681
0.53954
6.18565
0.525075
6.05826
0.509989
5.93469
0.494472
5.81495
0.478933
5.69898
0.463614
5.58675
0.448537
5.47825
0.433635
5.37348
0.418725
5.27247
0.403632
5.17528
0.388316
5.08196
0.372795
4.99254
0.357153
4.90696
0.342097
4.82495
0.327668
4.74691
0.311877
4.67294
0.295829
4.60304
0.279685
4.53723
0.263492
4.47551
0.247293
4.41785
0.231113
4.36427
0.214917
4.31477
0.198615
4.26941
0.182121
4.22822
0.165393
4.19126
0.148406
4.1586
0.131115
4.13032
0.113497
4.10648
0.0955622
4.08716
0.0773455
4.07239
0.0589051
4.06222
0.0403005
4.05668
0.0215379
4.05587
0.00251714
4.05987
-0.0168114
4.06874
-0.0363214
4.08266
-0.0566293
4.10178
-0.0775834
4.12626
-0.0990965
-0.121083
16.9028
-0.0182771
16.8833
0.0970239
16.842
0.205944
16.781
0.304621
16.7018
0.395327
16.6064
0.476965
16.496
0.55149
16.3722
0.618715
16.2361
0.680133
16.0889
0.736028
15.9314
0.787074
15.7646
0.83352
15.5894
0.875135
15.4066
0.913078
15.2173
0.945563
15.0222
0.974867
14.8223
0.999369
14.6181
1.02099
14.4104
1.03937
14.1993
1.05576
13.9852
1.06924
13.7688
1.08087
13.5505
1.09022
13.3308
1.09671
13.1103
1.10199
12.8892
1.10487
12.6678
1.10608
12.4465
1.10655
12.2254
1.10536
12.0048
1.10267
11.7851
1.09927
11.5662
1.09424
11.3486
1.08784
11.1325
1.08117
10.9177
1.07337
10.7047
1.06443
10.4937
1.05483
10.2849
1.04335
10.0787
1.02987
9.8754
1.01578
9.67496
1.00129
9.47738
0.987076
9.28252
0.974119
9.09029
0.961497
8.90085
0.948257
8.7144
0.933912
8.53111
0.91791
8.35108
0.900864
8.17425
0.884057
8.00053
0.868218
7.8298
0.853296
7.66203
0.838703
7.49735
0.82363
7.336
0.807205
7.1784
0.788733
7.02484
0.768702
6.8753
0.748323
6.7296
0.728519
6.58761
0.709795
6.44924
0.691972
6.31449
0.674293
6.18345
0.656114
6.05615
0.637288
5.9326
0.618026
5.8128
0.598726
5.69675
0.57967
5.58442
0.560868
5.47582
0.542235
5.37094
0.523602
5.26981
0.504758
5.1725
0.485627
5.07906
0.466244
4.98951
0.446703
4.90385
0.42775
4.82176
0.409758
4.74368
0.389962
4.66969
0.369819
4.59982
0.349553
4.53407
0.329244
4.47242
0.308935
4.41488
0.288654
4.36143
0.268369
4.31208
0.247968
4.26685
0.227353
4.22576
0.20648
4.18888
0.185292
4.15626
0.163728
4.128
0.141757
4.10416
0.119402
4.08478
0.0967194
4.06991
0.0737737
4.05959
0.0506171
4.05389
0.027241
4.0529
0.00350837
4.05671
-0.0206251
4.06539
-0.0449992
4.07912
-0.0703578
4.09804
-0.0965013
4.12231
-0.123371
-0.15093
16.9017
-0.0218675
16.8822
0.116558
16.8408
0.247306
16.7797
0.365743
16.7005
0.474568
16.6049
0.572514
16.4945
0.661904
16.3706
0.742585
16.2346
0.816224
16.0872
0.883352
15.9297
0.944583
15.7628
1.00043
15.5875
1.05046
15.4046
1.09601
15.2151
1.13504
15.0199
1.17004
14.82
1.19926
14.6159
1.22512
14.4081
1.24714
14.197
1.2669
13.9828
1.28341
13.7662
1.29745
13.5477
1.30875
13.3279
1.31655
13.1072
1.32263
12.886
1.32608
12.6646
1.32753
12.4432
1.32792
12.222
1.3265
12.0014
1.32327
11.7817
1.31904
11.5628
1.31309
11.3452
1.30548
11.129
1.29735
10.9143
1.28811
10.7012
1.27749
10.4902
1.26588
10.2813
1.25226
10.0749
1.23617
9.87159
1.21914
9.67105
1.20183
9.47336
1.18477
9.27847
1.16901
9.08629
1.15367
8.897
1.13755
8.71071
1.1202
8.52753
1.1011
8.34751
1.08088
8.17062
1.06095
7.99682
1.04201
7.82607
1.02404
7.65834
1.00643
7.49376
0.988212
7.33256
0.968403
7.17514
0.946157
7.02175
0.922088
6.87229
0.897779
6.7266
0.87421
6.58462
0.851775
6.44631
0.830285
6.31166
0.808942
6.18072
0.787058
6.05346
0.76454
5.92989
0.741602
5.81002
0.718593
5.69387
0.695816
5.58144
0.673304
5.47272
0.650949
5.36773
0.628597
5.26647
0.606018
5.16901
0.583081
5.07543
0.559827
4.98575
0.53638
4.90002
0.513483
4.81786
0.49192
4.73973
0.46809
4.66573
0.443824
4.59587
0.419406
4.53017
0.394947
4.46861
0.3705
4.41117
0.346095
4.35783
0.321703
4.3086
0.297202
4.26345
0.272506
4.22241
0.247519
4.18555
0.222152
4.15294
0.196339
4.12464
0.170048
4.10073
0.143314
4.08124
0.116209
4.06621
0.0888004
4.0557
0.0611252
4.04978
0.033159
4.04857
0.00471488
4.05219
-0.0242456
4.06071
-0.0535121
4.07428
-0.0839271
4.09305
-0.115273
4.11719
-0.147517
-0.180658
16.9005
-0.0257081
16.8809
0.136182
16.8394
0.288764
16.7782
0.426969
16.6989
0.5539
16.6032
0.668152
16.4927
0.772394
16.3688
0.866538
16.2326
0.952375
16.0852
1.03076
15.9276
1.10217
15.7606
1.16744
15.5852
1.22592
15.4021
1.27905
15.2125
1.32465
15.0173
1.3653
14.8173
1.39917
14.6132
1.42927
14.4054
1.45495
14.1942
1.47811
13.9798
1.49776
13.763
1.51423
13.5444
1.52743
13.3243
1.53658
13.1036
1.54339
12.8823
1.54737
12.6607
1.5491
12.4393
1.54935
12.2181
1.54767
11.9974
1.54395
11.7776
1.53886
11.5587
1.53197
11.341
1.52321
11.1248
1.51355
10.9101
1.50285
10.697
1.4906
10.4859
1.47694
10.277
1.46119
10.0706
1.44256
9.86714
1.42257
9.66651
1.40245
9.4687
1.38257
9.27377
1.36395
9.08164
1.3458
8.89245
1.32674
8.70629
1.30636
8.52315
1.28423
8.34309
1.26093
8.1661
1.23793
7.99222
1.2159
7.82146
1.1948
7.65382
1.17408
7.48939
1.15264
7.32841
1.12938
7.17125
1.10332
7.01805
1.07528
6.86869
1.04714
6.72303
1.01987
6.58108
0.993733
6.44283
0.968529
6.30827
0.943506
6.17738
0.91795
6.05013
0.891783
5.92651
0.865224
5.80655
0.838552
5.6903
0.81207
5.57775
0.785853
5.46891
0.759786
5.3638
0.733709
5.26242
0.707396
5.16483
0.680669
5.07112
0.65354
4.98133
0.626167
4.89553
0.599288
4.8133
0.574144
4.73513
0.546258
4.66111
0.517846
4.59126
0.489259
4.52558
0.460625
4.46407
0.432015
4.40669
0.403471
4.35343
0.374969
4.30423
0.346395
4.2591
0.317645
4.21805
0.288568
4.18115
0.259044
4.14849
0.229006
4.1201
0.19843
4.09605
0.167358
4.07639
0.135874
4.06114
0.10405
4.05037
0.0718914
4.04419
0.0393391
4.04275
0.00614859
4.04619
-0.0276829
4.05457
-0.0618936
4.06806
-0.0974164
4.08679
-0.133999
4.1109
-0.17163
-0.210319
16.8991
-0.0297282
16.8793
0.155912
16.8378
0.330334
16.7764
0.488313
16.697
0.633338
16.6012
0.763895
16.4906
0.882977
16.3666
0.990595
16.2303
1.08862
16.0828
1.17827
15.9251
1.25984
15.758
1.33455
15.5825
1.4015
15.3993
1.46219
15.2096
1.51438
15.0142
1.56064
14.8143
1.59915
14.61
1.63349
14.4021
1.66288
14.1908
1.68943
13.9762
1.71231
13.7593
1.73119
13.5405
1.74626
13.3203
1.75678
13.0994
1.76425
12.878
1.76874
12.6563
1.77078
12.4348
1.77086
12.2136
1.76891
11.9928
1.76475
11.7729
1.75878
11.5539
1.75092
11.3361
1.74104
11.1198
1.72981
10.9051
1.71757
10.692
1.70374
10.4809
1.688
10.272
1.67008
10.0656
1.64899
9.86211
1.62607
9.6614
1.60316
9.46346
1.58051
9.26845
1.55896
9.07634
1.53791
8.88721
1.51587
8.70109
1.49248
8.51793
1.46739
8.33777
1.44109
8.16066
1.41504
7.98669
1.38987
7.81595
1.36554
7.64844
1.34158
7.48424
1.31684
7.32355
1.29007
7.1667
1.26017
7.01371
1.22828
6.86446
1.19639
6.71886
1.16546
6.57694
1.13565
6.43876
1.10672
6.30426
1.07801
6.17338
1.04883
6.0461
1.01906
5.92241
0.988915
5.80235
0.958619
5.68597
0.928445
5.5733
0.898521
5.46434
0.868745
5.35911
0.838937
5.25764
0.808869
5.15996
0.778345
5.06616
0.747349
4.97629
0.716033
4.89043
0.685146
4.80816
0.656411
4.72996
0.624465
4.65591
0.591896
4.58603
0.559136
4.52033
0.526321
4.45882
0.493533
4.40144
0.460845
4.34816
0.428253
4.29892
0.395636
4.25371
0.362846
4.21258
0.329699
4.17559
0.296035
4.14281
0.261789
4.11427
0.226962
4.09003
0.1916
4.07011
0.155787
4.05457
0.119595
4.04347
0.0829861
4.03697
0.0458406
4.03529
0.00782385
4.03863
-0.0310153
4.047
-0.0702699
4.06054
-0.110956
4.07934
-0.152791
4.10349
-0.195785
-0.239947
16.8974
-0.0338763
16.8776
0.175775
16.8359
0.372031
16.7744
0.54979
16.6948
0.712897
16.599
0.859759
16.4883
0.993675
16.3641
1.11478
16.2277
1.22498
16.0801
1.32593
15.9223
1.41764
15.755
1.50177
15.5793
1.57719
15.3961
1.6454
15.2063
1.70419
15.0109
1.75608
14.8108
1.79922
14.6065
1.83786
14.3983
1.871
14.1868
1.90093
13.9721
1.92706
13.7549
1.94834
13.536
1.96521
13.3157
1.97711
13.0947
1.98522
12.8733
1.99018
12.6515
1.99257
12.4299
1.99248
12.2085
1.99023
11.9876
1.9857
11.7675
1.97887
11.5484
1.96999
11.3305
1.959
11.1141
1.94614
10.8994
1.93228
10.6863
1.91687
10.4753
1.89902
10.2665
1.87888
10.0601
1.8554
9.85651
1.82962
9.65572
1.80394
9.45765
1.77858
9.26254
1.75407
9.0704
1.73005
8.88125
1.70501
8.69511
1.67862
8.51186
1.65065
8.33154
1.62141
8.15429
1.5923
7.98023
1.56393
7.80953
1.53624
7.64222
1.50889
7.47831
1.48075
7.31797
1.45042
7.16148
1.41665
7.00871
1.38104
6.85958
1.34552
6.71405
1.31099
6.57218
1.27752
6.43404
1.24486
6.29956
1.21248
6.16867
1.17972
6.04132
1.1464
5.91754
1.1127
5.79736
1.0788
5.68085
1.04495
5.56806
1.01131
5.45899
0.977814
5.35367
0.944262
5.25213
0.91041
5.15441
0.87606
5.06058
0.84118
4.97069
0.805922
4.88481
0.771025
4.80253
0.738698
4.72428
0.702714
4.65017
0.665998
4.58023
0.629076
4.51446
0.592094
4.45286
0.555136
4.39539
0.518311
4.34198
0.481666
4.29258
0.445033
4.24722
0.408207
4.20593
0.370987
4.16878
0.333192
4.13581
0.294755
4.10706
0.25571
4.08254
0.216114
4.06229
0.176036
4.04635
0.135535
4.03485
0.0944891
4.02811
0.0525751
4.02641
0.00952607
4.0298
-0.0344037
4.03827
-0.0787446
4.05193
-0.124612
4.07083
-0.17169
4.09504
-0.220001
-0.269542
16.8956
-0.0380722
16.8756
0.195759
16.8338
0.41387
16.7721
0.611413
16.6924
0.792589
16.5964
0.955762
16.4856
1.10451
16.3613
1.23913
16.2247
1.3615
16.0769
1.47376
15.919
1.57559
15.7516
1.66911
15.5758
1.75297
15.3926
1.82865
15.2027
1.89405
15.0072
1.9516
14.807
1.99943
14.6024
2.04244
14.394
2.0794
14.1823
2.11266
13.9673
2.14203
13.75
2.16565
13.531
2.18424
13.3106
2.19754
13.0895
2.20629
12.868
2.21168
12.6461
2.21446
12.4243
2.21422
12.2029
2.21169
11.9817
2.20685
11.7614
2.19918
11.5422
2.18922
11.3241
2.17709
11.1077
2.16257
10.893
2.14698
10.6799
2.12994
10.469
2.10997
10.2603
2.08755
10.054
2.06175
9.85036
2.03321
9.64948
2.00482
9.45126
1.9768
9.256
1.94932
9.06378
1.92226
8.87457
1.89423
8.68833
1.86486
8.50493
1.83404
8.32442
1.80192
8.14701
1.7697
7.9729
1.73804
7.80227
1.70687
7.63519
1.67597
7.47162
1.64431
7.31168
1.61036
7.15555
1.57278
7.00302
1.53358
6.854
1.49453
6.70856
1.45643
6.56674
1.41934
6.4286
1.383
6.29412
1.34697
6.16317
1.31067
6.03573
1.27384
5.91184
1.23659
5.79154
1.1991
5.67491
1.16158
5.562
1.12421
5.45284
1.08698
5.34744
1.04965
5.24587
1.01198
5.14818
0.973757
5.0544
0.934961
4.96457
0.895743
4.87874
0.856855
4.79648
0.820958
4.71819
0.781007
4.64399
0.740194
4.57392
0.699146
4.50799
0.658031
4.44619
0.616932
4.38851
0.575993
4.33484
0.535332
4.28517
0.494706
4.23954
0.453837
4.198
0.412524
4.1606
0.370591
4.12738
0.32798
4.09833
0.284754
4.07345
0.240991
4.05277
0.19672
4.03648
0.151819
4.0249
0.10607
4.01822
0.0592547
4.01659
0.0111535
4.02007
-0.0378857
4.02866
-0.0873321
4.04243
-0.138383
4.06142
-0.190678
4.08566
-0.244242
-0.299066
16.8933
-0.042023
16.8734
0.215661
16.8314
0.455815
16.7697
0.673195
16.6898
0.872431
16.5937
1.05192
16.4827
1.21551
16.3581
1.36367
16.2214
1.49823
16.0734
1.62179
15.9152
1.73371
15.7478
1.83657
15.5719
1.92881
15.3887
2.0119
15.1988
2.08392
15.0032
2.1472
14.8028
2.19983
14.598
2.24729
14.3892
2.28814
14.1772
2.32468
13.962
2.35721
13.7445
2.38312
13.5254
2.40334
13.3049
2.41805
13.0838
2.42746
12.8622
2.43325
12.6402
2.43644
12.4183
2.43611
12.1967
2.4333
11.9753
2.42821
11.7548
2.41974
11.5354
2.40865
11.3171
2.39533
11.1006
2.37912
10.8859
2.36167
10.6729
2.34292
10.4621
2.32082
10.2536
2.29605
10.0473
2.268
9.84366
2.23686
9.64267
2.20581
9.44427
2.1752
9.24882
2.14477
9.05647
2.11462
8.86712
2.08358
8.68072
2.05126
8.49714
2.01762
8.31642
1.98264
8.13887
1.94725
7.96474
1.91217
7.79421
1.8774
7.62738
1.8428
7.46419
1.8075
7.30467
1.76988
7.1489
1.72855
6.99659
1.68589
6.84768
1.64344
6.7023
1.60181
6.56052
1.56112
6.42239
1.52114
6.28786
1.48149
6.15684
1.44169
6.02929
1.40139
5.90528
1.3606
5.78486
1.31952
5.66811
1.27833
5.55509
1.23723
5.44586
1.19621
5.34044
1.15507
5.23889
1.11353
5.14126
1.07138
5.0476
1.02863
4.9579
0.985439
4.87216
0.942595
4.78998
0.903138
4.71169
0.859303
4.63738
0.814502
4.56711
0.769413
4.50091
0.72423
4.4388
0.679043
4.38077
0.63402
4.32672
0.589382
4.27664
0.544788
4.23061
0.499869
4.18871
0.454426
4.15097
0.408328
4.1174
0.361544
4.08801
0.314143
4.06284
0.266163
4.04202
0.217533
4.02577
0.168073
4.01427
0.117569
4.00768
0.0658426
4.00614
0.0126981
4.0097
-0.0414507
4.01838
-0.0960082
4.03223
-0.152232
4.05125
-0.209696
4.07544
-0.268433
-0.328447
16.8911
-0.0464271
16.871
0.235762
16.8289
0.497923
16.7669
0.735152
16.6869
0.952436
16.5906
1.14826
16.4794
1.3267
16.3547
1.48843
16.2177
1.63519
16.0694
1.77006
15.9111
1.89203
15.7435
2.00415
15.5676
2.10468
15.3844
2.19513
15.1946
2.27378
14.9989
2.34288
14.7982
2.40046
14.5931
2.45248
14.3839
2.49729
14.1715
2.53705
13.9561
2.57262
13.7385
2.60074
13.5193
2.62251
13.2988
2.63861
13.0775
2.64872
12.8559
2.65489
12.6338
2.65851
12.4118
2.65815
12.19
2.65511
11.9684
2.6498
11.7475
2.64057
11.5279
2.6283
11.3095
2.61372
11.0928
2.59578
10.8782
2.57636
10.6653
2.55579
10.4546
2.53155
10.2462
2.50439
10.0401
2.47414
9.83636
2.44056
9.63523
2.40694
9.43663
2.3738
9.24095
2.34044
9.04842
2.30715
8.85889
2.27311
8.67229
2.23786
8.48852
2.2014
8.30761
2.16355
8.12995
2.1249
7.95584
2.08628
7.78542
2.04781
7.61885
2.00938
7.45604
1.9703
7.29695
1.92898
7.1415
1.884
6.98939
1.838
6.84057
1.79225
6.69523
1.74715
6.55348
1.70288
6.41532
1.6593
6.28072
1.61609
6.14961
1.5728
6.02196
1.52904
5.89783
1.48474
5.7773
1.44004
5.66044
1.39519
5.54734
1.35033
5.43806
1.30549
5.33265
1.26048
5.23117
1.21501
5.13367
1.16889
5.04017
1.12213
4.95063
1.07497
4.86499
1.02823
4.78288
0.985245
4.70457
0.937613
4.63014
0.888935
4.55964
0.839911
4.49313
0.790743
4.43063
0.74154
4.37216
0.692489
4.31764
0.643904
4.26709
0.595336
4.22062
0.546339
4.17833
0.49672
4.14025
0.446405
4.1064
0.395388
4.07682
0.343723
4.05157
0.29141
4.03078
0.238322
4.0146
0.184248
4.00319
0.12898
3.99668
0.0723554
3.9952
0.0141814
3.99882
-0.0450737
4.00755
-0.104738
4.02142
-0.166103
4.04039
-0.228663
4.06442
-0.292468
-0.357585
16.8888
-0.0512433
16.8684
0.25609
16.8262
0.54021
16.764
0.797296
16.6838
1.03262
16.5873
1.2448
16.4759
1.43809
16.3509
1.61344
16.2137
1.77243
16.0651
1.91861
15.9066
2.05058
15.7388
2.17188
15.5629
2.28059
15.3797
2.37831
15.1899
2.46359
14.9942
2.53862
14.7933
2.60135
14.5877
2.65807
14.3781
2.7069
14.1653
2.7498
13.9497
2.78826
13.7319
2.81851
13.5127
2.84176
13.2921
2.85922
13.0707
2.87006
12.849
2.8766
12.6269
2.88066
12.4047
2.88035
12.1827
2.87711
11.9608
2.87162
11.7398
2.86166
11.5199
2.84818
11.3013
2.83224
11.0846
2.81255
10.8699
2.79107
10.6571
2.76856
10.4465
2.74216
10.2383
2.71259
10.0322
2.68018
9.82843
2.64436
9.62711
2.60826
9.42827
2.57263
9.23234
2.53638
9.03959
2.4999
8.84986
2.46284
8.66305
2.42466
8.4791
2.38535
8.29805
2.3446
8.12032
2.30264
7.94625
2.26035
7.77598
2.21808
7.60964
2.17571
7.44721
2.13274
7.28852
2.08766
7.13334
2.03918
6.98137
1.98997
6.83262
1.941
6.68729
1.89248
6.54553
1.84463
6.40734
1.7975
6.27266
1.75077
6.14146
1.704
6.01371
1.6568
5.88946
1.60898
5.76883
1.56067
5.6519
1.51212
5.53874
1.46349
5.42944
1.41478
5.32409
1.36583
5.22273
1.31638
5.12539
1.26623
5.03206
1.21545
4.94269
1.16435
4.85714
1.11378
4.77508
1.0673
4.69674
1.01596
4.62217
0.963506
4.55142
0.910655
4.48457
0.857593
4.42165
0.804459
4.36269
0.751452
4.30766
0.698927
4.25667
0.646327
4.20983
0.593185
4.16722
0.539327
4.1289
0.484727
4.09488
0.429405
4.06521
0.373393
4.03995
0.316663
4.01922
0.25906
4.00311
0.200355
3.99176
0.140331
3.98529
0.0788226
3.98384
0.0156266
3.9875
-0.0487335
3.99626
-0.113489
4.01009
-0.179933
4.0289
-0.247473
4.05265
-0.31622
-0.386367
16.8863
-0.0564855
16.8657
0.276716
16.8232
0.582693
16.7608
0.859644
16.6805
1.11299
16.5837
1.34155
16.4721
1.54972
16.3468
1.73871
16.2093
1.90999
16.0604
2.06745
15.9016
2.20939
15.7337
2.33976
15.5578
2.45652
15.3747
2.56143
15.1849
2.65334
14.9891
2.73442
14.788
2.80253
14.5819
2.86408
14.3718
2.91701
14.1587
2.96298
13.9428
3.00415
13.7249
3.03644
13.5055
3.0611
13.2849
3.07989
13.0634
3.09149
12.8416
3.0984
12.6194
3.1029
12.397
3.10271
12.1748
3.09933
11.9528
3.09365
11.7314
3.08299
11.5113
3.06828
11.2927
3.0509
11.0758
3.02943
10.861
3.00583
10.6484
2.98124
10.4378
2.95268
10.2297
2.9207
10.0237
2.88617
9.81981
2.84829
9.61825
2.80982
9.41915
2.77173
9.22293
2.7326
9.02994
2.69289
8.84002
2.65276
8.65302
2.61165
8.46894
2.56943
8.2878
2.52573
8.11004
2.4804
7.93605
2.43434
7.76593
2.3882
7.59982
2.34183
7.43771
2.29484
7.27939
2.24599
7.12439
2.19418
6.9725
2.14185
6.82378
2.08973
6.67843
2.03783
6.53664
1.98643
6.39839
1.93574
6.26363
1.88552
6.13234
1.83529
6.00451
1.78463
5.88018
1.73331
5.75947
1.68139
5.64248
1.62911
5.52929
1.57668
5.42002
1.52405
5.31476
1.47108
5.21356
1.41758
5.11639
1.3634
5.02323
1.30861
4.93399
1.25359
4.8485
1.19928
4.76647
1.14934
4.68806
1.09436
4.61335
1.03822
4.54236
0.98164
4.47517
0.924781
4.41183
0.867802
4.35237
0.81091
4.29689
0.754414
4.24552
0.697689
4.19839
0.640315
4.15557
0.582149
4.1171
0.523202
4.08299
0.46351
4.05329
0.40309
4.02806
0.341892
4.00737
0.27975
3.99131
0.216416
3.97999
0.15165
3.97354
0.0852657
3.97213
0.0170443
3.97581
-0.0524195
3.98455
-0.122226
3.99826
-0.193639
4.01678
-0.265996
4.0401
-0.339537
-0.414671
16.8836
-0.062097
16.8627
0.297633
16.82
0.625388
16.7575
0.922212
16.6769
1.19357
16.5799
1.43853
16.468
1.6616
16.3424
1.86427
16.2046
2.04787
16.0554
2.21661
15.8963
2.36848
15.7282
2.50783
15.5523
2.63248
15.3692
2.7445
15.1795
2.84302
14.9837
2.93025
14.7822
3.004
14.5758
3.07053
14.3652
3.12761
14.1515
3.1766
13.9354
3.22031
13.7173
3.25454
13.4978
3.28058
13.2771
3.30062
13.0555
3.31303
12.8336
3.32032
12.6113
3.32523
12.3888
3.32522
12.1664
3.32175
11.9442
3.31586
11.7226
3.30451
11.5023
3.28857
11.2836
3.26968
11.0666
3.24641
10.8518
3.22065
10.6391
3.19387
10.4287
3.16315
10.2206
3.1288
10.0146
3.09218
9.81044
3.05241
9.60857
3.01169
9.40919
2.97112
9.21268
2.92911
9.01945
2.88611
8.82937
2.84285
8.64223
2.79878
8.45807
2.7536
8.27692
2.70688
8.09918
2.65814
7.92527
2.60825
7.75532
2.55815
7.58939
2.50775
7.42756
2.45668
7.26952
2.40402
7.11463
2.34907
6.96275
2.29373
6.814
2.23847
6.6686
2.18324
6.52674
2.12829
6.38843
2.07405
6.25361
2.02035
6.12224
1.96666
5.99435
1.91252
5.86997
1.8577
5.7492
1.80215
5.63218
1.74613
5.51902
1.68984
5.40981
1.63326
5.30468
1.57622
5.20364
1.51862
5.10665
1.46039
5.01363
1.40163
4.92448
1.34274
4.839
1.28475
4.75696
1.23138
4.67848
1.17284
4.60362
1.11309
4.53241
1.05285
4.4649
0.992282
4.40117
0.931538
4.34126
0.870816
4.28539
0.810281
4.23376
0.749324
4.18644
0.687632
4.14349
0.625102
4.10493
0.561759
4.07079
0.497649
4.0411
0.432779
4.0159
0.367089
3.99524
0.300403
3.97921
0.23245
3.96791
0.162951
3.96149
0.0916858
3.9601
0.0184286
3.96381
-0.0561215
3.97246
-0.130884
3.98591
-0.207085
4.00397
-0.284054
4.02669
-0.362258
-0.442389
16.8798
-0.0669374
16.8595
0.317899
16.8166
0.668237
16.7538
0.985015
16.673
1.27438
16.5758
1.53576
16.4636
1.77375
16.3378
1.99014
16.1995
2.18612
16.05
2.36612
15.8906
2.52788
15.7223
2.67612
15.5463
2.80851
15.3633
2.92755
15.1737
3.03263
14.9778
3.12611
14.776
3.20574
14.5692
3.27739
14.3581
3.3387
14.144
3.39067
13.9276
3.43676
13.7093
3.47284
13.4896
3.50023
13.2688
3.52146
13.0471
3.5347
12.825
3.54239
12.6026
3.54767
12.3799
3.54788
12.1573
3.54435
11.935
3.53819
11.7134
3.52615
11.4929
3.50901
11.2741
3.48855
11.057
3.46348
10.8421
3.43555
10.6295
3.4065
10.419
3.37363
10.2108
3.33697
10.0047
3.29832
9.80027
3.25681
9.59804
3.21392
9.39834
3.17081
9.20157
3.12588
9.00813
3.07955
8.81792
3.03306
8.63072
2.98598
8.44654
2.93777
8.26545
2.88796
8.08778
2.83581
7.91397
2.78206
7.74416
2.72796
7.5784
2.67351
7.41676
2.61832
7.2589
2.56188
7.10402
2.50395
6.95208
2.44567
6.80326
2.38729
6.65776
2.32873
6.5158
2.27025
6.37742
2.21242
6.24255
2.15522
6.11113
2.09807
5.98321
2.04045
5.85881
1.98209
5.73803
1.92293
5.62103
1.86313
5.50793
1.80293
5.39883
1.74235
5.29384
1.68121
5.19297
1.61948
5.09613
1.55723
5.0032
1.49456
4.91407
1.43187
4.82858
1.37024
4.74652
1.31344
4.66793
1.25143
4.59292
1.1881
4.52151
1.12427
4.45373
1.06006
4.38966
0.995611
4.3294
0.93108
4.27326
0.866414
4.22146
0.801131
4.17403
0.735053
4.13102
0.668115
4.09244
0.600343
4.0583
0.53178
4.02864
0.462437
4.00348
0.392249
3.98286
0.321025
3.96685
0.24846
3.95557
0.174225
3.9492
0.0980619
3.94786
0.0197671
3.95154
-0.0597999
3.95997
-0.139319
3.97293
-0.220042
3.9903
-0.301424
4.0123
-0.38426
-0.469452
16.8768
-0.0726076
16.8561
0.33857
16.813
0.711333
16.75
1.04808
16.6689
1.35543
16.5714
1.63327
16.459
1.88619
16.3328
2.11632
16.1942
2.32473
16.0444
2.51597
15.8846
2.68762
15.7161
2.84466
15.5399
2.98465
15.3569
3.11061
15.1673
3.22223
14.9714
3.32202
14.7694
3.40772
14.5622
3.48463
14.3506
3.55024
14.1361
3.60521
13.9193
3.65352
13.7008
3.69138
13.4809
3.7201
13.2599
3.74246
13.0381
3.75653
12.8158
3.76465
12.5932
3.77024
12.3705
3.77067
12.1477
3.76708
11.9253
3.76058
11.7036
3.74785
11.4831
3.72955
11.2642
3.70748
11.047
3.68062
10.832
3.65057
10.6193
3.61919
10.4088
3.58419
10.2004
3.54534
9.994
3.50471
9.78925
3.46156
9.58661
3.41656
9.3866
3.37081
9.1896
3.32288
8.99599
3.27317
8.80571
3.22334
8.61851
3.17318
8.43439
3.1219
8.25342
3.06893
8.07586
3.01337
7.90215
2.95578
7.73246
2.89765
7.56683
2.83914
7.4053
2.77985
7.24751
2.71967
7.09255
2.65891
6.94046
2.59776
6.79151
2.53625
6.64588
2.47436
6.50378
2.41235
6.36531
2.35089
6.23041
2.29013
6.09899
2.22949
5.97107
2.16836
5.84671
2.10646
5.72597
2.04367
5.60902
1.98008
5.49603
1.91592
5.38708
1.8513
5.28225
1.78605
5.18152
1.72021
5.08479
1.65396
4.9919
1.58745
4.90275
1.52103
4.8172
1.45579
4.7351
1.39555
4.65641
1.33012
4.58124
1.26326
4.50965
1.19586
4.44165
1.12805
4.37732
1.05994
4.31683
0.991577
4.26055
0.922687
4.20868
0.853008
4.16123
0.7825
4.11821
0.711128
4.07965
0.638904
4.04556
0.565868
4.01596
0.492042
3.99084
0.417361
3.97026
0.341606
3.95429
0.264426
3.94308
0.185439
3.93679
0.104357
3.93548
0.021073
3.93898
-0.0632949
3.9468
-0.14714
3.95889
-0.232134
3.97546
-0.317992
3.99675
-0.405552
-0.49587
16.8737
-0.0790979
16.8526
0.359698
16.8092
0.754698
16.7459
1.11141
16.6646
1.43673
16.5668
1.73107
16.4541
1.99891
16.3276
2.24281
16.1886
2.4637
16.0384
2.66618
15.8783
2.8477
15.7095
3.01349
15.5332
3.16096
15.35
3.29375
15.1604
3.41185
14.9644
3.51797
14.7623
3.60991
14.5547
3.69216
14.3428
3.76218
14.1278
3.82018
13.9107
3.87062
13.6919
3.91019
13.4718
3.94026
13.2505
3.96368
13.0285
3.97857
12.806
3.98715
12.5833
3.99298
12.3603
3.99358
12.1375
3.98991
11.9151
3.98298
11.6935
3.96952
11.4729
3.95011
11.2539
3.92645
11.0367
3.89783
10.8216
3.86573
10.6087
3.832
10.398
3.79491
10.1893
3.75403
9.98255
3.7115
9.77736
3.66675
9.57429
3.61964
9.37399
3.57112
9.1768
3.52006
8.98306
3.46691
8.79277
3.41363
8.60565
3.3603
8.42165
3.3059
8.24084
3.24974
8.06343
3.19078
7.88981
3.12939
7.72023
3.06723
7.55467
3.0047
7.39316
2.94137
7.23529
2.87753
7.08018
2.81402
6.92788
2.75005
6.77873
2.6854
6.63292
2.62017
6.49064
2.55463
6.35206
2.48947
6.21714
2.42505
6.08577
2.36086
5.95792
2.29621
5.83365
2.23073
5.71301
2.16431
5.59618
2.09691
5.48333
2.02877
5.37456
1.96007
5.26989
1.89073
5.16928
1.82082
5.0726
1.75063
4.97971
1.68035
4.89048
1.61025
4.80485
1.54143
4.7227
1.4777
4.64389
1.40893
4.56857
1.33858
4.49681
1.26762
4.42865
1.19621
4.36417
1.12442
4.30359
1.05216