/*--------------------------------*- C++ -*----------------------------------*\
| =========                 |                                                 |
| \\      /  F ield         | OpenFOAM: The Open Source CFD Toolbox           |
|  \\    /   O peration     | Version:  4.1                                   |
|   \\  /    A nd           | Web:      www.OpenFOAM.org                      |
|    \\/     M anipulation  |                                                 |
\*---------------------------------------------------------------------------*/
FoamFile
{
    version     2.0;
    format      ascii;
    class       volVectorField;
    location    "9";
    object      U;
}
// * * * * * * * * * * * * * * * * * * * * * * * * * * * * * * * * * * * * * //

dimensions      [0 1 -1 0 0 0 0];

internalField   nonuniform List<vector> 
26785
(
(5.41259e-20 0.000235752 0.138057)
(-5.87098e-18 0.000234642 0.132823)
(-2.22909e-19 0.000233778 0.127765)
(2.00041e-17 0.00023254 0.122909)
(3.76335e-17 0.000231068 0.118249)
(-4.47024e-15 0.000229267 0.113777)
(-2.81409e-17 0.000227275 0.109486)
(-1.35652e-17 0.000225036 0.105367)
(2.04399e-15 0.000222691 0.101414)
(-1.83727e-15 0.000220184 0.0976197)
(-1.11568e-17 0.000217618 0.0939763)
(-3.27991e-20 0.000214918 0.0904769)
(-8.68106e-23 0.000212152 0.0871155)
(8.36328e-21 0.000209311 0.0838858)
(-1.48306e-18 0.000206333 0.0807826)
(-1.43195e-20 0.00020333 0.0778007)
(1.2955e-18 0.000200203 0.0749352)
(6.96534e-21 0.000197058 0.0721816)
(-5.42766e-19 0.000193861 0.0695352)
(1.22528e-16 0.000190661 0.0669914)
(-4.44067e-19 0.000187388 0.0645462)
(-5.30872e-19 0.000184174 0.0621953)
(1.14383e-16 0.000180928 0.0599344)
(5.07411e-18 0.000177675 0.0577602)
(-1.28361e-15 0.000174497 0.0556686)
(-4.77181e-18 0.000171253 0.0536564)
(-1.13077e-20 0.000168051 0.0517205)
(1.5502e-18 0.000164902 0.0498574)
(-4.96742e-16 0.000161733 0.0480643)
(-4.88595e-16 0.00015861 0.0463384)
(-5.2005e-16 0.00015553 0.0446768)
(6.57533e-16 0.000152402 0.0430771)
(2.04225e-18 0.00014932 0.0415372)
(-1.0175e-16 0.000146299 0.0400546)
(-9.29039e-16 0.000143252 0.038627)
(-2.24839e-18 0.000140265 0.0372526)
(-2.64486e-21 0.000137297 0.0359291)
(-2.69641e-24 0.000134245 0.0346552)
(9.36401e-22 0.000131203 0.0334298)
(-8.93018e-19 0.00012818 0.032251)
(4.45342e-16 0.000125173 0.0311174)
(9.54995e-19 0.000122311 0.0300269)
(1.44984e-18 0.000119594 0.0289769)
(-8.02537e-16 0.000116955 0.0279652)
(-9.25554e-19 0.000114382 0.0269902)
(-2.90774e-16 0.000111782 0.0260507)
(-5.46068e-19 0.000109098 0.0251461)
(-3.20746e-22 0.000106373 0.0242759)
(-1.01515e-19 0.000103689 0.0234393)
(-4.70785e-19 0.000101127 0.0226347)
(3.84288e-16 9.87051e-05 0.02186)
(5.29934e-19 9.63831e-05 0.0211137)
(4.85217e-22 9.40825e-05 0.0203945)
(-7.70345e-20 9.17289e-05 0.0197019)
(7.96435e-20 8.92884e-05 0.0190357)
(2.84555e-19 8.6781e-05 0.0183959)
(-2.49434e-16 8.42639e-05 0.017782)
(-2.82034e-19 8.18096e-05 0.0171933)
(4.17539e-19 7.94654e-05 0.0166285)
(-3.38829e-16 7.72395e-05 0.0160862)
(-3.46322e-19 7.50933e-05 0.0155651)
(-6.26417e-20 7.29595e-05 0.0150646)
(1.15014e-19 7.07976e-05 0.0145843)
(-1.28174e-16 6.8617e-05 0.0141237)
(-1.15269e-19 6.64459e-05 0.0136826)
(-5.06999e-23 6.43217e-05 0.0132602)
(1.65327e-24 6.22605e-05 0.0128558)
(6.28625e-23 6.02548e-05 0.0124686)
(-5.10615e-20 5.82807e-05 0.012098)
(1.42424e-19 5.63167e-05 0.0117435)
(-1.9781e-16 5.43556e-05 0.0114048)
(-1.74527e-19 5.23944e-05 0.0110813)
(-8.63578e-23 5.04376e-05 0.0107729)
(8.43016e-24 4.84786e-05 0.0104788)
(-7.56507e-20 4.66023e-05 0.0101983)
(1.55316e-16 4.47312e-05 0.00993124)
(9.93863e-20 4.28737e-05 0.00967753)
(2.71009e-23 4.10334e-05 0.00943689)
(3.8108e-21 3.92144e-05 0.00920897)
(-3.68347e-24 3.7414e-05 0.00899343)
(2.8242e-20 3.56308e-05 0.00878992)
(-5.26985e-17 3.38663e-05 0.00859813)
(-2.93869e-20 3.21128e-05 0.00841776)
(3.2562e-20 3.03587e-05 0.00824857)
(-4.15556e-17 2.85987e-05 0.00809037)
(-1.85659e-20 2.68326e-05 0.00794299)
(-1.08483e-20 2.50592e-05 0.00780628)
(2.98775e-20 2.32753e-05 0.0076801)
(-6.39751e-17 2.14793e-05 0.00756432)
(-3.16014e-20 1.96727e-05 0.00745883)
(-7.76086e-24 1.78577e-05 0.00736348)
(-3.18208e-27 1.60396e-05 0.00727813)
(6.38277e-24 1.42272e-05 0.00720261)
(-6.7441e-21 1.24146e-05 0.00713674)
(-3.74065e-21 1.05895e-05 0.0070804)
(8.61849e-18 8.73396e-06 0.0070334)
(1.82052e-21 6.84833e-06 0.00699571)
(-1.21599e-24 4.91533e-06 0.00696744)
(-6.09416e-28 2.9375e-06 0.00694863)
(-1.38682e-31 9.45849e-07 0.00693923)
(2.30781e-17 0.000706053 0.138049)
(-2.65804e-15 0.000703909 0.132821)
(-2.16967e-17 0.000701327 0.127763)
(-1.41824e-17 0.000697621 0.122908)
(2.41462e-15 0.000693196 0.118248)
(-2.23242e-15 0.000687811 0.113775)
(2.14077e-15 0.000681811 0.109484)
(2.80271e-17 0.00067511 0.105365)
(-2.03629e-15 0.000668042 0.101412)
(-1.53194e-17 0.000660548 0.0976176)
(-5.34097e-20 0.000652828 0.0939741)
(-7.21518e-23 0.000644766 0.0904748)
(-2.29734e-20 0.000636425 0.0871134)
(8.34643e-18 0.000627945 0.0838836)
(-1.58669e-15 0.00061897 0.0807804)
(-1.53552e-17 0.000609999 0.0777985)
(1.53705e-15 0.000600619 0.074933)
(6.06073e-18 0.000591174 0.0721794)
(4.86369e-19 0.000581568 0.0695329)
(-1.24848e-16 0.000571964 0.0669891)
(-1.39818e-15 0.000562144 0.0645439)
(-1.16081e-16 0.000552509 0.062193)
(-1.34244e-15 0.000542801 0.0599321)
(-5.33724e-18 0.000533023 0.0577579)
(1.08059e-18 0.000523505 0.0556664)
(-5.69919e-16 0.000513772 0.0536541)
(-2.47087e-18 0.000504136 0.0517182)
(-6.72039e-21 0.000494705 0.0498552)
(1.17225e-18 0.000485194 0.0480621)
(-4.90709e-16 0.000475804 0.0463362)
(5.15216e-16 0.000466588 0.0446745)
(1.97686e-18 0.000457206 0.0430748)
(-1.70182e-19 0.000447925 0.041535)
(1.00001e-18 0.000438892 0.0400524)
(-4.86006e-16 0.00042976 0.0386248)
(-1.1758e-18 0.000420771 0.0372504)
(-1.42456e-21 0.000411904 0.0359269)
(-1.3966e-24 0.000402756 0.034653)
(3.58875e-23 0.000393584 0.0334275)
(2.21646e-22 0.000384531 0.0322488)
(-3.58042e-19 0.000375508 0.0311153)
(2.77451e-16 0.000366894 0.0300248)
(-9.29948e-19 0.000358776 0.0289748)
(8.05239e-16 0.00035089 0.0279632)
(1.41807e-18 0.000343162 0.0269882)
(3.14697e-19 0.000335358 0.0260486)
(-2.55993e-16 0.000327269 0.025144)
(1.9102e-19 0.000319045 0.0242739)
(-3.96842e-16 0.000310993 0.0234373)
(2.72755e-16 0.000303351 0.0226327)
(-2.69995e-16 0.000296125 0.0218581)
(-3.73508e-19 0.000289176 0.0211118)
(4.31411e-19 0.000282282 0.0203926)
(-3.41728e-16 0.000275213 0.0197)
(3.63384e-16 0.000267869 0.0190337)
(7.73323e-19 0.000260319 0.0183939)
(-3.54728e-16 0.000252737 0.0177801)
(-7.08449e-19 0.000245363 0.0171914)
(3.46345e-16 0.000238367 0.0166267)
(3.38912e-19 0.00023173 0.0160844)
(3.1943e-19 0.000225308 0.0155634)
(-3.3214e-16 0.000218899 0.0150629)
(-4.12706e-19 0.000212383 0.0145825)
(1.04746e-16 0.000205814 0.0141219)
(7.78051e-20 0.000199307 0.0136808)
(-2.72981e-23 0.000192948 0.0132584)
(1.89301e-20 0.000186782 0.0128541)
(2.39698e-19 0.000180774 0.0124669)
(-3.12993e-16 0.000174848 0.0120963)
(-2.42217e-19 0.000168955 0.0117419)
(1.00195e-19 0.000163074 0.0114031)
(-1.955e-16 0.000157192 0.0110797)
(-1.34983e-19 0.000151321 0.0107713)
(-7.92161e-20 0.000145455 0.0104772)
(1.45627e-16 0.000139809 0.0101967)
(-1.43161e-16 0.000134189 0.00992965)
(-9.1716e-20 0.000128618 0.00967595)
(-1.6431e-20 0.000123096 0.00943532)
(2.81311e-17 0.00011763 0.00920741)
(1.6906e-20 0.000112227 0.00899189)
(2.2758e-20 0.000106884 0.0087884)
(-4.23825e-17 0.00010159 0.00859661)
(-7.70707e-20 9.63276e-05 0.00841625)
(9.18019e-17 9.10671e-05 0.00824706)
(2.98388e-20 8.57919e-05 0.00808885)
(2.7451e-17 8.04958e-05 0.00794147)
(-8.94587e-17 7.51721e-05 0.00780475)
(-7.53199e-20 6.98142e-05 0.00767856)
(6.38726e-17 6.44193e-05 0.00756277)
(2.43775e-20 5.89931e-05 0.00745727)
(-4.19325e-24 5.35513e-05 0.00736192)
(-1.66562e-24 4.81077e-05 0.00727657)
(2.40546e-20 4.26692e-05 0.00720105)
(-6.09569e-17 3.72334e-05 0.00713518)
(-2.85479e-20 3.17732e-05 0.00707882)
(9.64864e-21 2.62248e-05 0.00703179)
(-2.04385e-17 2.05429e-05 0.00699407)
(-9.39244e-21 1.47282e-05 0.00696576)
(-2.16606e-24 8.81385e-06 0.00694693)
(-3.3303e-28 2.86357e-06 0.00693757)
(-2.23748e-17 0.00117677 0.138045)
(2.57645e-15 0.00117316 0.132818)
(2.98678e-17 0.00116887 0.127759)
(2.39053e-15 0.00116269 0.122904)
(2.40349e-15 0.00115532 0.118244)
(-2.19433e-15 0.00114633 0.113771)
(2.1471e-15 0.00113633 0.10948)
(1.20105e-17 0.00112516 0.105361)
(-3.012e-18 0.00111337 0.101408)
(-1.93215e-20 0.00110089 0.0976134)
(-6.48195e-23 0.00108801 0.0939699)
(8.14216e-22 0.00107461 0.0904705)
(8.86621e-22 0.00106069 0.087109)
(-1.28728e-19 0.00104659 0.0838792)
(-2.45645e-18 0.00103162 0.0807759)
(1.26584e-16 0.00101667 0.077794)
(1.54539e-15 0.00100101 0.0749284)
(-1.48803e-15 0.000985244 0.0721748)
(-1.39412e-16 0.000969208 0.0695284)
(1.71487e-16 0.000953214 0.0669845)
(-1.15561e-17 0.000936879 0.0645393)
(2.73572e-15 0.000920835 0.0621884)
(1.17381e-17 0.000904705 0.0599275)
(-5.95238e-16 0.000888393 0.0577533)
(-3.24498e-19 0.00087252 0.0556618)
(-5.19255e-16 0.000856296 0.0536495)
(-1.19453e-15 0.000840189 0.0517137)
(-3.856e-18 0.000824481 0.0498506)
(-5.37676e-21 0.000808646 0.0480575)
(-3.08912e-19 0.000792951 0.0463317)
(-8.26496e-19 0.000777592 0.04467)
(4.68642e-16 0.00076198 0.0430703)
(-4.60592e-16 0.000746471 0.0415305)
(-4.54375e-16 0.000731437 0.0400479)
(-1.54276e-18 0.000716261 0.0386204)
(9.67204e-20 0.00070125 0.037246)
(-2.46714e-19 0.000686501 0.0359225)
(-1.75612e-21 0.000671296 0.0346485)
(2.24718e-19 0.000655955 0.0334231)
(-2.12494e-19 0.00064087 0.0322444)
(-1.67936e-21 0.000625855 0.0311109)
(3.44462e-19 0.000611448 0.0300206)
(7.79118e-22 0.000597928 0.0289707)
(2.61466e-19 0.000584816 0.0279591)
(1.11604e-22 0.000571898 0.0269842)
(-2.15985e-22 0.000558848 0.0260445)
(-1.30851e-20 0.000545328 0.0251398)
(1.73224e-19 0.000531603 0.0242697)
(-1.38955e-19 0.00051822 0.0234333)
(2.02842e-20 0.000505549 0.0226288)
(-9.04934e-20 0.00049355 0.0218543)
(-4.83002e-20 0.000481972 0.021108)
(4.55417e-20 0.000470478 0.0203888)
(-4.1834e-20 0.000458688 0.0196961)
(5.31925e-19 0.000446411 0.0190298)
(-3.59306e-16 0.000433788 0.0183899)
(-9.328e-19 0.000421134 0.0177761)
(3.23981e-16 0.000408857 0.0171876)
(1.24139e-19 0.000397243 0.016623)
(3.13491e-16 0.000386222 0.0160808)
(3.20696e-19 0.00037551 0.0155598)
(-6.62569e-20 0.000364794 0.0150593)
(6.66417e-24 0.000353906 0.0145789)
(1.14833e-19 0.000342945 0.0141183)
(-1.03348e-16 0.000332124 0.0136772)
(-1.76442e-19 0.000321563 0.013255)
(1.23491e-16 0.000311304 0.0128507)
(8.45146e-20 0.000301301 0.0124636)
(-6.49131e-20 0.000291424 0.012093)
(4.26409e-23 0.000281598 0.0117385)
(-9.48189e-21 0.000271797 0.0113998)
(-5.52128e-20 0.000262003 0.0110764)
(2.68753e-17 0.000252224 0.010768)
(1.03372e-16 0.000242469 0.0104739)
(7.62441e-20 0.000233031 0.0101935)
(-6.09335e-21 0.000223646 0.00992646)
(7.28217e-23 0.000214342 0.00967279)
(-3.44071e-21 0.000205126 0.00943218)
(4.52801e-21 0.000196002 0.0092043)
(-2.47662e-24 0.000186983 0.00898881)
(-1.21505e-23 0.000178071 0.00878534)
(2.11152e-20 0.000169245 0.00859358)
(-5.24632e-17 0.000160471 0.00841322)
(-2.15772e-20 0.000151702 0.00824403)
(-3.10131e-23 0.000142911 0.00808582)
(3.73076e-21 0.000134085 0.00793842)
(-6.20848e-21 0.000125214 0.00780168)
(2.53945e-23 0.000116286 0.00767547)
(3.7156e-20 0.0001073 0.00755967)
(-6.31377e-17 9.8266e-05 0.00745416)
(-2.60774e-20 8.92077e-05 0.00735881)
(7.90679e-21 8.01589e-05 0.00727346)
(-2.39092e-17 7.11334e-05 0.00719793)
(-1.80762e-20 6.21003e-05 0.00713206)
(-3.11707e-26 5.3003e-05 0.00707567)
(9.13267e-21 4.37521e-05 0.00702858)
(-1.83626e-17 3.42939e-05 0.00699078)
(-7.1488e-21 2.4614e-05 0.00696241)
(9.73532e-25 1.47757e-05 0.00694354)
(2.69432e-26 4.86439e-06 0.00693423)
(2.79743e-19 0.00164744 0.138044)
(-4.06057e-17 0.0016424 0.132813)
(2.47493e-15 0.00163641 0.127754)
(2.42774e-15 0.00162774 0.122898)
(6.34707e-18 0.00161743 0.118238)
(2.22003e-15 0.00160482 0.113765)
(3.57722e-17 0.00159081 0.109473)
(-1.95879e-15 0.00157517 0.105355)
(-1.27782e-17 0.00155866 0.101402)
(-4.15428e-20 0.00154119 0.0976071)
(-1.16197e-20 0.00152315 0.0939635)
(1.59714e-18 0.00150442 0.090464)
(9.29259e-19 0.00148496 0.0871025)
(-1.65087e-16 0.00146524 0.0838726)
(-8.78294e-19 0.00144429 0.0807693)
(2.42553e-19 0.00142332 0.0777873)
(-5.09865e-18 0.00140134 0.0749216)
(1.44816e-15 0.00137923 0.072168)
(-1.45844e-15 0.00135674 0.0695215)
(-6.14248e-18 0.00133438 0.0669777)
(-5.53494e-18 0.00131161 0.0645324)
(1.36713e-15 0.00128917 0.0621815)
(5.29541e-18 0.00126665 0.0599206)
(-4.90528e-19 0.00124381 0.0577465)
(-3.57363e-22 0.00122152 0.0556549)
(-4.07412e-19 0.00119881 0.0536426)
(-1.10879e-18 0.00117622 0.0517068)
(1.71882e-19 0.0011542 0.0498438)
(2.9283e-21 0.00113206 0.0480507)
(-1.36745e-18 0.00111004 0.0463249)
(4.71344e-16 0.00108849 0.0446633)
(5.09501e-16 0.00106669 0.0430636)
(1.08065e-18 0.00104496 0.0415239)
(1.05616e-18 0.0010239 0.0400413)
(-4.84268e-16 0.00100273 0.0386138)
(3.41963e-16 0.000981709 0.0372394)
(-8.95399e-16 0.000961052 0.0359159)
(-3.89888e-18 0.000939853 0.0346419)
(8.71236e-16 0.000918351 0.0334164)
(-8.53468e-16 0.000897196 0.0322378)
(-3.58941e-18 0.000876225 0.0311044)
(9.59383e-16 0.000856014 0.0300142)
(2.26318e-18 0.000837036 0.0289646)
(-2.96753e-16 0.000818668 0.0279531)
(-5.21271e-19 0.000800497 0.0269781)
(-6.58051e-19 0.000782141 0.0260384)
(4.06186e-16 0.000763209 0.0251336)
(8.78047e-16 0.000744056 0.0242635)
(1.91099e-18 0.000725408 0.0234272)
(-3.90615e-16 0.000707729 0.0226229)
(-1.95067e-19 0.000690955 0.0218486)
(-2.67277e-16 0.000674727 0.0211024)
(2.61294e-16 0.000658606 0.0203832)
(3.70978e-16 0.000642088 0.0196903)
(4.61004e-19 0.000624859 0.0190239)
(3.42875e-19 0.000607147 0.018384)
(-3.57342e-16 0.000589458 0.0177702)
(3.48255e-16 0.000572321 0.0171819)
(-1.34265e-20 0.000556095 0.0166175)
(3.41489e-16 0.00054067 0.0160754)
(2.27388e-19 0.000525625 0.0155545)
(1.07855e-16 0.000510567 0.015054)
(1.03418e-19 0.000495319 0.0145735)
(7.78009e-23 0.000480007 0.014113)
(-1.12218e-19 0.000464908 0.013672)
(1.02911e-16 0.000450177 0.0132498)
(-9.96396e-17 0.000435832 0.0128456)
(-1.23086e-16 0.000421824 0.0124585)
(-9.80232e-20 0.000408004 0.012088)
(2.84989e-20 0.000394249 0.0117336)
(-7.39074e-17 0.000380532 0.0113948)
(-1.2464e-19 0.000366838 0.0110714)
(1.03361e-16 0.000353167 0.010763)
(-1.89838e-16 0.000339537 0.0104691)
(-1.57086e-16 0.00032627 0.0101887)
(1.54332e-16 0.0003131 0.00992167)
(1.18994e-19 0.000300037 0.00966803)
(-2.88738e-17 0.0002871 0.00942747)
(-1.77811e-20 0.000274297 0.00919963)
(5.94546e-21 0.000261644 0.00898418)
(6.15507e-23 0.000249148 0.00878076)
(-1.17985e-20 0.00023678 0.00858903)
(1.88682e-20 0.000224485 0.00840868)
(-5.25942e-17 0.0002122 0.00823949)
(-3.81225e-20 0.000199891 0.00808126)
(-2.4468e-20 0.000187545 0.00793385)
(5.04847e-17 0.000175142 0.00779709)
(2.5686e-20 0.00016266 0.00767085)
(2.87881e-20 0.000150098 0.00755503)
(-6.26214e-17 0.000137482 0.0074495)
(4.29064e-17 0.000124848 0.00735414)
(-2.43197e-17 0.00011223 0.0072688)
(-2.38501e-17 9.96351e-05 0.00719329)
(-1.12813e-20 8.70194e-05 0.00712739)
(-5.00394e-21 7.43055e-05 0.00707093)
(1.15986e-17 6.1369e-05 0.00702376)
(5.7393e-22 4.8139e-05 0.00698586)
(1.16742e-17 3.46178e-05 0.00695739)
(4.68056e-21 2.0867e-05 0.00693846)
(4.13714e-22 6.96368e-06 0.00692916)
(1.68125e-19 0.00211761 0.138045)
(-1.49185e-17 0.00211161 0.132806)
(-1.4209e-17 0.00210392 0.127747)
(2.40853e-15 0.00209278 0.122891)
(3.49143e-17 0.00207951 0.11823)
(-2.24213e-15 0.00206328 0.113758)
(2.14512e-15 0.00204524 0.109465)
(1.38142e-17 0.00202515 0.105346)
(6.24084e-20 0.00200387 0.101393)
(-1.9921e-18 0.00198144 0.0975987)
(-1.0153e-17 0.00195822 0.093955)
(1.71819e-15 0.00193422 0.0904554)
(7.55478e-19 0.00190922 0.0870938)
(1.62763e-15 0.00188389 0.0838638)
(7.78451e-18 0.00185697 0.0807604)
(1.34023e-16 0.00182994 0.0777783)
(6.58879e-19 0.00180159 0.0749126)
(8.01283e-19 0.0017731 0.0721589)
(-1.58172e-18 0.00174415 0.0695124)
(6.6602e-19 0.00171545 0.0669685)
(1.18339e-18 0.00168633 0.0645232)
(-1.1613e-16 0.00165753 0.0621724)
(5.73863e-20 0.00162865 0.0599114)
(2.08288e-19 0.00159928 0.0577373)
(-4.26538e-19 0.0015705 0.0556458)
(1.88469e-18 0.00154131 0.0536334)
(-5.6395e-16 0.00151224 0.0516977)
(5.05326e-16 0.00148385 0.0498348)
(1.57679e-18 0.0014554 0.0480417)
(-1.23862e-19 0.00142705 0.0463159)
(3.38146e-19 0.00139927 0.0446543)
(2.43524e-19 0.0013713 0.0430546)
(-1.18251e-18 0.00134339 0.0415149)
(4.56662e-16 0.00131625 0.0400324)
(-4.85576e-16 0.00128914 0.0386049)
(-8.72409e-19 0.00126214 0.0372306)
(-5.32072e-19 0.00123554 0.0359071)
(-1.16459e-21 0.00120841 0.0346329)
(4.85426e-19 0.00118076 0.0334075)
(-4.62012e-19 0.00115349 0.0322289)
(-5.329e-20 0.00112659 0.0310957)
(1.24174e-18 0.00110058 0.0300058)
(-4.30171e-16 0.00107609 0.0289564)
(-9.87058e-19 0.00105241 0.027945)
(-1.1482e-21 0.00102892 0.02697)
(-7.52006e-23 0.00100522 0.0260302)
(1.7964e-19 0.000980897 0.0251253)
(3.75256e-19 0.000956379 0.0242552)
(5.65396e-19 0.000932534 0.0234191)
(-3.89339e-16 0.00090987 0.0226151)
(-4.03714e-20 0.000888316 0.021841)
(-3.8033e-16 0.000867427 0.0210949)
(-4.0869e-19 0.000846647 0.0203756)
(1.33857e-19 0.000825376 0.0196826)
(-4.22472e-19 0.000803176 0.019016)
(3.59012e-16 0.00078036 0.018376)
(2.99331e-19 0.000757666 0.0177624)
(4.53937e-19 0.000735717 0.0171742)
(-3.21023e-16 0.000714887 0.0166101)
(-1.00494e-19 0.000695036 0.0160683)
(-1.35909e-16 0.000675625 0.0155474)
(1.32443e-16 0.000656194 0.0150468)
(1.26739e-19 0.0006366 0.0145663)
(-7.54995e-23 0.000616987 0.0141058)
(4.42194e-19 0.000597653 0.0136649)
(-5.38964e-16 0.000578781 0.0132429)
(-3.96973e-19 0.00056037 0.0128388)
(-1.22879e-16 0.000542352 0.0124518)
(5.9431e-20 0.000524587 0.0120814)
(-2.1241e-16 0.000506918 0.0117269)
(-1.83256e-19 0.000489293 0.0113882)
(-1.03814e-20 0.000471707 0.0110648)
(1.60438e-17 0.000454152 0.0107564)
(-1.02429e-16 0.000436659 0.0104625)
(-1.02443e-16 0.000419523 0.0101823)
(-1.44189e-16 0.000402537 0.00991528)
(2.78992e-17 0.000385686 0.00966168)
(-2.81386e-17 0.000369001 0.00942117)
(-4.71918e-20 0.000352494 0.00919339)
(5.34245e-17 0.000336189 0.00897801)
(8.7956e-20 0.000320093 0.00877465)
(-1.0649e-16 0.00030417 0.00858296)
(-7.57416e-21 0.000288342 0.00840263)
(-9.23065e-17 0.000272539 0.00823343)
(-9.08933e-17 0.000256732 0.0080752)
(-6.2495e-20 0.000240887 0.00792776)
(7.02015e-21 0.000224964 0.00779097)
(-7.05879e-24 0.000208942 0.0076647)
(-2.89217e-20 0.000192832 0.00754885)
(6.27788e-17 0.000176664 0.00744331)
(4.06255e-20 0.000160482 0.00734795)
(1.5751e-20 0.000144325 0.00726262)
(-4.22624e-17 0.000128189 0.00718709)
(-1.99039e-20 0.000112005 0.00712117)
(-2.49624e-21 9.56714e-05 0.00706464)
(1.19841e-17 7.90567e-05 0.00701734)
(1.8058e-17 6.20691e-05 0.0069793)
(1.18964e-20 4.47169e-05 0.00695071)
(-5.89867e-18 2.70579e-05 0.00693169)
(3.65595e-18 9.1343e-06 0.00692232)
(-2.31423e-17 0.00258826 0.137998)
(2.66356e-15 0.00258076 0.132797)
(2.68266e-17 0.0025714 0.127738)
(-1.12069e-17 0.00255778 0.122881)
(-8.01766e-21 0.00254155 0.118221)
(-2.23112e-17 0.00252169 0.113748)
(2.11039e-15 0.00249962 0.109455)
(2.07564e-15 0.00247506 0.105336)
(2.38987e-17 0.00244902 0.101383)
(-1.97418e-15 0.00242163 0.0975881)
(-2.0558e-17 0.00239323 0.0939443)
(1.75053e-15 0.00236396 0.0904446)
(9.81059e-18 0.00233347 0.0870829)
(2.24639e-18 0.00230253 0.0838528)
(1.55378e-20 0.00226966 0.0807492)
(-7.26568e-19 0.0022365 0.077767)
(7.01925e-18 0.00220174 0.0749012)
(-1.49679e-15 0.00216685 0.0721474)
(-1.29381e-17 0.00213143 0.069501)
(1.42627e-15 0.00209642 0.0669571)
(1.59338e-15 0.00206104 0.0645118)
(1.07025e-18 0.00202591 0.062161)
(1.33398e-15 0.00199067 0.0599)
(5.64638e-16 0.00195479 0.0577258)
(-1.23756e-15 0.00191944 0.0556343)
(-4.29797e-18 0.00188376 0.053622)
(-6.36844e-19 0.00184822 0.0516863)
(2.94276e-19 0.00181341 0.0498234)
(1.58909e-18 0.00177865 0.0480303)
(-4.90402e-16 0.00174398 0.0463047)
(-1.0052e-19 0.00170992 0.0446431)
(-4.73144e-16 0.00167581 0.0430433)
(-1.27353e-18 0.00164174 0.0415038)
(-8.84479e-19 0.00160849 0.0400214)
(4.80548e-16 0.00157546 0.0385939)
(4.78242e-16 0.00154252 0.0372197)
(1.11423e-18 0.00150996 0.0358961)
(1.26353e-21 0.00147691 0.0346218)
(-5.15878e-22 0.00144316 0.0333964)
(6.26902e-19 0.00140975 0.0322179)
(-3.12286e-16 0.00137693 0.0310848)
(-3.08357e-16 0.00134513 0.0299952)
(-8.42935e-20 0.00131506 0.0289461)
(-4.22838e-16 0.00128601 0.0279348)
(-7.41923e-19 0.00125714 0.0269598)
(-6.33146e-22 0.00122807 0.0260199)
(-3.13065e-22 0.00119839 0.0251149)
(3.93574e-20 0.00116858 0.0242449)
(3.83635e-20 0.00113961 0.0234091)
(-1.06075e-19 0.00111197 0.0226054)
(6.9579e-20 0.00108561 0.0218315)
(-9.64817e-20 0.00106003 0.0210855)
(5.63199e-22 0.00103455 0.0203662)
(2.54567e-23 0.00100849 0.019673)
(5.67772e-23 0.0009813 0.0190061)
(1.31951e-19 0.000953377 0.0183661)
(-5.25276e-22 0.000925726 0.0177526)
(3.97131e-19 0.000899029 0.0171647)
(-3.47004e-16 0.000873599 0.0166009)
(-3.65721e-19 0.000849282 0.0160593)
(-1.70107e-19 0.00082547 0.0155385)
(1.32548e-16 0.000801653 0.0150379)
(1.26305e-19 0.000777742 0.0145574)
(1.19792e-19 0.000753889 0.0140969)
(-1.04755e-16 0.000730362 0.0136561)
(-2.95918e-16 0.000707368 0.0132342)
(-1.2484e-16 0.000684904 0.0128303)
(-1.2367e-16 0.000662884 0.0124435)
(7.11818e-22 0.000641177 0.0120731)
(-1.07909e-16 0.000619605 0.0117187)
(-7.46204e-17 0.000598078 0.0113799)
(-5.45422e-20 0.000576599 0.0110566)
(-1.95135e-21 0.000555165 0.0107482)
(-8.84153e-20 0.000533811 0.0104544)
(1.17962e-16 0.000512774 0.0101742)
(5.40969e-20 0.000491939 0.00990726)
(-5.08134e-20 0.000471269 0.00965372)
(1.4029e-16 0.000450807 0.00941328)
(8.53504e-20 0.00043058 0.00918558)
(9.75269e-21 0.000410602 0.00897028)
(-2.32744e-20 0.000390881 0.00876699)
(5.29479e-17 0.000371387 0.00857536)
(4.322e-17 0.000352027 0.00839506)
(1.44333e-16 0.000332727 0.00822587)
(-4.14291e-17 0.000313443 0.00806763)
(-1.41664e-16 0.000294115 0.00792017)
(-7.30509e-20 0.000274693 0.00778334)
(-5.13381e-23 0.000255155 0.00765703)
(6.64409e-21 0.000235522 0.00754115)
(-1.1576e-20 0.000215835 0.00743559)
(4.38324e-17 0.000196137 0.00734024)
(2.96743e-20 0.000176464 0.00725491)
(-1.95587e-17 0.00015681 0.00717938)
(-1.9542e-20 0.000137065 0.0071134)
(2.38096e-17 0.000117106 0.00705677)
(1.16909e-17 9.67947e-05 0.00700933)
(8.47405e-21 7.60613e-05 0.00697112)
(-6.04074e-22 5.48842e-05 0.00694237)
(5.84899e-18 3.3303e-05 0.00692321)
(2.84331e-18 1.13323e-05 0.00691368)
(6.50114e-18 0.00305789 0.137985)
(-1.47484e-17 0.00304987 0.132786)
(2.49448e-15 0.00303883 0.127727)
(8.01268e-18 0.00302275 0.12287)
(1.54955e-17 0.00300354 0.118209)
(-2.08786e-15 0.00298005 0.113736)
(-1.08181e-17 0.00295393 0.109443)
(1.45451e-17 0.0029249 0.105324)
(-1.99606e-15 0.00289407 0.10137)
(-1.87524e-15 0.00286175 0.0975754)
(1.90571e-15 0.00282817 0.0939315)
(1.38054e-17 0.00279366 0.0904317)
(4.36962e-20 0.00275769 0.0870699)
(-1.90691e-20 0.00272113 0.0838396)
(7.82536e-18 0.00268232 0.0807359)
(-1.5463e-15 0.002643 0.0777535)
(-1.51985e-17 0.00260177 0.0748876)
(1.64673e-15 0.00256047 0.0721338)
(1.34536e-18 0.0025186 0.0694873)
(1.39123e-15 0.00247729 0.0669434)
(-1.39302e-15 0.00243574 0.0644981)
(-7.8199e-18 0.00239429 0.0621473)
(5.68973e-16 0.00235269 0.0598862)
(3.01281e-18 0.0023103 0.057712)
(-1.21995e-18 0.00226833 0.0556206)
(1.86977e-18 0.00222615 0.0536082)
(-5.58012e-16 0.00218415 0.0516726)
(-5.55253e-16 0.00214287 0.0498098)
(5.40103e-16 0.00210179 0.0480167)
(-5.26635e-16 0.00206083 0.0462911)
(-1.5238e-18 0.00202047 0.0446296)
(-3.7882e-19 0.00198021 0.0430299)
(-5.45986e-22 0.00194002 0.0414904)
(1.01249e-21 0.00190062 0.0400081)
(-7.05682e-19 0.00186166 0.0385807)
(4.38364e-16 0.00182282 0.0372065)
(1.02294e-18 0.00178427 0.0358829)
(1.16057e-21 0.00174533 0.0346085)
(-6.58283e-22 0.00170552 0.033383)
(6.28335e-19 0.00166594 0.0322046)
(-3.13634e-16 0.00162721 0.0310717)
(-2.87014e-19 0.00158964 0.0299825)
(-3.05372e-16 0.00155395 0.0289337)
(-7.9003e-19 0.00151945 0.0279225)
(-5.54582e-22 0.00148515 0.0269476)
(5.05733e-22 0.00145069 0.0260076)
(-6.21477e-19 0.00141571 0.0251025)
(3.98651e-16 0.00138067 0.0242326)
(3.95682e-16 0.00134662 0.0233971)
(6.63449e-16 0.00131402 0.0225937)
(7.40902e-16 0.0012828 0.0218201)
(6.45007e-16 0.00125248 0.0210743)
(8.58578e-19 0.00122225 0.0203549)
(5.56947e-22 0.00119136 0.0196614)
(-1.18279e-25 0.00115916 0.0189943)
(5.26686e-22 0.00112615 0.0183541)
(-3.79535e-19 0.00109361 0.0177409)
(3.24846e-16 0.00106222 0.0171533)
(-3.461e-16 0.0010322 0.0165899)
(-3.41958e-19 0.00100338 0.0160485)
(1.20289e-22 0.000975141 0.0155278)
(4.37228e-20 0.000946958 0.0150272)
(-2.92185e-19 0.000918764 0.0145467)
(3.25555e-16 0.000890716 0.0140863)
(1.7421e-19 0.000863034 0.0136456)
(1.02677e-16 0.000835929 0.0132239)
(-9.9589e-17 0.000809421 0.0128201)
(-1.0043e-16 0.000783409 0.0124334)
(2.13315e-16 0.000757762 0.0120631)
(4.80121e-20 0.000732296 0.0117087)
(1.23391e-16 0.000706876 0.01137)
(1.31841e-19 0.000681499 0.0110467)
(-6.17498e-17 0.000656185 0.0107383)
(1.03764e-16 0.000630964 0.0104446)
(-2.84741e-17 0.000605994 0.0101645)
(7.26507e-17 0.000581281 0.0098976)
(2.84139e-16 0.000556776 0.00964414)
(-2.93506e-17 0.000532519 0.00940379)
(-1.80191e-20 0.000508546 0.00917619)
(-2.94059e-20 0.000484877 0.00896098)
(5.38451e-17 0.000461521 0.0087578)
(-1.2013e-20 0.000438447 0.00856624)
(8.33219e-17 0.000415563 0.00838598)
(9.44228e-17 0.000392796 0.00821681)
(5.21673e-20 0.000370051 0.00805856)
(-2.17585e-20 0.000347255 0.00791107)
(6.83405e-23 0.000324356 0.0077742)
(-2.96075e-20 0.000301327 0.00764785)
(6.35331e-17 0.000278194 0.00753194)
(2.10501e-20 0.000255017 0.00742637)
(1.99049e-17 0.000231844 0.00733101)
(2.35507e-20 0.000208685 0.00724569)
(-4.2242e-17 0.000185505 0.00717014)
(-1.5714e-20 0.000162188 0.00710409)
(-2.88982e-21 0.000138595 0.00704733)
(2.12635e-17 0.000114574 0.00699971)
(1.15122e-17 9.00525e-05 0.00696131)
(1.61096e-17 6.50236e-05 0.00693237)
(7.4725e-21 3.95072e-05 0.00691301)
(2.56912e-18 1.34959e-05 0.00690322)
(2.72069e-15 0.003528 0.137975)
(2.33228e-17 0.00351894 0.132774)
(-2.34033e-17 0.00350622 0.127714)
(2.39841e-15 0.00348768 0.122857)
(1.83786e-17 0.00346547 0.118196)
(-4.10718e-18 0.00343835 0.113722)
(1.6712e-17 0.00340816 0.109429)
(-2.06172e-15 0.00337468 0.105309)
(-1.69826e-17 0.00333904 0.101356)
(-1.64669e-18 0.00330179 0.0975607)
(3.15686e-18 0.00326302 0.0939166)
(1.73337e-20 0.00322328 0.0904166)
(1.66574e-24 0.00318187 0.0870547)
(2.09805e-20 0.00313965 0.0838242)
(-7.82169e-18 0.00309492 0.0807202)
(1.54513e-15 0.00304941 0.0777377)
(7.46367e-18 0.00300167 0.0748716)
(1.64484e-18 0.00295397 0.0721178)
(-4.53488e-19 0.00290566 0.0694713)
(1.65406e-18 0.00285807 0.0669275)
(-1.64604e-18 0.00281043 0.0644822)
(-4.98753e-18 0.00276266 0.0621313)
(1.278e-15 0.00271466 0.0598702)
(1.31533e-15 0.0026658 0.057696)
(4.80743e-18 0.00261714 0.0556045)
(1.98018e-18 0.00256844 0.0535921)
(-5.64498e-16 0.00252001 0.0516566)
(5.05444e-16 0.00247223 0.0497939)
(2.07147e-18 0.00242482 0.0480009)
(-4.69365e-19 0.00237761 0.0462753)
(-1.052e-19 0.00233091 0.0446139)
(-1.26359e-21 0.0022845 0.0430142)
(-3.16827e-20 0.00223822 0.0414748)
(-3.16289e-20 0.00219262 0.0399927)
(-1.13938e-18 0.0021477 0.0385653)
(4.73848e-16 0.00210301 0.0371911)
(1.10331e-18 0.00205843 0.0358675)
(1.24908e-21 0.00201358 0.034593)
(-6.49508e-22 0.00196777 0.0333674)
(6.19882e-19 0.00192203 0.0321892)
(-3.08688e-16 0.00187741 0.0310565)
(-8.28815e-16 0.0018341 0.0299676)
(-4.32725e-16 0.00179274 0.0289192)
(-7.84438e-19 0.00175272 0.0279082)
(-6.95909e-22 0.00171295 0.0269332)
(-1.27819e-24 0.00167311 0.0259932)
(1.05698e-21 0.00163288 0.025088)
(-1.09524e-18 0.00159268 0.0242183)
(8.67703e-16 0.00155359 0.0233831)
(3.90842e-16 0.00151601 0.0225801)
(4.39408e-19 0.00147987 0.0218068)
(3.50885e-16 0.00144472 0.0210611)
(4.66407e-19 0.00140969 0.0203416)
(3.02055e-22 0.00137392 0.0196478)
(-2.39658e-22 0.00133667 0.0189804)
(4.05064e-19 0.00129865 0.0183403)
(-3.5684e-16 0.00126128 0.0177272)
(3.22527e-16 0.00122525 0.0171401)
(-1.45819e-19 0.00119065 0.016577)
(3.42032e-16 0.0011573 0.0160359)
(3.42093e-19 0.00112464 0.0155153)
(6.22098e-23 0.00109212 0.0150147)
(1.47122e-22 0.00105967 0.0145342)
(1.07153e-19 0.00102747 0.0140739)
(-1.7081e-20 0.000995662 0.0136334)
(2.87673e-19 0.000964459 0.0132119)
(-3.14414e-16 0.000933912 0.0128083)
(-1.00294e-16 0.000903914 0.0124217)
(-1.97466e-20 0.000874322 0.0120515)
(-7.71437e-20 0.000844954 0.0116971)
(1.06924e-16 0.000815652 0.0113584)
(7.80687e-20 0.00078638 0.0110351)
(-1.51252e-20 0.000757171 0.0107268)
(3.61997e-20 0.000728072 0.0104331)
(-2.78173e-17 0.000699158 0.0101531)
(2.54388e-20 0.000670544 0.00988632)
(-2.78606e-17 0.000642191 0.00963295)
(1.40614e-16 0.000614131 0.00939269)
(9.62312e-20 0.000586399 0.0091652)
(2.42015e-20 0.000559025 0.00895012)
(-4.38893e-17 0.000532029 0.00874705)
(-9.41543e-17 0.000505382 0.00855559)
(5.30388e-17 0.000478995 0.0083754)
(-2.61106e-21 0.000452775 0.00820626)
(9.07814e-17 0.000426592 0.00804801)
(3.91525e-20 0.000400342 0.00790049)
(-4.95172e-23 0.000373974 0.00776357)
(3.15473e-23 0.000347479 0.00763717)
(1.48603e-20 0.000320885 0.00752122)
(-1.26779e-17 0.000294252 0.00741564)
(1.55422e-20 0.000267627 0.00732029)
(-4.31581e-17 0.000241 0.00723497)
(-2.42047e-17 0.000214322 0.00715937)
(3.74894e-17 0.000187408 0.00709322)
(3.29406e-17 0.000160093 0.0070363)
(1.20172e-17 0.000132291 0.00698848)
(1.8242e-17 0.000103947 0.00694986)
(7.29711e-21 7.50432e-05 0.00692069)
(5.90562e-18 4.5589e-05 0.00690112)
(3.6559e-18 1.55731e-05 0.006891)
(2.73909e-15 0.00399806 0.137968)
(2.55976e-18 0.00398796 0.13276)
(2.48295e-15 0.00397356 0.1277)
(2.08652e-18 0.00395255 0.122842)
(8.93662e-17 0.00392734 0.11818)
(-1.44844e-17 0.00389658 0.113706)
(2.11856e-15 0.00386231 0.109413)
(1.05055e-17 0.00382438 0.105293)
(-1.17341e-17 0.00378393 0.101339)