/*--------------------------------*- C++ -*----------------------------------*\
| =========                 |                                                 |
| \\      /  F ield         | OpenFOAM: The Open Source CFD Toolbox           |
|  \\    /   O peration     | Version:  4.1                                   |
|   \\  /    A nd           | Web:      www.OpenFOAM.org                      |
|    \\/     M anipulation  |                                                 |
\*---------------------------------------------------------------------------*/
FoamFile
{
    version     2.0;
    format      ascii;
    class       volVectorField;
    location    "9";
    object      U;
}
// * * * * * * * * * * * * * * * * * * * * * * * * * * * * * * * * * * * * * //

dimensions      [0 1 -1 0 0 0 0];

internalField   nonuniform List<vector> 
26785
(
(1.04874e-15 -0.0089813 13.2149)
(1.06005e-15 -0.0101323 13.4238)
(1.134e-15 -0.011024 13.6593)
(1.4176e-15 -0.0102652 13.8648)
(6.92019e-16 -0.00941891 14.0493)
(9.87439e-16 -0.00801061 14.2033)
(1.01059e-15 -0.00603291 14.3281)
(1.20519e-15 -0.00362278 14.4107)
(6.2974e-16 6.10784e-05 14.443)
(1.4317e-15 0.00322388 14.4207)
(7.51959e-16 0.00618175 14.3473)
(9.23113e-16 0.00719419 14.2602)
(8.118e-16 0.00715651 14.1809)
(7.91429e-16 0.00649796 14.1189)
(8.15895e-16 0.00622506 14.0706)
(8.51251e-16 0.0070965 14.0331)
(8.98985e-16 0.00949548 13.978)
(8.30662e-16 0.0108345 13.8989)
(9.35733e-16 0.00976093 13.8154)
(1.45257e-15 0.006644 13.7745)
(6.98377e-16 0.00135651 13.7893)
(1.01857e-15 -0.00479518 13.8731)
(1.51569e-15 -0.00950112 14.0246)
(3.47043e-16 -0.0136964 14.2243)
(3.32626e-16 -0.0171831 14.4605)
(2.2717e-16 -0.0185706 14.7109)
(3.71458e-16 -0.0173599 14.948)
(6.03825e-16 -0.0149132 15.149)
(2.21984e-16 -0.0124136 15.3159)
(-1.20551e-17 -0.0102169 15.4508)
(5.15199e-16 -0.0079033 15.5594)
(9.06114e-16 -0.00532137 15.6358)
(8.48268e-16 -0.00316279 15.6834)
(1.3144e-15 -0.00214657 15.7138)
(2.79844e-16 -0.00247549 15.7418)
(6.92122e-16 -0.00352179 15.7783)
(9.62876e-16 -0.00421908 15.8254)
(1.02049e-15 -0.00391799 15.8748)
(9.62391e-16 -0.00251725 15.9163)
(1.15676e-15 -0.000231214 15.9402)
(1.45001e-15 0.00240861 15.942)
(9.71514e-16 0.00481054 15.9229)
(8.39442e-16 0.00636597 15.8875)
(1.17115e-15 0.00710194 15.8446)
(1.13857e-15 0.0074363 15.8006)
(1.28681e-15 0.00747832 15.7568)
(1.33565e-15 0.00702047 15.7123)
(1.2271e-15 0.00594091 15.6781)
(1.18246e-15 0.00453377 15.6563)
(1.35013e-15 0.00301022 15.6456)
(1.03679e-15 0.00158614 15.6461)
(9.67418e-16 0.000275952 15.6558)
(1.11857e-15 -0.000740511 15.6731)
(1.18171e-15 -0.00151213 15.6957)
(1.19148e-15 -0.00198812 15.7222)
(1.14021e-15 -0.00230011 15.7504)
(1.37464e-15 -0.00241852 15.7792)
(1.28254e-15 -0.00245456 15.8073)
(1.21303e-15 -0.00243728 15.835)
(1.43513e-15 -0.00247618 15.8617)
(1.14323e-15 -0.00252677 15.888)
(1.10922e-15 -0.00266207 15.9136)
(1.18111e-15 -0.00289827 15.9399)
(2.2428e-15 -0.00324361 15.9668)
(9.95437e-16 -0.00363319 15.9954)
(9.62816e-16 -0.00402222 16.0251)
(9.99414e-16 -0.00441084 16.0564)
(1.01101e-15 -0.00474207 16.0885)
(9.99047e-16 -0.00502453 16.1216)
(8.90399e-16 -0.0052351 16.1549)
(5.85786e-17 -0.00543099 16.1884)
(1.20173e-15 -0.00561907 16.2217)
(1.04393e-15 -0.00583772 16.2552)
(1.0473e-15 -0.00604001 16.2889)
(9.13732e-16 -0.00622549 16.3225)
(1.17081e-15 -0.0063092 16.3559)
(1.33162e-15 -0.00633505 16.3883)
(1.22138e-15 -0.00634049 16.42)
(1.21128e-15 -0.00638301 16.4508)
(1.19179e-15 -0.00641126 16.4809)
(1.12955e-15 -0.00640111 16.5102)
(3.9812e-16 -0.00629777 16.5386)
(1.35922e-15 -0.00606565 16.5653)
(1.29725e-15 -0.0056986 16.59)
(6.60219e-16 -0.00520764 16.6118)
(1.04525e-15 -0.00464815 16.6305)
(1.1504e-15 -0.00405443 16.6459)
(1.2194e-15 -0.0034845 16.658)
(1.54791e-15 -0.00296184 16.6669)
(1.04878e-15 -0.00252469 16.6731)
(1.11439e-15 -0.00218345 16.6771)
(1.13503e-15 -0.00195637 16.6793)
(1.14818e-15 -0.00184657 16.6802)
(1.15711e-15 -0.00185435 16.6805)
(1.20217e-15 -0.00201265 16.6807)
(1.16623e-15 -0.00220402 16.6813)
(1.1468e-15 -0.00276704 16.6827)
(1.17784e-15 -0.0027522 16.686)
(1.19195e-15 -0.00228675 16.6873)
(1.20985e-15 -0.00354445 16.6873)
(1.2653e-15 -0.0192631 14.1854)
(1.21122e-15 -0.0289369 14.4514)
(1.16882e-15 -0.0327387 14.762)
(1.24109e-15 -0.0303496 15.0284)
(2.80917e-16 -0.0282697 15.2638)
(1.27087e-15 -0.0235789 15.4598)
(1.5877e-16 -0.017575 15.6219)
(1.42663e-15 -0.00942927 15.732)
(2.46989e-15 0.0028302 15.781)
(1.31734e-15 0.0142652 15.7654)
(1.33337e-15 0.0237356 15.6963)
(1.24848e-15 0.0262614 15.6286)
(1.25684e-15 0.0242885 15.5903)
(9.77762e-16 0.0206229 15.5885)
(1.47934e-15 0.0184449 15.6109)
(1.87666e-15 0.0201403 15.6496)
(6.48964e-16 0.0268489 15.6707)
(1.64138e-15 0.0302859 15.6672)
(1.55418e-15 0.0257314 15.6604)
(1.44717e-15 0.0149186 15.6962)
(2.68359e-15 -0.00217638 15.7862)
(2.49573e-15 -0.0216229 15.9402)
(1.66977e-15 -0.0358932 16.1472)
(1.58501e-15 -0.0476025 16.3795)
(1.60448e-15 -0.0559571 16.6242)
(9.83879e-16 -0.0578368 16.8649)
(1.81534e-15 -0.052523 17.0829)
(1.64608e-15 -0.0444667 17.2621)
(1.83078e-15 -0.0368889 17.4083)
(2.10411e-15 -0.0303795 17.5248)
(1.60115e-15 -0.0232446 17.6168)
(1.74406e-15 -0.015281 17.678)
(1.8353e-15 -0.00877942 17.7122)
(1.79123e-15 -0.00595425 17.732)
(1.29671e-15 -0.00720742 17.7527)
(1.83026e-15 -0.0106129 17.7852)
(1.95835e-15 -0.0129304 17.8311)
(1.93856e-15 -0.0122542 17.8818)
(1.93648e-15 -0.00832734 17.927)
(1.85473e-15 -0.00189182 17.957)
(2.04527e-15 0.00550198 17.9674)
(2.20164e-15 0.0122466 17.9584)
(1.97693e-15 0.0165491 17.9341)
(1.85151e-15 0.0183852 17.9024)
(1.84549e-15 0.0190447 17.8687)
(1.70635e-15 0.0189711 17.8331)
(2.03094e-15 0.0176017 17.7932)
(2.02681e-15 0.0146264 17.758)
(2.53578e-15 0.010934 17.7284)
(1.93827e-15 0.00706845 17.7022)
(2.06049e-15 0.00358207 17.679)
(2.18339e-15 0.000461411 17.6568)
(2.05759e-15 -0.00185922 17.6342)
(2.3772e-15 -0.0035058 17.6098)
(2.09392e-15 -0.00438491 17.5827)
(2.19043e-15 -0.00482474 17.5516)
(2.5132e-15 -0.00481616 17.5159)
(2.10404e-15 -0.00460318 17.4753)
(1.8237e-15 -0.00433509 17.4303)
(2.0946e-15 -0.00422892 17.3807)
(2.10921e-15 -0.00421792 17.3278)
(2.36829e-15 -0.00445104 17.2715)
(1.95928e-15 -0.00499422 17.2136)
(1.66974e-15 -0.00585938 17.1541)
(2.31471e-15 -0.00688256 17.0948)
(2.19934e-15 -0.00796351 17.0355)
(2.13858e-15 -0.0090625 16.9773)
(2.42067e-15 -0.0100656 16.9197)
(2.91884e-15 -0.0109337 16.8634)
(1.56149e-15 -0.0116444 16.8081)
(1.93307e-15 -0.0122894 16.7536)
(1.71755e-15 -0.0129024 16.7)
(1.63263e-15 -0.0135453 16.6474)
(1.61446e-15 -0.0141292 16.5961)
(2.04967e-15 -0.0146497 16.5456)
(1.98522e-15 -0.0149471 16.4961)
(1.72005e-15 -0.0151517 16.4472)
(1.77794e-15 -0.0153752 16.3999)
(1.01849e-15 -0.0157337 16.3546)
(1.98887e-15 -0.0160679 16.3123)
(1.99917e-15 -0.0163093 16.2734)
(1.79527e-15 -0.0162719 16.2379)
(1.56629e-15 -0.0158707 16.2052)
(2.33849e-15 -0.0150351 16.1748)
(1.89346e-15 -0.0138309 16.1457)
(1.04002e-15 -0.0123554 16.1175)
(1.89105e-15 -0.0107422 16.0893)
(1.75997e-15 -0.00909567 16.0612)
(2.27217e-15 -0.00751888 16.0328)
(1.82508e-15 -0.00607246 16.0043)
(1.84653e-15 -0.0048198 15.9757)
(1.86084e-15 -0.00378517 15.9473)
(1.89257e-15 -0.00300787 15.9192)
(1.67827e-15 -0.00247692 15.8919)
(1.88051e-15 -0.00229003 15.8656)
(1.91293e-15 -0.00227944 15.8405)
(1.87706e-15 -0.00284436 15.8183)
(1.85372e-15 -0.00368815 15.7953)
(1.88983e-15 -0.000624631 15.7868)
(1.91976e-15 -0.00259682 15.7521)
(1.39426e-15 -0.0278539 15.4967)
(1.91121e-15 -0.0488668 15.8155)
(1.67217e-15 -0.0543503 16.161)
(2.2007e-15 -0.0490368 16.4507)
(1.28968e-15 -0.0444556 16.7023)
(1.8106e-15 -0.0358952 16.9102)
(1.68706e-15 -0.025785 17.0817)
(1.70004e-15 -0.0110242 17.1998)
(1.53521e-15 0.00893084 17.2576)
(1.68483e-15 0.0276915 17.2599)
(1.71881e-15 0.0406035 17.2264)
(1.78155e-15 0.0418469 17.2147)
(1.83245e-15 0.0354606 17.2459)
(1.78437e-15 0.0279331 17.3151)
(1.64745e-15 0.0234181 17.3997)
(2.55076e-15 0.0256983 17.485)
(1.93591e-15 0.036271 17.537)
(2.91429e-15 0.0417375 17.5481)
(2.23385e-15 0.0348257 17.5342)
(3.95555e-15 0.019075 17.5309)
(1.9462e-15 -0.00590872 17.5444)
(1.51428e-15 -0.0336193 17.5808)
(3.03196e-15 -0.052869 17.6274)
(2.71612e-15 -0.0684161 17.6645)
(2.70294e-15 -0.0804854 17.6989)
(2.57722e-15 -0.0836181 17.7397)
(3.00912e-15 -0.0764778 17.7823)
(2.19266e-15 -0.0648876 17.8101)
(2.39633e-15 -0.0541498 17.8218)
(2.4295e-15 -0.045172 17.819)
(2.41678e-15 -0.0352751 17.811)
(2.35636e-15 -0.0237493 17.7933)
(2.1869e-15 -0.0139986 17.7631)
(1.56104e-15 -0.00974319 17.7229)
(2.47478e-15 -0.0120601 17.6821)
(2.58644e-15 -0.018264 17.6545)
(2.56481e-15 -0.0231672 17.6482)
(2.51461e-15 -0.0235121 17.6601)
(2.49842e-15 -0.0185555 17.6816)
(2.52544e-15 -0.00936324 17.6997)
(2.53925e-15 0.00187375 17.7055)
(2.55779e-15 0.012671 17.694)
(2.54458e-15 0.020205 17.663)
(2.50888e-15 0.0241032 17.6159)
(2.49769e-15 0.026403 17.5575)
(2.52018e-15 0.0279339 17.4857)
(2.53737e-15 0.0279936 17.3952)
(2.51852e-15 0.0261525 17.2923)
(2.46322e-15 0.0230256 17.1775)
(2.42957e-15 0.0198003 17.0505)
(2.43799e-15 0.016848 16.9128)
(2.47726e-15 0.0144635 16.7646)
(2.46595e-15 0.012883 16.6066)
(2.40954e-15 0.0122919 16.439)
(2.34555e-15 0.012465 16.2624)
(2.79223e-15 0.0133347 16.0763)
(2.23932e-15 0.0145472 15.8809)
(1.68772e-15 0.0161859 15.6756)
(2.12098e-15 0.0175903 15.4617)
(1.77892e-15 0.0187669 15.2386)
(2.12355e-15 0.0195244 15.0087)
(2.13663e-15 0.0198767 14.7716)
(2.10206e-15 0.0195911 14.5304)
(2.22703e-15 0.0185941 14.2842)
(2.57596e-15 0.0172418 14.0369)
(1.90797e-15 0.01538 13.7882)
(2.17793e-15 0.0135351 13.5412)
(1.27732e-15 0.0113252 13.2953)
(1.70703e-15 0.00958545 13.0527)
(1.67342e-15 0.00754182 12.8128)
(1.71203e-15 0.00607107 12.576)
(1.82194e-15 0.00408317 12.3412)
(2.81941e-15 0.00259979 12.1089)
(1.98794e-16 0.00053616 11.8789)
(2.00782e-15 -0.000967799 11.6513)
(1.77271e-15 -0.0028516 11.4271)
(1.70165e-15 -0.00435598 11.2071)
(1.68727e-15 -0.00672844 10.9942)
(1.65607e-15 -0.00931833 10.7908)
(1.63288e-15 -0.0126085 10.6)
(1.5975e-15 -0.0156105 10.4232)
(1.83069e-15 -0.0186516 10.2617)
(1.1964e-15 -0.0208254 10.1147)
(9.82651e-16 -0.022496 9.98189)
(1.31037e-15 -0.0232556 9.86141)
(1.26797e-15 -0.0236358 9.75281)
(1.27679e-15 -0.0235471 9.65449)
(1.28285e-15 -0.0233801 9.56642)
(1.2638e-15 -0.0231338 9.48759)
(7.17166e-16 -0.0230127 9.41818)
(1.40781e-15 -0.0230496 9.35751)
(1.24886e-15 -0.0233132 9.30585)
(6.64942e-16 -0.0238647 9.26279)
(1.33781e-15 -0.0246937 9.2286)
(1.22587e-15 -0.0259019 9.20341)
(1.28195e-15 -0.0276242 9.18655)
(1.22302e-15 -0.0293372 9.18189)
(1.19886e-15 -0.0342571 9.18093)
(1.24348e-15 -0.0325926 9.20287)
(1.27765e-15 -0.0329035 9.25348)
(1.76416e-15 -0.0355389 16.7884)
(1.06448e-15 -0.0680049 17.1151)
(1.98122e-15 -0.074059 17.4553)
(2.16658e-15 -0.0654394 17.7326)
(2.47038e-15 -0.0584895 17.9693)
(2.14723e-15 -0.0464696 18.1637)
(1.9027e-15 -0.0324968 18.3244)
(2.32269e-15 -0.0118114 18.4376)
(2.28114e-15 0.015093 18.4992)
(2.18065e-15 0.0396438 18.5154)
(2.21176e-15 0.0545876 18.5045)
(2.28693e-15 0.0534764 18.5112)
(2.30605e-15 0.0429747 18.5425)
(1.30973e-15 0.0329337 18.5817)
(2.51357e-15 0.0283711 18.6021)
(2.73801e-15 0.0337363 18.5873)
(2.85254e-15 0.050948 18.5026)
(2.14752e-15 0.0616249 18.3371)
(3.80809e-15 0.0561016 18.105)
(3.25164e-15 0.0405467 17.838)
(2.90029e-15 0.0130351 17.534)
(3.56683e-15 -0.0167763 17.1942)
(2.66672e-15 -0.0363286 16.8133)
(3.0122e-15 -0.0533434 16.392)
(2.89282e-15 -0.0718013 15.9741)
(2.80914e-15 -0.0820652 15.6062)
(2.67633e-15 -0.0806553 15.3005)
(2.58159e-15 -0.0715115 15.0306)
(2.45928e-15 -0.0628243 14.7787)
(2.46889e-15 -0.0567399 14.5388)
(2.37915e-15 -0.0506728 14.3301)
(2.06384e-15 -0.0418993 14.1568)
(2.53988e-15 -0.033169 14.0112)
(2.29521e-15 -0.0295562 13.8788)
(2.18467e-15 -0.0343485 13.7578)
(2.99581e-15 -0.0457411 13.6646)
(2.08652e-15 -0.0569539 13.6166)
(2.13939e-15 -0.0627748 13.618)
(2.4776e-15 -0.0607278 13.6629)
(2.08322e-15 -0.0514107 13.7308)
(2.64319e-15 -0.0374056 13.8036)
(2.53564e-15 -0.0220168 13.8694)
(1.87202e-15 -0.00907654 13.918)
(2.13432e-15 5.41099e-07 13.9478)
(2.42938e-15 0.00777666 13.9629)
(2.50152e-15 0.0153331 13.9578)
(2.32224e-15 0.0218903 13.9242)
(2.1021e-15 0.0268915 13.8662)
(1.70689e-15 0.0296998 13.7832)
(2.31562e-15 0.0322907 13.6754)
(2.45239e-15 0.0344471 13.5461)
(3.07635e-15 0.0369644 13.3963)
(2.41289e-15 0.0397292 13.2292)
(1.22474e-15 0.0435747 13.0449)
(1.65113e-15 0.0479438 12.8458)
(1.85486e-15 0.0533042 12.6294)
(2.71677e-15 0.0588679 12.3972)
(1.25589e-15 0.0652956 12.1464)
(7.03376e-16 0.0711775 11.8793)
(9.34541e-16 0.0766902 11.593)
(1.35994e-15 0.0812537 11.2927)
(1.39957e-15 0.0850386 10.9763)
(1.36821e-15 0.0876353 10.6497)
(1.40889e-15 0.0886595 10.3102)
(1.8079e-15 0.08879 9.96509)
(2.17317e-15 0.0871557 9.61304)
(1.5282e-15 0.0853217 9.26094)
(1.24342e-15 0.0818397 8.90725)
(-1.46072e-16 0.0792885 8.55763)
(-2.66741e-16 0.0752589 8.21038)
(-8.66029e-16 0.0728907 7.86705)
(4.60166e-16 0.0685951 7.52533)
(6.6274e-16 0.0659118 7.18707)
(6.17881e-16 0.0607916 6.85229)
(2.14514e-15 0.0573426 6.52227)
(-7.12335e-16 0.0517542 6.19933)
(-6.66362e-16 0.0471501 5.88543)
(-2.18596e-16 0.0391303 5.58571)
(8.2656e-17 0.0304489 5.30422)
(5.29818e-17 0.0188352 5.04507)
(2.59258e-16 0.00778017 4.80962)
(3.2924e-16 -0.00454536 4.59931)
(3.46236e-16 -0.0148287 4.41209)
(1.8148e-15 -0.0246676 4.24717)
(-2.43324e-17 -0.0322054 4.1009)
(-2.07708e-16 -0.0392633 3.97229)
(1.31583e-16 -0.0450179 3.85855)
(2.82261e-16 -0.050738 3.75973)
(7.36994e-17 -0.0560163 3.67437)
(2.66273e-16 -0.0615117 3.60311)
(1.69285e-15 -0.0670658 3.5452)
(-4.75061e-16 -0.0729134 3.50147)
(4.41288e-16 -0.0790764 3.47169)
(-8.57612e-16 -0.0855945 3.45661)
(-7.16804e-16 -0.0924804 3.45673)
(-5.65078e-16 -0.10037 3.47148)
(-5.64128e-16 -0.107753 3.50406)
(-4.35107e-16 -0.119996 3.55312)
(-4.38358e-16 -0.132458 3.601)
(-5.38382e-16 -0.130709 3.76513)
(2.0774e-15 -0.0399747 17.8287)
(2.25789e-15 -0.0841502 18.0841)
(2.29186e-15 -0.0908462 18.3402)
(1.88392e-15 -0.0800559 18.5301)
(2.80468e-15 -0.0718858 18.6789)
(3.40539e-15 -0.05773 18.7947)
(1.95643e-15 -0.0412204 18.8887)
(2.37821e-15 -0.0164057 18.9539)
(2.41334e-15 0.0160263 18.9861)
(2.52906e-15 0.045058 18.9826)
(2.97654e-15 0.0623357 18.9497)
(1.67902e-15 0.060873 18.9071)
(2.6354e-15 0.0498795 18.8478)
(1.55158e-15 0.0415428 18.7535)
(2.77026e-15 0.0414845 18.6033)
(4.09305e-15 0.0547652 18.387)
(3.02955e-15 0.0842023 18.065)
(2.91231e-15 0.106127 17.6227)
(2.66597e-15 0.108342 17.0726)
(2.64483e-15 0.101162 16.4518)
(2.39992e-15 0.0780048 15.7484)
(1.87676e-15 0.053064 14.9669)
(3.30434e-15 0.0380554 14.1201)
(2.89831e-15 0.0210228 13.2377)
(2.62334e-15 -0.00978987 12.3969)
(2.52283e-15 -0.0365412 11.6621)
(1.66855e-15 -0.0519349 11.0513)
(2.20621e-15 -0.053532 10.5277)
(1.70298e-15 -0.0535751 10.0594)
(1.47507e-15 -0.0569413 9.62851)
(1.40657e-15 -0.0635138 9.25976)
(1.30939e-15 -0.0672226 8.9673)
(1.3067e-15 -0.0678366 8.74884)
(2.34576e-15 -0.0709397 8.58422)
(1.47262e-15 -0.0833104 8.46363)
(1.23383e-15 -0.105563 8.39903)
(1.46759e-15 -0.129814 8.40456)
(1.46971e-15 -0.14854 8.48343)
(1.46625e-15 -0.155651 8.6287)
(1.44982e-15 -0.149982 8.80993)
(1.54435e-15 -0.135087 9.00036)
(1.46093e-15 -0.115907 9.18771)
(1.52962e-15 -0.0974054 9.36135)
(1.72674e-15 -0.0823408 9.51899)
(1.89527e-15 -0.067529 9.66602)
(1.95147e-15 -0.0518166 9.79488)
(1.97499e-15 -0.0364126 9.89494)
(2.01697e-15 -0.0218421 9.97283)
(1.59978e-15 -0.010124 10.028)
(1.97705e-15 0.00125878 10.0591)
(2.07972e-15 0.0115095 10.069)
(2.43915e-15 0.0216113 10.0582)
(1.78186e-15 0.0314485 10.0298)
(1.46513e-15 0.0424673 9.98353)
(1.43696e-15 0.0542208 9.92015)
(5.91398e-16 0.0672072 9.83475)
(7.46563e-16 0.0804378 9.72769)
(9.78797e-16 0.0948855 9.59626)
(1.70321e-15 0.108828 9.44236)
(6.38524e-16 0.12213 9.26335)
(1.7979e-15 0.134042 9.06416)
(3.3044e-16 0.144639 8.84413)
(4.0621e-16 0.153638 8.60907)
(3.77657e-16 0.160245 8.3575)
(1.27367e-15 0.165261 8.09668)
(3.16605e-15 0.167498 7.82556)
(-5.05051e-16 0.168615 7.5503)
(2.75461e-16 0.167236 7.27005)
(-1.29838e-15 0.166226 6.99021)
(-1.80213e-17 0.163343 6.71015)
(-2.43749e-15 0.16209 6.43114)
(-2.57211e-15 0.159076 6.15166)
(-5.58886e-16 0.157479 5.8727)
(-5.10225e-16 0.152883 5.59373)
(2.41844e-15 0.149074 5.31492)
(2.04084e-15 0.142241 5.03896)
(-4.43837e-15 0.135644 4.76467)
(-2.53851e-15 0.123166 4.49955)
(-1.30499e-15 0.108072 4.24989)
(2.64553e-17 0.0889966 4.02003)
(1.50482e-15 0.0700588 3.80934)
(-4.16885e-16 0.0497324 3.61822)
(-4.28016e-16 0.0320283 3.44425)
(3.01814e-15 0.0156328 3.28676)
(-2.47113e-15 0.00248881 3.14231)
(-3.44319e-16 -0.00955394 3.0102)
(-4.63986e-16 -0.0198656 2.88809)
(-8.05014e-16 -0.0300592 2.77663)
(-8.56463e-16 -0.0398463 2.67497)
(1.17215e-15 -0.0500711 2.58449)
(-1.59887e-15 -0.0606434 2.50516)
(-1.61806e-15 -0.0719037 2.43863)
(-4.11696e-15 -0.0839117 2.38545)
(-2.03338e-15 -0.0967329 2.34697)
(-2.16476e-15 -0.110276 2.32414)
(-1.81491e-15 -0.125364 2.31716)
(-7.87909e-16 -0.140793 2.32716)
(-1.97935e-15 -0.159115 2.36082)
(-2.04667e-15 -0.189553 2.37737)
(-1.91057e-15 -0.194164 2.50818)
(2.43758e-15 -0.0430924 18.351)
(2.60894e-15 -0.0979351 18.3997)
(2.75451e-15 -0.105517 18.4609)
(2.48911e-15 -0.0936882 18.4611)
(3.0503e-15 -0.086297 18.4258)
(2.83743e-15 -0.0729681 18.3817)
(2.51214e-15 -0.0570567 18.3433)
(2.72331e-15 -0.0317663 18.3114)
(2.7093e-15 0.00388739 18.2815)
(3.65956e-15 0.0366825 18.2359)
(3.77005e-15 0.0587519 18.1638)
(1.91821e-15 0.061822 18.0539)
(2.63011e-15 0.0559802 17.8941)
(2.96462e-15 0.0543583 17.6814)
(2.94632e-15 0.0632062 17.409)
(2.92389e-15 0.0894502 17.0776)
(2.7541e-15 0.138431 16.6301)
(3.55218e-15 0.180221 16.0407)
(1.84535e-15 0.19813 15.3224)
(1.61289e-16 0.208655 14.5315)
(3.3202e-15 0.194386 13.6508)
(2.31867e-15 0.176746 12.7065)
(2.11522e-15 0.167588 11.7377)
(2.95282e-15 0.147594 10.7887)
(2.1243e-15 0.0972742 9.93984)
(1.47905e-15 0.0483377 9.21846)
(1.28556e-15 0.011872 8.6174)
(7.39636e-16 -0.00272759 8.09574)
(6.97216e-16 -0.0126761 7.6258)
(-4.24595e-16 -0.0265987 7.18531)
(6.80649e-16 -0.0479763 6.79773)
(1.58318e-15 -0.0676925 6.47643)
(6.10206e-16 -0.0822366 6.22832)
(7.08952e-16 -0.0969826 6.0453)
(1.85683e-15 -0.12161 5.92508)
(1.53248e-15 -0.158819 5.87765)
(1.007e-15 -0.199527 5.90914)
(1.00058e-15 -0.234034 6.01467)
(1.11534e-15 -0.25247 6.18104)
(9.17887e-16 -0.251567 6.37355)
(2.47633e-16 -0.236822 6.56699)
(1.39509e-15 -0.215171 6.75464)
(1.4848e-15 -0.192848 6.92801)
(1.61445e-15 -0.174677 7.0847)
(1.77662e-15 -0.156735 7.23671)
(2.09897e-15 -0.136486 7.38314)
(1.86405e-15 -0.115222 7.51069)
(1.67349e-15 -0.0939629 7.62512)
(1.63561e-15 -0.0761259 7.72534)
(1.5181e-15 -0.0587292 7.81063)
(1.32725e-15 -0.0427564 7.88386)
(1.0953e-15 -0.0270673 7.94431)
(9.25204e-16 -0.011594 7.99296)
(8.28077e-16 0.00542237 8.02798)
(7.83515e-16 0.0239039 8.04917)
(7.61421e-16 0.0446814 8.05302)
(6.75271e-16 0.0666767 8.03716)
(2.81665e-16 0.0906122 7.99649)
(3.14938e-16 0.114389 7.93074)
(1.48325e-15 0.13726 7.83667)
(9.39043e-16 0.158214 7.71811)
(1.23319e-17 0.176946 7.57486)
(5.79469e-17 0.193245 7.41321)
(6.12293e-16 0.20621 7.23315)
(8.25178e-16 0.216718 7.04129)
(6.06436e-16 0.223616 6.83721)
(3.13259e-15 0.228432 6.6258)
(-3.59461e-17 0.230156 6.40673)
(-1.3695e-15 0.231438 6.18423)
(-1.48053e-15 0.231405 5.95684)
(-1.59136e-15 0.23227 5.72429)
(-3.25659e-15 0.231206 5.48667)
(-1.87582e-15 0.230527 5.24734)
(-2.08178e-15 0.227112 5.0101)
(-1.31542e-15 0.223897 4.77682)
(-1.88985e-16 0.218146 4.54837)
(1.08878e-15 0.212278 4.32003)
(6.25099e-15 0.198775 4.09275)
(2.90261e-16 0.179851 3.87267)
(1.03823e-15 0.156395 3.66842)
(1.14439e-15 0.132723 3.48034)
(5.53115e-15 0.107789 3.31016)
(3.57961e-16 0.085482 3.15714)
(2.73594e-15 0.0651501 3.02205)
(5.0068e-15 0.0483669 2.90224)
(-5.24927e-16 0.033145 2.79694)
(-1.56787e-15 0.0197203 2.70323)
(-1.40406e-15 0.00653287 2.62075)
(-1.47215e-15 -0.00640263 2.54752)
(-1.47486e-15 -0.0199506 2.48392)
(5.99076e-16 -0.0342031 2.42898)
(-2.58513e-15 -0.0495399 2.38371)
(-5.75259e-15 -0.0660905 2.34795)
(-3.32045e-15 -0.0838982 2.32271)
(-3.05661e-15 -0.102826 2.30833)
(-3.58758e-15 -0.123709 2.30585)
(-2.2911e-15 -0.146041 2.31497)
(-2.19592e-15 -0.16926 2.34576)
(-1.99272e-15 -0.208331 2.35792)
(-1.87001e-15 -0.225474 2.44803)
(2.86133e-15 -0.0392719 18.0244)
(2.91e-15 -0.106034 17.831)
(2.38292e-15 -0.116993 17.6193)
(3.34231e-15 -0.106248 17.3258)
(3.21987e-15 -0.103456 16.9957)
(2.8823e-15 -0.0960384 16.6926)
(2.95066e-15 -0.0860583 16.4398)
(2.96199e-15 -0.066386 16.2527)
(3.51255e-15 -0.0320462 16.1361)
(4.05807e-15 0.00208421 16.0609)
(2.62748e-15 0.0305008 16.0011)
(2.55624e-15 0.0421369 15.9082)
(2.71835e-15 0.044988 15.768)
(2.66341e-15 0.0514643 15.5975)
(2.45134e-15 0.0692552 15.3997)
(4.61182e-15 0.109892 15.1824)
(3.18449e-15 0.18469 14.8504)
(4.91243e-16 0.251442 14.3457)
(1.81775e-15 0.286996 13.7008)
(2.52627e-15 0.314817 12.9933)
(4.31709e-15 0.309898 12.2252)
(7.97552e-16 0.296722 11.4536)
(1.40508e-15 0.292332 10.6977)
(2.29191e-15 0.267572 9.94633)
(2.36902e-15 0.20167 9.27496)
(2.17288e-15 0.1397 8.69034)
(3.0968e-15 0.0935509 8.17534)
(-1.35804e-15 0.0732466 7.70126)
(-6.33568e-16 0.0599179 7.2533)
(-1.00231e-15 0.0409053 6.80892)
(7.77069e-16 0.0100841 6.39387)
(4.92107e-16 -0.022165 6.03155)
(4.96113e-16 -0.0495299 5.7366)
(5.64968e-16 -0.0769173 5.50237)
(6.95765e-16 -0.115838 5.32984)
(1.72511e-15 -0.16963 5.23478)
(1.19691e-15 -0.227306 5.22258)
(9.02796e-16 -0.277347 5.28533)
(1.10083e-15 -0.306393 5.41059)
(9.26405e-16 -0.309298 5.55876)
(5.07652e-16 -0.29503 5.69957)
(1.04394e-15 -0.272396 5.83249)
(1.12417e-15 -0.247879 5.95612)
(1.87952e-15 -0.228127 6.06648)
(2.2598e-15 -0.209975 6.17347)
(2.12004e-15 -0.189406 6.27959)
(2.33211e-15 -0.16632 6.37442)
(1.96283e-15 -0.141921 6.46623)
(1.09264e-15 -0.121448 6.55244)
(5.58912e-16 -0.101719 6.63045)
(5.6953e-17 -0.0837962 6.70234)
(-1.17083e-15 -0.0661106 6.76781)
(9.31615e-17 -0.0482298 6.82776)
(1.05249e-15 -0.0277208 6.88092)
(1.40706e-15 -0.00471407 6.92631)
(1.52506e-15 0.021403 6.95912)
(1.48897e-15 0.0499436 6.97691)
(4.98354e-16 0.0815598 6.97436)
(2.80063e-15 0.113692 6.95067)
(1.75376e-15 0.145219 6.9016)
(1.46564e-15 0.174729 6.82899)
(1.36746e-15 0.201385 6.73124)
(1.32568e-15 0.224678 6.61335)
(1.44996e-15 0.243812 6.47496)
(7.99693e-16 0.259811 6.32308)
(1.09795e-15 0.271565 6.15735)
(4.33818e-15 0.280484 5.98145)
(1.79698e-15 0.285582 5.79549)
(-6.56379e-16 0.289608 5.60506)
(-3.75599e-16 0.292317 5.41097)
(-2.3784e-15 0.296835 5.2107)
(2.64635e-15 0.299544 4.99856)
(-3.49449e-15 0.300549 4.77773)
(3.05139e-15 0.297713 4.55418)
(3.36125e-15 0.293706 4.33157)
(6.44992e-15 0.28776 4.11477)
(7.76847e-15 0.282554 3.90533)
(1.1226e-14 0.268569 3.69872)
(2.94064e-15 0.246176 3.49424)
(3.02313e-15 0.217453 3.30547)
(8.1862e-15 0.187218 3.1381)
(7.49198e-16 0.155199 2.99594)
(3.51781e-15 0.125415 2.87874)
(1.07787e-15 0.0985311 2.78587)
(9.15118e-16 0.0759372 2.71248)
(-4.10423e-16 0.0561919 2.65494)
(-9.61135e-16 0.0390368 2.60802)
(-1.82616e-15 0.0230751 2.56919)
(-1.35782e-15 0.00781085 2.53523)
(-1.50411e-15 -0.00768235 2.50551)
(2.91953e-16 -0.0238714 2.4787)
(-2.7635e-15 -0.0411798 2.45543)
(-9.38919e-16 -0.0598798 2.4354)
(-4.13569e-15 -0.0801065 2.41968)
(-2.9066e-15 -0.101927 2.40907)
(-1.01726e-15 -0.126317 2.4062)
(-3.19382e-16 -0.153302 2.41116)
(-1.02736e-15 -0.180503 2.43448)
(-9.04841e-16 -0.222175 2.44505)
(-9.76908e-16 -0.247859 2.50267)
(2.43237e-15 -0.0296355 17.1306)
(3.25405e-15 -0.10537 16.5451)
(3.05216e-15 -0.120367 15.8344)
(2.9624e-15 -0.113907 15.0262)
(2.75317e-15 -0.121443 14.2304)
(2.64913e-15 -0.127153 13.5646)
(2.32524e-15 -0.130517 13.0498)
(3.07792e-15 -0.125435 12.705)
(2.86231e-15 -0.100982 12.5461)
(2.48242e-15 -0.0721806 12.5311)
(2.38449e-15 -0.0391365 12.6092)
(2.37052e-15 -0.0183633 12.6803)
(2.36196e-15 -0.00707063 12.7227)
(2.48339e-15 0.00642269 12.7615)
(2.45895e-15 0.0324586 12.7951)
(9.57022e-16 0.0863537 12.8011)
(2.59823e-15 0.187325 12.6735)
(2.81908e-15 0.28074 12.3777)
(2.84388e-15 0.334778 11.9571)
(2.40105e-15 0.382482 11.4834)
(2.02196e-15 0.388998 10.9044)
(8.39391e-16 0.376826 10.3022)
(4.08812e-16 0.380471 9.74076)
(3.57449e-15 0.359138 9.11078)
(2.08561e-15 0.284052 8.52014)
(1.65288e-15 0.21448 8.00369)
(2.98415e-15 0.163179 7.54666)
(1.73825e-15 0.14047 7.12419)
(7.30632e-16 0.127035 6.72154)
(4.1496e-16 0.106604 6.31074)
(1.57408e-16 0.0692854 5.91538)
(4.40772e-17 0.0261764 5.5652)
(2.83439e-16 -0.0122453 5.27871)
(4.47127e-16 -0.0499712 5.04342)
(3.90536e-16 -0.101416 4.85766)
(2.43647e-16 -0.171293 4.74388)
(6.88385e-16 -0.245448 4.71355)
(5.65498e-16 -0.310384 4.75783)
(9.77018e-16 -0.349425 4.86368)
(9.01274e-16 -0.354226 4.99184)
(6.94438e-16 -0.338508 5.10813)
(1.05671e-15 -0.314531 5.21306)
(1.68132e-15 -0.288537 5.30759)
(2.04645e-15 -0.267424 5.38951)
(2.3389e-15 -0.248707 5.46869)
(1.9758e-15 -0.228404 5.54456)
(1.75983e-15 -0.205383 5.60795)
(2.29718e-15 -0.180262 5.67304)
(1.72727e-15 -0.159241 5.73825)
(3.70887e-16 -0.138849 5.80022)
(7.41421e-16 -0.120518 5.86031)
(2.34172e-16 -0.102584 5.91855)
(7.99441e-16 -0.0841503 5.976)
(1.1182e-15 -0.0623528 6.03167)
(1.1695e-15 -0.0370416 6.08477)
(1.08632e-15 -0.00738227 6.13032)
(2.75165e-15 0.0261731 6.16449)
(2.06114e-15 0.0641231 6.18033)
(9.1719e-16 0.103357 6.17697)
(-8.57642e-17 0.142592 6.15079)
(1.38025e-15 0.180146 6.10396)
(2.2742e-15 0.214857 6.03366)
(1.95646e-15 0.245776 5.94276)
(1.77662e-15 0.271607 5.83012)
(1.61223e-15 0.293315 5.70318)
(2.55561e-15 0.310186 5.56205)
(3.87983e-15 0.323592 5.41)
(1.53146e-15 0.332498 5.24554)
(1.01929e-16 0.339211 5.07237)
(3.46795e-16 0.344042 4.89864)
(-1.08088e-15 0.351912 4.72507)
(2.11439e-15 0.359704 4.53878)
(2.25672e-15 0.364247 4.34012)
(2.84641e-15 0.362398 4.13909)
(7.65489e-15 0.357102 3.93984)
(1.0871e-15 0.349104 3.74418)
(2.38549e-16 0.344756 3.54539)
(5.78157e-15 0.33107 3.36108)
(-8.3446e-16 0.305763 3.18181)
(2.61527e-16 0.270625 3.02354)
(-5.71733e-16 0.2313 2.89372)
(-7.66389e-15 0.18939 2.794)
(2.06818e-15 0.149992 2.72129)
(-2.94631e-15 0.115472 2.67156)
(-5.9376e-15 0.0872155 2.63759)
(-2.57465e-15 0.0640478 2.61399)
(-3.04846e-15 0.0450129 2.59501)
(-3.43322e-15 0.0284711 2.5779)
(-3.40832e-15 0.0132735 2.55993)
(-4.01624e-15 -0.00178671 2.54085)
(-3.53379e-15 -0.0175678 2.5199)
(-4.20483e-15 -0.0346214 2.49785)
(-3.63679e-15 -0.0533769 2.47468)
(-4.1645e-15 -0.0742383 2.45192)
(-2.18255e-15 -0.0977434 2.4316)
(-1.26958e-15 -0.12504 2.41821)
(-1.92336e-15 -0.156279 2.41241)
(-7.57491e-16 -0.187793 2.42272)
(-3.11586e-16 -0.230853 2.42562)
(-7.31655e-16 -0.262223 2.45243)
(2.12385e-15 -0.00853428 15.5994)
(2.71812e-15 -0.0801718 14.3252)
(1.71978e-15 -0.0995201 12.8308)
(2.16169e-15 -0.106793 11.3844)
(2.52794e-15 -0.137103 10.1842)
(1.5917e-15 -0.167592 9.34188)
(7.08732e-16 -0.193422 8.80504)
(1.64554e-15 -0.212082 8.53563)
(1.79527e-15 -0.20565 8.52013)
(1.02565e-15 -0.188475 8.69609)
(1.37021e-15 -0.153836 8.9863)
(1.54129e-15 -0.12443 9.26582)
(1.5922e-15 -0.105587 9.50865)
(1.59428e-15 -0.0869078 9.75)
(1.78546e-15 -0.0542147 9.99166)
(1.78589e-15 0.0146977 10.2489)
(2.06256e-15 0.146905 10.4087)
(4.42051e-15 0.270659 10.3808)
(4.30382e-15 0.344186 10.2045)
(-1.88454e-15 0.417228 9.99377)
(2.56163e-15 0.444542 9.62057)
(9.95223e-16 0.435735 9.08858)
(7.27487e-17 0.45156 8.60237)
(1.34362e-15 0.438607 8.04185)
(-2.14755e-17 0.351002 7.50361)
(1.17511e-15 0.270569 7.0523)
(3.68321e-15 0.212151 6.66339)
(-1.00098e-15 0.186633 6.3115)
(-2.75471e-16 0.17376 5.98191)
(2.91826e-17 0.154045 5.64029)
(-3.65745e-15 0.113128 5.30339)
(-4.8797e-16 0.0619478 4.99929)
(1.3587e-16 0.0152781 4.74759)
(-1.16274e-15 -0.0297322 4.5353)
(-5.84075e-16 -0.091054 4.36072)
(-9.5742e-16 -0.175824 4.24796)
(-1.13544e-16 -0.266159 4.21248)
(3.58479e-16 -0.345534 4.24817)
(1.05687e-15 -0.394047 4.34347)
(1.3583e-15 -0.399926 4.46249)
(1.44737e-15 -0.381562 4.57171)
(1.07462e-15 -0.354574 4.66998)
(1.38789e-15 -0.325542 4.75194)
(1.74445e-15 -0.302106 4.81811)
(1.65525e-15 -0.281543 4.88364)
(2.03551e-15 -0.259645 4.94329)
(2.39458e-15 -0.235662 4.98555)
(2.21073e-15 -0.210085 5.03096)
(1.83753e-15 -0.189109 5.08054)
(1.47662e-15 -0.168632 5.13032)
(1.24514e-15 -0.150573 5.18044)
(1.10776e-15 -0.133286 5.23172)
(9.51449e-16 -0.11529 5.28565)
(8.04114e-16 -0.0933914 5.34206)
(5.77706e-16 -0.0670874 5.39996)
(8.49411e-16 -0.0353364 5.45382)
(2.01603e-15 0.00207267 5.50009)
(-1.96874e-16 0.0454583 5.53073)
(2.01676e-16 0.0910079 5.54236)
(1.89134e-15 0.136903 5.52977)
(2.30702e-15 0.181141 5.49656)
(7.95562e-16 0.222716 5.44239)
(6.07277e-16 0.260612 5.37083)
(9.73187e-16 0.293022 5.27888)
(1.91337e-15 0.320273 5.17243)
(1.76302e-15 0.342062 5.05192)
(1.87173e-15 0.36022 4.92045)
(-1.53376e-16 0.373788 4.77601)
(1.6998e-15 0.383072 4.62315)
(-1.36165e-15 0.388886 4.46516)
(-1.32835e-15 0.399288 4.30905)
(2.2305e-15 0.411816 4.14691)
(1.56071e-15 0.4195 3.9757)
(-1.86665e-16 0.418533 3.80299)
(-2.88392e-15 0.413202 3.62739)
(-3.79973e-15 0.406092 3.44811)
(-6.4526e-15 0.401708 3.26126)
(4.00912e-15 0.386047 3.09367)
(7.78829e-15 0.353782 2.94841)
(7.89264e-16 0.309325 2.82868)
(5.76984e-15 0.259286 2.73729)
(1.07983e-15 0.207516 2.67171)
(-6.02648e-15 0.160029 2.62752)
(-6.94535e-15 0.120227 2.60023)
(-6.88453e-15 0.0890272 2.58301)
(-4.94463e-15 0.0650231 2.57106)
(-5.29575e-15 0.0464331 2.55952)
(-4.97352e-15 0.0311848 2.54641)
(-5.02196e-15 0.0175458 2.5297)
(-4.74933e-15 0.00406161 2.50961)
(-4.29393e-15 -0.0103497 2.48558)
(-3.22924e-15 -0.0262777 2.45822)
(-3.00995e-15 -0.0443598 2.42735)
(-2.61059e-15 -0.0654982 2.39527)
(-2.57103e-15 -0.0909453 2.36571)
(-1.60014e-15 -0.121776 2.34433)
(-1.33048e-15 -0.157409 2.33071)
(-1.43073e-15 -0.192844 2.32838)
(-1.1567e-15 -0.235861 2.31885)
(-1.15989e-15 -0.272352 2.31379)
(2.41999e-15 0.0303153 13.2296)
(1.98798e-15 -0.0195821 11.1259)
(1.62375e-15 -0.0497405 9.0123)