# vtk DataFile Version 2.0
track0
ASCII
DATASET POLYDATA
POINTS 6515 float
-0.0205 0.001 1e-05
-0.0204727 0.00100011 1e-05
-0.0204454 0.00100021 1e-05
-0.0204181 0.00100032 1e-05
-0.0203908 0.00100042 1e-05
-0.0203635 0.00100053 1e-05
-0.0200299 0.0010018 1e-05
-0.0196963 0.00100312 1e-05
-0.0193627 0.00100443 1e-05
-0.0190291 0.00100572 1e-05
-0.0186954 0.001007 1e-05
-0.018369 0.00100819 1e-05
-0.0180425 0.00100942 1e-05
-0.017716 0.00101064 1e-05
-0.0173896 0.00101185 1e-05
-0.0170631 0.00101305 1e-05
-0.0167436 0.00101416 1e-05
-0.0164242 0.0010153 1e-05
-0.0161047 0.00101645 1e-05
-0.0157852 0.00101758 1e-05
-0.0154657 0.00101869 1e-05
-0.0151531 0.00101973 1e-05
-0.0148405 0.0010208 1e-05
-0.0145279 0.00102186 1e-05
-0.0142152 0.00102292 1e-05
-0.0139026 0.00102396 1e-05
-0.0135967 0.00102492 1e-05
-0.0132908 0.00102592 1e-05
-0.0129848 0.00102691 1e-05
-0.0126789 0.0010279 1e-05
-0.012373 0.00102887 1e-05
-0.0120736 0.00102977 1e-05
-0.0117742 0.00103069 1e-05
-0.0114749 0.00103162 1e-05
-0.0111755 0.00103254 1e-05
-0.0108761 0.00103344 1e-05
-0.0105832 0.00103427 1e-05
-0.0102902 0.00103513 1e-05
-0.00999724 0.001036 1e-05
-0.00970429 0.00103685 1e-05
-0.00941133 0.00103769 1e-05
-0.00912465 0.00103846 1e-05
-0.00883797 0.00103926 1e-05
-0.00855129 0.00104006 1e-05
-0.00826461 0.00104085 1e-05
-0.00797793 0.00104162 1e-05
-0.00769739 0.00104233 1e-05
-0.00741686 0.00104307 1e-05
-0.00713632 0.00104381 1e-05
-0.00685578 0.00104454 1e-05
-0.00657525 0.00104525 1e-05
-0.00630072 0.0010459 1e-05
-0.0060262 0.00104658 1e-05
-0.00575167 0.00104726 1e-05
-0.00547714 0.00104793 1e-05
-0.00520262 0.00104858 1e-05
-0.00493398 0.00104917 1e-05
-0.00466533 0.00104979 1e-05
-0.00439669 0.00105041 1e-05
-0.00412805 0.00105101 1e-05
-0.0038594 0.0010516 1e-05
-0.00359652 0.00105214 1e-05
-0.00333363 0.0010527 1e-05
-0.00307074 0.00105326 1e-05
-0.00280786 0.00105381 1e-05
-0.00254497 0.00105435 1e-05
-0.00228772 0.00105482 1e-05
-0.00203046 0.00105531 1e-05
-0.00177321 0.0010558 1e-05
-0.00151596 0.00105627 1e-05
-0.0012587 0.00105671 1e-05
-0.00100696 0.0010571 1e-05
-0.000755223 0.00105755 1e-05
-0.000503482 0.00105793 1e-05
-0.000251741 0.00105818 1e-05
0 0.00105826 1e-05
0.000329256 0.00105806 1e-05
0.000658511 0.00105801 1e-05
0.000987767 0.00105788 1e-05
0.00131702 0.00105754 1e-05
0.00164628 0.00105688 1e-05
0.00197921 0.00105577 1e-05
0.00231214 0.00105517 1e-05
0.00264507 0.00105472 1e-05
0.002978 0.00105417 1e-05
0.00331093 0.00105333 1e-05
0.00364757 0.00105184 1e-05
0.00398422 0.001051 1e-05
0.00432087 0.00105036 1e-05
0.00465751 0.00104967 1e-05
0.00499415 0.00104869 1e-05
0.00533455 0.00104691 1e-05
0.00567496 0.00104579 1e-05
0.00601536 0.00104485 1e-05
0.00635577 0.00104386 1e-05
0.00669616 0.00104259 1e-05
0.00704036 0.00104051 1e-05
0.00738456 0.00103902 1e-05
0.00772877 0.00103766 1e-05
0.00807297 0.00103624 1e-05
0.00841716 0.00103458 1e-05
0.0087652 0.00103215 1e-05
0.00911324 0.00103022 1e-05
0.00946129 0.00102835 1e-05
0.00980933 0.00102641 1e-05
0.0101574 0.00102428 1e-05
0.0105093 0.00102145 1e-05
0.0108612 0.00101901 1e-05
0.0112131 0.00101657 1e-05
0.0115651 0.00101405 1e-05
0.011917 0.00101138 1e-05
0.0122728 0.00100811 1e-05
0.0126287 0.00100511 1e-05
0.0129845 0.00100207 1e-05
0.0133404 0.000998941 1e-05
0.0136962 0.000995706 1e-05
0.0140561 0.00099196 1e-05
0.0144159 0.000988403 1e-05
0.0147757 0.00098476 1e-05
0.0151355 0.000981029 1e-05
0.0154954 0.000977208 1e-05
0.0158592 0.000972985 1e-05
0.016223 0.00096885 1e-05
0.0165869 0.000964631 1e-05
0.0169507 0.000960327 1e-05
0.0173145 0.000955938 1e-05
0.0176824 0.000951247 1e-05
0.0180503 0.000946569 1e-05
0.0184182 0.000941814 1e-05
0.0187861 0.000936981 1e-05
0.019154 0.000932069 1e-05
0.019526 0.000926933 1e-05
0.019898 0.000921758 1e-05
0.02027 0.000916514 1e-05
0.020642 0.0009112 1e-05
0.0210141 0.000905815 1e-05
0.0213902 0.000900261 1e-05
0.0217664 0.000894639 1e-05
0.0221425 0.000888955 1e-05
0.0225187 0.000883208 1e-05
0.0228948 0.000877397 1e-05
0.0232752 0.000871451 1e-05
0.0236555 0.000865427 1e-05
0.0240359 0.000859347 1e-05
0.0244162 0.00085321 1e-05
0.0247966 0.000847015 1e-05
0.0251026 0.000841988 1e-05
0.0254085 0.000836915 1e-05
0.0257145 0.000831808 1e-05
0.0260204 0.000826667 1e-05
0.0263035 0.00082188 1e-05
0.0263867 0.000820464 1e-05
0.0264699 0.000819046 1e-05
0.0265531 0.000817625 1e-05
0.0266364 0.000816201 1e-05
0.0267196 0.000814775 1e-05
0.0271085 0.000808111 1e-05
0.0274973 0.000801384 1e-05
0.0278862 0.000794604 1e-05
0.0282751 0.000787771 1e-05
0.028664 0.000780885 1e-05
0.0290572 0.000773933 1e-05
0.0294505 0.000766879 1e-05
0.0298437 0.00075977 1e-05
0.0302369 0.000752606 1e-05
0.0306301 0.000745387 1e-05
0.0310278 0.000738138 1e-05
0.0314254 0.000730754 1e-05
0.031823 0.00072331 1e-05
0.0322206 0.000715808 1e-05
0.0326182 0.000708245 1e-05
0.0330203 0.000700676 1e-05
0.0334223 0.000692942 1e-05
0.0338244 0.000685142 1e-05
0.0342264 0.000677276 1e-05
0.0346285 0.000669343 1e-05
0.035035 0.000661416 1e-05
0.0354416 0.000653298 1e-05
0.0358481 0.000645104 1e-05
0.0362546 0.000636836 1e-05
0.0366612 0.000628509 1e-05
0.0370722 0.000620175 1e-05
0.0374833 0.000611648 1e-05
0.0378944 0.000603009 1e-05
0.0383055 0.000594283 1e-05
0.0387166 0.000585521 1e-05
0.0391322 0.000576717 1e-05
0.0395479 0.000567717 1e-05
0.0399635 0.000558568 1e-05
0.0403792 0.000549317 1e-05
0.0407949 0.000540046 1e-05
0.0412152 0.0005307 1e-05
0.0416355 0.000521151 1e-05
0.0420558 0.000511414 1e-05
0.042476 0.00050156 1e-05
0.0428964 0.000491696 1e-05
0.0433214 0.000481725 1e-05
0.0437463 0.000471539 1e-05
0.0441713 0.00046114 1e-05
0.0445963 0.000450616 1e-05
0.0450213 0.000440067 1e-05
0.0454511 0.000429377 1e-05
0.0458808 0.000418461 1e-05
0.0463105 0.000407319 1e-05
0.0467402 0.000396037 1e-05
0.04717 0.000384704 1e-05
0.0476045 0.000373194 1e-05
0.048039 0.000361444 1e-05
0.0484736 0.000349453 1e-05
0.0489081 0.000337308 1e-05
0.0493426 0.000325083 1e-05
0.049782 0.000312644 1e-05
0.0502214 0.000299948 1e-05
0.0506607 0.000287011 1e-05
0.0511001 0.000273907 1e-05
0.0515395 0.000260677 1e-05
0.0519838 0.000247191 1e-05
0.0524281 0.000233433 1e-05
0.0528723 0.000219447 1e-05
0.0533166 0.000205269 1e-05
0.0537609 0.000190912 1e-05
0.0542102 0.000176258 1e-05
0.0546594 0.000161312 1e-05
0.0551086 0.000146147 1e-05
0.0555578 0.000130766 1e-05
0.0560071 0.000115166 1e-05
0.0564614 9.92114e-05 1e-05
0.0569156 8.29721e-05 1e-05
0.0573698 6.64922e-05 1e-05
0.0578241 4.97708e-05 1e-05
0.0582784 3.28036e-05 1e-05
0.0584516 2.62429e-05 1e-05
0.0586249 1.96398e-05 1e-05
0.0587982 1.29987e-05 1e-05
0.0589715 6.31961e-06 1e-05
0.0591345 0 1e-05
0.0594226 -1.12287e-05 1e-05
0.0597107 -2.25605e-05 1e-05
0.0599988 -3.39954e-05 1e-05
0.0602868 -4.55338e-05 1e-05
0.060575 -5.71774e-05 1e-05
0.0610394 -7.60917e-05 1e-05
0.0615038 -9.53119e-05 1e-05
0.0619683 -0.00011482 1e-05
0.0624327 -0.000134616 1e-05
0.0628972 -0.000154708 1e-05
0.0633668 -0.000175259 1e-05
0.0638364 -0.000196171 1e-05
0.064306 -0.000217397 1e-05
0.0647756 -0.00023894 1e-05
0.0652453 -0.000260796 1e-05
0.0657202 -0.00028314 1e-05
0.0661951 -0.000305876 1e-05
0.0666699 -0.000328975 1e-05
0.0671447 -0.00035242 1e-05
0.0676197 -0.000376175 1e-05
0.0680998 -0.000400475 1e-05
0.06858 -0.000425189 1e-05
0.0690601 -0.000450319 1e-05
0.0695402 -0.000475815 1e-05
0.0700205 -0.000501637 1e-05
0.070506 -0.000528061 1e-05
0.0709915 -0.000554925 1e-05
0.071477 -0.000582229 1e-05
0.0719625 -0.000609926 1e-05
0.0724481 -0.000637988 1e-05
0.0729391 -0.000666713 1e-05
0.07343 -0.000695905 1e-05
0.0739209 -0.000725545 1e-05
0.0744118 -0.000755602 1e-05
0.0749029 -0.000786084 1e-05
0.0753993 -0.000817295 1e-05
0.0758957 -0.000848999 1e-05
0.076392 -0.000881152 1e-05
0.0768884 -0.000913756 1e-05
0.077385 -0.000946834 1e-05
0.0776116 -0.000962135 1e-05
0.0778383 -0.00097754 1e-05
0.0780649 -0.000993043 1e-05
0.0782915 -0.00100864 1e-05
0.0785036 -0.00102334 1e-05
0.0787819 -0.00104273 1e-05
0.0790601 -0.00106227 1e-05
0.0793383 -0.00108195 1e-05
0.0796165 -0.00110179 1e-05
0.0798948 -0.00112178 1e-05
0.0804024 -0.00115848 1e-05
0.0809099 -0.00119571 1e-05
0.0814174 -0.00123345 1e-05
0.0819248 -0.00127171 1e-05
0.0824326 -0.0013105 1e-05
0.0829458 -0.00135017 1e-05
0.083459 -0.00139042 1e-05
0.0839722 -0.00143124 1e-05
0.0844852 -0.00147262 1e-05
0.0849987 -0.00151452 1e-05
0.0855177 -0.00155737 1e-05
0.0860366 -0.00160083 1e-05
0.0865554 -0.00164493 1e-05
0.0870742 -0.00168959 1e-05
0.0875935 -0.00173483 1e-05
0.0881183 -0.00178108 1e-05
0.0886429 -0.00182799 1e-05
0.0891676 -0.00187553 1e-05
0.0896921 -0.00192368 1e-05
0.0902172 -0.00197248 1e-05
0.0905705 -0.0020057 1e-05
0.0909237 -0.00203922 1e-05
0.0912768 -0.00207303 1e-05
0.09163 -0.00210712 1e-05
0.0919532 -0.00213858 1e-05
0.0921366 -0.00215657 1e-05
0.09232 -0.00217464 1e-05
0.0925034 -0.00219278 1e-05
0.0926868 -0.002211 1e-05
0.0928702 -0.00222931 1e-05
0.0934068 -0.00228304 1e-05
0.0939432 -0.00233746 1e-05
0.0944796 -0.00239254 1e-05
0.0950159 -0.00244828 1e-05
0.0955528 -0.00250476 1e-05
0.0960954 -0.00256245 1e-05
0.0966378 -0.00262088 1e-05
0.0971801 -0.00268006 1e-05
0.0977224 -0.00273995 1e-05
0.0982654 -0.00280056 1e-05
0.098814 -0.00286247 1e-05
0.0993624 -0.00292516 1e-05
0.0999108 -0.00298863 1e-05
0.100459 -0.00305283 1e-05
0.101008 -0.00311786 1e-05
0.101403 -0.00316508 1e-05
0.101797 -0.00321272 1e-05
0.102191 -0.00326075 1e-05
0.102586 -0.00330917 1e-05
0.102947 -0.00335397 1e-05
0.103114 -0.00337479 1e-05
0.103281 -0.00339567 1e-05
0.103448 -0.00341662 1e-05
0.103615 -0.00343764 1e-05
0.103782 -0.00345875 1e-05
0.104342 -0.00352988 1e-05
0.104903 -0.00360183 1e-05
0.105464 -0.00367456 1e-05
0.106024 -0.00374809 1e-05
0.106586 -0.00382254 1e-05
0.107153 -0.00389849 1e-05
0.10772 -0.00397532 1e-05
0.108287 -0.00405304 1e-05
0.108854 -0.00413159 1e-05
0.109422 -0.00421108 1e-05
0.109995 -0.00429216 1e-05
0.110568 -0.00437417 1e-05
0.111142 -0.00445706 1e-05
0.111715 -0.0045408 1e-05
0.112289 -0.00462562 1e-05
[...]
POINT_DATA 6515
 FIELD attributes 1
U 3 6515 float
6.81925 	0.0266271 	0 6.80827 	0.0264734 	0 6.7973 	0.0263196 	0 6.78632 	0.0261659 	0 6.77534 	0.0260121 	0 6.76436 	0.0258583 	0 6.89518 	0.0271782 	0 6.89949 	0.0270279 	0 6.89502 	0.0267756 	0 6.87902 	0.0263914 	0 6.74163 	0.0246189 	0 6.87252 	0.0258364 	0 6.88218 	0.0257424 	0 6.87794 	0.0254981 	0 6.85735 	0.0250797 	0 6.72006 	0.0234185 	0 6.85068 	0.0245598 	0 6.86528 	0.0245145 	0 6.86125 	0.0242787 	0 6.83644 	0.0238331 	0 6.69959 	0.0222567 	0 6.82965 	0.0233402 	0 6.84878 	0.0233373 	0 6.84496 	0.0231099 	0 6.81628 	0.0226411 	0 6.68019 	0.0211299 	0 6.80943 	0.0221678 	0 6.83268 	0.0222021 	0 6.82907 	0.0219819 	0 6.79689 	0.0214923 	0 6.66179 	0.0200321 	0 6.79002 	0.0210319 	0 6.817 	0.021098 	0 6.81358 	0.0208837 	0 6.77825 	0.0203743 	0 6.64438 	0.0189541 	0 6.77141 	0.0199198 	0 6.80174 	0.0200123 	0 6.79851 	0.0198018 	0 6.76038 	0.0192732 	0 6.62792 	0.017885 	0 6.7536 	0.0188178 	0 6.7869 	0.0189305 	0 6.78387 	0.0187206 	0 6.74327 	0.0181716 	0 6.61239 	0.0168074 	0 6.73658 	0.0177039 	0 6.77251 	0.0178312 	0 6.76967 	0.0176202 	0 6.72695 	0.0170526 	0 6.59779 	0.0157113 	0 6.7204 	0.0165748 	0 6.75861 	0.016708 	0 6.75594 	0.0164872 	0 6.71142 	0.0158906 	0 6.58407 	0.0145502 	0 6.70498 	0.0153511 	0 6.74518 	0.0154845 	0 6.74274 	0.0152653 	0 6.69681 	0.0146673 	0 6.57149 	0.0133784 	0 6.69066 	0.014216 	0 6.73243 	0.0143937 	0 6.73006 	0.0141949 	0 6.68283 	0.0135589 	0 6.5594 	0.0121803 	0 6.67692 	0.0127126 	0 6.7204 	0.0126444 	0 6.7187 	0.0122096 	0 6.67109 	0.0114587 	0 6.55025 	0.0102033 	0 6.66647 	0.0118623 	0 6.71009 	0.0103117 	0 6.70669 	0.00668602 	0 6.6562 	0.00206096 	0 6.53438 	-0.00407764 	0 6.64769 	-0.000995963 	0 6.68736 	-0.00250118 	0 6.67835 	-0.00703215 	0 6.62295 	-0.013153 	0 6.49668 	-0.0217026 	0 6.60822 	-0.011858 	0 6.6432 	-0.00916381 	0 6.63073 	-0.0108898 	0 6.57436 	-0.0165038 	0 6.44478 	-0.0285934 	0 6.55745 	-0.0163435 	0 6.58874 	-0.0125462 	0 6.57452 	-0.0134638 	0 6.5188 	-0.019024 	0 6.38538 	-0.0332585 	0 6.49829 	-0.0214063 	0 6.52457 	-0.018087 	0 6.50836 	-0.0189428 	0 6.45425 	-0.0240032 	0 6.31748 	-0.0382163 	0 6.42895 	-0.027843 	0 6.44887 	-0.0255187 	0 6.43124 	-0.0264884 	0 6.3811 	-0.0306899 	0 6.24308 	-0.0436153 	0 6.35093 	-0.0352942 	0 6.36308 	-0.0341657 	0 6.34477 	-0.035321 	0 6.30136 	-0.0385731 	0 6.16499 	-0.0495915 	0 6.26638 	-0.0434877 	0 6.2692 	-0.0434691 	0 6.25058 	-0.0447702 	0 6.21619 	-0.0471269 	0 6.08465 	-0.0560008 	0 6.1766 	-0.0519345 	0 6.16903 	-0.052739 	0 6.15029 	-0.0540878 	0 6.12634 	-0.0557045 	0 6.00273 	-0.0624914 	0 6.08278 	-0.0601275 	0 6.06482 	-0.0613986 	0 6.04612 	-0.0626964 	0 6.02724 	-0.0639999 	0 5.91981 	-0.0687184 	0 5.97755 	-0.0679317 	0 5.9592 	-0.0690986 	0 5.94069 	-0.0702699 	0 5.92202 	-0.0714458 	0 5.83655 	-0.0744177 	0 5.8729 	-0.0746742 	0 5.8549 	-0.0756755 	0 5.83676 	-0.0766803 	0 5.81847 	-0.0776887 	0 5.75376 	-0.0794388 	0 5.77184 	-0.0802848 	0 5.75437 	-0.0811167 	0 5.73678 	-0.0819512 	0 5.71906 	-0.0827884 	0 5.67241 	-0.0837576 	0 5.67629 	-0.0848378 	0 5.65953 	-0.0855229 	0 5.64266 	-0.0862101 	0 5.62568 	-0.0868993 	0 5.59354 	-0.087451 	0 5.58755 	-0.0884909 	0 5.57164 	-0.0890672 	0 5.55564 	-0.0896449 	0 5.53955 	-0.0902242 	0 5.51815 	-0.0906609 	0 5.50935 	-0.0913482 	0 5.49747 	-0.0917544 	0 5.48554 	-0.0921614 	0 5.47356 	-0.0925691 	0 5.46243 	-0.0929469 	0 5.45908 	-0.0930592 	0 5.45572 	-0.0931715 	0 5.45237 	-0.0932838 	0 5.449 	-0.0933963 	0 5.44586 	-0.0933252 	0 5.43207 	-0.0939602 	0 5.41783 	-0.0944511 	0 5.40352 	-0.094943 	0 5.38912 	-0.0954357 	0 5.37569 	-0.095028 	0 5.36463 	-0.0962384 	0 5.35139 	-0.0967447 	0 5.33808 	-0.0972516 	0 5.32469 	-0.0977592 	0 5.31276 	-0.0968463 	0 5.30429 	-0.098512 	0 5.292 	-0.0990686 	0 5.27963 	-0.0996256 	0 5.26718 	-0.100183 	0 5.25645 	-0.0989564 	0 5.2504 	-0.100999 	0 5.23895 	-0.101636 	0 5.22743 	-0.102273 	0 5.21582 	-0.102911 	0 5.20599 	-0.101508 	0 5.20219 	-0.103888 	0 5.19148 	-0.104631 	0 5.18068 	-0.105375 	0 5.16998 	-0.10588 	0 5.16059 	-0.104629 	0 5.15734 	-0.106983 	0 5.14885 	-0.10821 	0 5.13864 	-0.109082 	0 5.12873 	-0.109313 	0 5.11947 	-0.108429 	0 5.11653 	-0.110781 	0 5.11029 	-0.112494 	0 5.10055 	-0.113514 	0 5.09109 	-0.113553 	0 5.08183 	-0.112999 	0 5.07913 	-0.115398 	0 5.07507 	-0.117576 	0 5.06567 	-0.118761 	0 5.0563 	-0.118663 	0 5.04694 	-0.118415 	0 5.04439 	-0.120892 	0 5.04163 	-0.123367 	0 5.03329 	-0.124644 	0 5.02373 	-0.124688 	0 5.01416 	-0.124732 	0 5.01167 	-0.127308 	0 5.00897 	-0.129882 	0 5.00258 	-0.131333 	0 4.99276 	-0.131662 	0 4.98288 	-0.13199 	0 4.98036 	-0.134678 	0 4.97761 	-0.137363 	0 4.97294 	-0.138996 	0 4.96276 	-0.139606 	0 4.95251 	-0.140214 	0 4.94985 	-0.143022 	0 4.94672 	-0.145656 	0 4.94218 	-0.147407 	0 4.93322 	-0.14853 	0 4.92252 	-0.149415 	0 4.91962 	-0.152349 	0 4.91554 	-0.154757 	0 4.91044 	-0.156708 	0 4.9036 	-0.15844 	0 4.89239 	-0.159594 	0 4.88915 	-0.162659 	0 4.88375 	-0.164873 	0 4.87802 	-0.167022 	0 4.8721 	-0.169167 	0 4.86161 	-0.170749 	0 4.85709 	-0.173643 	0 4.85086 	-0.175993 	0 4.84442 	-0.178338 	0 4.83779 	-0.180679 	0 4.82971 	-0.182869 	0 4.82762 	-0.183972 	0 4.82503 	-0.184932 	0 4.8224 	-0.185891 	0 4.81975 	-0.18685 	0 4.81723 	-0.187752 	0 4.8145 	-0.18937 	0 4.81171 	-0.190987 	0 4.80885 	-0.192602 	0 4.80592 	-0.194216 	0 4.80203 	-0.19556 	0 4.79929 	-0.198615 	0 4.79444 	-0.20139 	0 4.78941 	-0.20416 	0 4.78419 	-0.206926 	0 4.77613 	-0.209007 	0 4.77604 	-0.212675 	0 4.77047 	-0.215634 	0 4.76471 	-0.218588 	0 4.75813 	-0.221396 	0 4.74782 	-0.2234 	0 4.74796 	-0.227327 	0 4.74432 	-0.230801 	0 4.73778 	-0.233931 	0 4.72815 	-0.236475 	0 4.71676 	-0.238698 	0 4.71608 	-0.242746 	0 4.71514 	-0.246786 	0 4.70746 	-0.249994 	0 4.69514 	-0.252424 	0 4.68263 	-0.254849 	0 4.68105 	-0.259011 	0 4.67919 	-0.263166 	0 4.67228 	-0.266569 	0 4.65882 	-0.269183 	0 4.64513 	-0.271792 	0 4.64257 	-0.27606 	0 4.63792 	-0.280039 	0 4.62963 	-0.283486 	0 4.61887 	-0.286687 	0 4.60397 	-0.28946 	0 4.60035 	-0.293822 	0 4.59108 	-0.297397 	0 4.58151 	-0.300958 	0 4.57166 	-0.30451 	0 4.55883 	-0.307774 	0 4.55596 	-0.309679 	0 4.55122 	-0.311337 	0 4.54643 	-0.312993 	0 4.54158 	-0.314646 	0 4.53698 	-0.316192 	0 4.53184 	-0.318238 	0 4.52661 	-0.320282 	0 4.52131 	-0.322323 	0 4.51592 	-0.324361 	0 4.51048 	-0.326145 	0 4.50152 	-0.330239 	0 4.49128 	-0.334021 	0 4.48076 	-0.337794 	0 4.46994 	-0.341494 	0 4.45864 	-0.344595 	0 4.4494 	-0.348998 	0 4.43897 	-0.353151 	0 4.42709 	-0.35698 	0 4.41447 	-0.360242 	0 4.4015 	-0.363401 	0 4.391 	-0.367824 	0 4.38018 	-0.372234 	0 4.36792 	-0.376061 	0 4.35351 	-0.379258 	0 4.33881 	-0.382448 	0 4.32697 	-0.386866 	0 4.31425 	-0.390942 	0 4.30064 	-0.394678 	0 4.28673 	-0.3984 	0 4.27034 	-0.401614 	0 4.26143 	-0.404496 	0 4.25152 	-0.40697 	0 4.24148 	-0.409437 	0 4.23129 	-0.411897 	0 4.22183 	-0.414143 	0 4.21716 	-0.415447 	0 4.21245 	-0.41675 	0 4.2077 	-0.418051 	0 4.20292 	-0.41935 	0 4.19807 	-0.420458 	0 4.18464 	-0.424466 	0 4.17019 	-0.428208 	0 4.15543 	-0.431936 	0 4.14027 	-0.435509 	0 4.12446 	-0.438576 	0 4.1103 	-0.442768 	0 4.09576 	-0.446933 	0 4.07917 	-0.450447 	0 4.06168 	-0.453409 	0 4.04387 	-0.456362 	0 4.02812 	-0.460427 	0 4.01183 	-0.464347 	0 3.99438 	-0.467698 	0 3.97603 	-0.470861 	0 3.95615 	-0.473658 	0 3.94374 	-0.476431 	0 3.93033 	-0.47873 	0 3.91668 	-0.480983 	0 3.90285 	-0.483227 	0 3.88998 	-0.485278 	0 3.88478 	-0.486271 	0 3.87954 	-0.487262 	0 3.87427 	-0.488252 	0 3.86897 	-0.489232 	0 3.86357 	-0.49002 	0 3.84621 	-0.493453 	0 3.82786 	-0.496578 	0 3.80918 	-0.499687 	0 3.78997 	-0.502513 	0 3.77008 	-0.504895 	0 3.75158 	-0.508333 	0 3.73271 	-0.511751 	0 3.71239 	-0.514508 	0 3.69067 	-0.516607 	0 3.66859 	-0.518693 	0 3.64828 	-0.521845 	0 3.62692 	-0.524471 	0 3.60484 	-0.526803 	0 3.58241 	-0.529115 	0 3.55913 	-0.531251 	0 3.55641 	-0.531596 	0 3.55357 	-0.531863 	0 3.55069 	-0.532108 	0 3.54781 	-0.532351 	0 3.54495 	-0.532592 	0 3.52675 	-0.534565 	0 3.5083 	-0.536524 	0 3.4896 	-0.53847 	0 3.47058 	-0.540285 	0 3.45098 	-0.54151 	0 3.42967 	-0.543961 	0 3.40797 	-0.546382 	0 3.38467 	-0.548019 	0 3.36057 	-0.548995 	0 3.33609 	-0.549956 	0 3.31294 	-0.551996 	0 3.28902 	-0.553578 	0 3.26432 	-0.554681 	0 3.23928 	-0.555762 	0 3.21325 	-0.556561 	0 3.20911 	-0.556823 	0 3.20485 	-0.55698 	0 3.20053 	-0.557086 	0 3.1962 	-0.557192 	0 3.19194 	-0.557295 	0 3.17258 	-0.558105 	0 3.15302 	-0.558903 	0 3.13322 	-0.559687 	0 3.11317 	-0.560259 	0 3.09273 	-0.560239 	0 3.06895 	-0.561335 	0 3.04482 	-0.562409 	0 3.01944 	-0.562626 	0 2.99335 	-0.562074 	0 2.96689 	-0.561502 	0 2.94183 	-0.562075 	0 2.91609 	-0.561963 	0 2.88986 	-0.561477 	0 2.86333 	-0.56097 	0 2.83872 	-0.560485 	0 2.83787 	-0.56048 	0 2.83702 	-0.560474 	0 2.83617 	-0.560468 	0 2.83532 	-0.560452 	0 2.83448 	-0.56041 	0 2.80995 	-0.559847 	0 2.78508 	-0.559207 	0 2.75992 	-0.558549 	0 2.73453 	-0.557471 	0 2.70889 	-0.555687 	0 2.68351 	-0.555141 	0 2.6578 	-0.554573 	0 2.63179 	-0.553159 	0 2.60476 	-0.550813 	0 2.57738 	-0.548432 	0 2.56073 	-0.547746 	0 2.54392 	-0.546632 	0 2.52698 	-0.545215 	0 2.50993 	-0.543791 	0 2.49355 	-0.542423 	0 2.4841 	-0.541697 	0 2.47462 	-0.540969 	0 2.46511 	-0.540238 	0 2.45565 	-0.539347 	0 2.44634 	-0.538158 	0 2.42182 	-0.536427 	0 2.39662 	-0.534126 	0 2.37111 	-0.531711 	0 2.34592 	-0.528214 	0 2.32056 	-0.524569 	0 2.29498 	-0.522304 	0 2.26928 	-0.519664 	0 2.2437 	-0.516158 	0 2.21794 	-0.512636 	0 2.19153 	-0.508675 	0 2.18641 	-0.508141 	0 2.18132 	-0.507478 	0 2.17625 	-0.506712 	0 2.17118 	-0.505946 	0 2.16615 	-0.505186 	0 2.14747 	-0.502327 	0 2.1287 	-0.49946 	0 2.10983 	-0.496586 	0 2.09126 	-0.493344 	0 2.07323 	-0.489467 	0 2.04983 	-0.486155 	0 2.02626 	-0.482828 	0 2.00294 	-0.478556 	0 1.98 	-0.473348 	0 1.95699 	-0.468127 	0 1.93828 	-0.465217 	0 1.91995 	-0.461756 	0 1.90191 	-0.457911 	0 1.88384 	-0.454064 	0 1.86612 	-0.450296 	0 1.86169 	-0.449305 	0 1.85725 	-0.448314 	0 1.85282 	-0.447323 	0 1.84853 	-0.446243 	0 1.84455 	-0.444986 	0 1.82429 	-0.440636 	0 1.80407 	-0.435849 	0 1.78385 	-0.431061 	0 1.76486 	-0.425527 	0 1.74664 	-0.419581 	0 1.72643 	-0.415233 	0 1.70619 	-0.410881 	0 1.6877 	-0.405417 	0 1.66936 	-0.399666 	0 1.65116 	-0.393548 	0 1.64147 	-0.391351 	0 1.63231 	-0.388821 	0 1.62346 	-0.386108 	0 1.61463 	-0.383399 	0 1.60578 	-0.380677 	0 1.59789 	-0.378003 	0 1.59003 	-0.375333 	0 1.58221 	-0.372667 	0 1.5748 	-0.36985 	0 1.56849 	-0.366614 	0 1.55282 	-0.362054 	0 1.53764 	-0.357012 	0 1.52278 	-0.351759 	0 1.51049 	-0.345542 	0 1.49875 	-0.339276 	0 1.48393 	-0.33473 	0 1.4696 	-0.330037 	0 1.45755 	-0.324502 	0 1.44585 	-0.318857 	0 1.43489 	-0.312701 	0 1.42791 	-0.310446 	0 1.42191 	-0.307818 	0 1.41624 	-0.305093 	0 1.41063 	-0.302375 	0 1.4049 	-0.29957 	0 1.40064 	-0.297087 	0 1.39646 	-0.294613 	0 1.39234 	-0.292147 	0 1.38847 	-0.289632 	0 1.3861 	-0.286708 	0 1.37687 	-0.282499 	0 1.36895 	-0.277591 	0 1.3613 	-0.272717 	0 1.35598 	-0.267281 	0 1.35215 	-0.261594 	0 1.34426 	-0.257636 	0 1.33657 	-0.253708 	0 1.33139 	-0.249089 	0 1.32837 	-0.24364 	0 1.32578 	-0.23827 	0 1.3193 	-0.234578 	0 1.31513 	-0.230325 	0 1.31203 	-0.225896 	0 1.30926 	-0.221516 	0 1.30738 	-0.216868 	0 1.30586 	-0.215803 	0 1.30517 	-0.21452 	0 1.30451 	-0.213241 	0 1.30387 	-0.211966 	0 1.30324 	-0.210637 	0 1.30297 	-0.207965 	0 1.30284 	-0.205314 	0 1.30285 	-0.202685 	0 1.303 	-0.200076 	0 1.30453 	-0.197626 	0 1.30414 	-0.194076 	0 1.30483 	-0.190514 	0 1.30581 	-0.186996 	0 1.30785 	-0.183594 	0 1.3113 	-0.180356 	0 1.31208 	-0.177176 	0 1.31312 	-0.174034 	0 1.31557 	-0.1709 	0 1.31971 	-0.167926 	0 1.32411 	-0.165002 	0 1.32612 	-0.162176 	0 1.32837 	-0.159386 	0 1.33221 	-0.156736 	0 1.33722 	-0.154085 	0 1.34251 	-0.151477 	0 1.3457 	-0.148996 	0 1.34986 	-0.146596 	0 1.35479 	-0.144265 	0 1.35998 	-0.141965 	0 1.3661 	-0.139672 	0 1.37066 	-0.137538 	0 1.37629 	-0.135478 	0 1.38211 	-0.133447 	0 1.38813 	-0.131445 	0 1.39452 	-0.129474 	0 1.39655 	-0.128848 	0 1.39877 	-0.12823 	0 1.40102 	-0.127615 	0 1.40329 	-0.127004 	0 1.40573 	-0.126356 	0 1.4105 	-0.125285 	0 1.41534 	-0.124223 	0 1.42024 	-0.123172 	0 1.42521 	-0.12213 	0 1.42716 	-0.121403 	0 1.43805 	-0.119663 	0 1.44611 	-0.11828 	0 1.45431 	-0.116917 	0 1.46265 	-0.115576 	0 1.46321 	-0.114971 	0 1.47953 	-0.112994 	0 1.48845 	-0.111904 	0 1.49748 	-0.110832 	0 1.50394 	-0.110001 	0 1.50306 	-0.1098 	0 1.52061 	-0.108044 	0 1.53464 	-0.106755 	0 1.54456 	-0.105986 	0 1.54727 	-0.105788 	0 1.54682 	-0.105838 	0 1.56565 	-0.104311 	0 1.58469 	-0.102811 	0 1.59471 	-0.102424 	0 1.5948 	-0.102768 	0 1.59487 	-0.103107 	0 1.61514 	-0.101838 	0 1.6356 	-0.100594 	0 1.64626 	-0.100308 	0 1.64703 	-0.100965 	0 1.64775 	-0.101615 	0 1.66965 	-0.100629 	0 1.69173 	-0.099667 	0 1.70311 	-0.0993528 	0 1.70469 	-0.100244 	0 1.70621 	-0.101125 	0 1.72993 	-0.100374 	0 1.75064 	-0.0997782 	0 1.76234 	-0.0995883 	0 1.76835 	-0.100078 	0 1.77072 	-0.100989 	0 1.79631 	-0.100322 	0 1.81405 	-0.0999313 	0 1.82704 	-0.0997083 	0 1.83819 	-0.099668 	0 1.84134 	-0.100365 	0 1.86871 	-0.0995949 	0 1.88311 	-0.0991878 	0 1.8973 	-0.0988008 	0 1.91158 	-0.0984255 	0 1.91762 	-0.0985947 	0 1.94203 	-0.0976916 	0 1.95714 	-0.0970553 	0 1.97237 	-0.0964336 	0 1.9877 	-0.0958262 	0 1.99862 	-0.0954273 	0 2.01939 	-0.0943847 	0 2.0353 	-0.0935134 	0 2.05132 	-0.0926586 	0 2.06747 	-0.09182 	0 2.0832 	-0.0910129 	0 2.08589 	-0.0908538 	0 2.088 	-0.0907152 	0 2.09012 	-0.0905769 	0 2.09224 	-0.0904389 	0 2.09442 	-0.0902974 	0 2.10914 	-0.0894465 	0 2.12394 	-0.0886072 	0 2.13883 	-0.0877793 	0 2.15381 	-0.0869626 	0 2.08852 	-0.0852558 	0 2.18561 	-0.0850792 	0 2.20281 	-0.0839822 	0 2.22014 	-0.0829004 	0 2.23759 	-0.0818334 	0 2.07776 	-0.0789842 	0 2.27158 	-0.0797547 	0 2.28882 	-0.0785965 	0 2.30618 	-0.0774526 	0 2.32366 	-0.0763227 	0 2.0637 	-0.0726584 	0 2.35745 	-0.0743254 	0 2.37443 	-0.0731931 	0 2.39152 	-0.0720735 	0 2.40871 	-0.0709665 	0 2.0463 	-0.0666972 	0 2.43977 	-0.0692659 	0 2.45842 	-0.0681807 	0 2.47543 	-0.0670896 	0 2.44195 	-0.0656063 	0 2.02701 	-0.0610856 	0 2.44351 	-0.0636803 	0 2.54323 	-0.0636504 	0 2.5586 	-0.062921 	0 2.43845 	-0.0611881 	0 1.99938 	-0.0570696 	0 2.43068 	-0.0602727 	0 2.615 	-0.0614484 	0 2.63363 	-0.0612447 	0 2.43107 	-0.059172 	0 1.98026 	-0.0549805 	0 2.45273 	-0.0599186 	0 2.73433 	-0.062758 	0 2.74545 	-0.0625791 	0 2.60913 	-0.0623472 	0 2.39055 	-0.0620678 	0