# vtk DataFile Version 2.0
track0
ASCII
DATASET POLYDATA
POINTS 6515 float
-0.0205 0.001 1e-05
-0.0204727 0.00100011 1e-05
-0.0204454 0.00100021 1e-05
-0.0204181 0.00100032 1e-05
-0.0203908 0.00100042 1e-05
-0.0203635 0.00100053 1e-05
-0.0200299 0.0010018 1e-05
-0.0196963 0.00100312 1e-05
-0.0193627 0.00100443 1e-05
-0.0190291 0.00100572 1e-05
-0.0186954 0.001007 1e-05
-0.018369 0.00100819 1e-05
-0.0180425 0.00100942 1e-05
-0.017716 0.00101064 1e-05
-0.0173896 0.00101185 1e-05
-0.0170631 0.00101305 1e-05
-0.0167436 0.00101416 1e-05
-0.0164242 0.0010153 1e-05
-0.0161047 0.00101645 1e-05
-0.0157852 0.00101758 1e-05
-0.0154657 0.00101869 1e-05
-0.0151531 0.00101973 1e-05
-0.0148405 0.0010208 1e-05
-0.0145279 0.00102186 1e-05
-0.0142152 0.00102292 1e-05
-0.0139026 0.00102396 1e-05
-0.0135967 0.00102492 1e-05
-0.0132908 0.00102592 1e-05
-0.0129848 0.00102691 1e-05
-0.0126789 0.0010279 1e-05
-0.012373 0.00102887 1e-05
-0.0120736 0.00102977 1e-05
-0.0117742 0.00103069 1e-05
-0.0114749 0.00103162 1e-05
-0.0111755 0.00103254 1e-05
-0.0108761 0.00103344 1e-05
-0.0105832 0.00103427 1e-05
-0.0102902 0.00103513 1e-05
-0.00999724 0.001036 1e-05
-0.00970429 0.00103685 1e-05
-0.00941133 0.00103769 1e-05
-0.00912465 0.00103846 1e-05
-0.00883797 0.00103926 1e-05
-0.00855129 0.00104006 1e-05
-0.00826461 0.00104085 1e-05
-0.00797793 0.00104162 1e-05
-0.00769739 0.00104233 1e-05
-0.00741686 0.00104307 1e-05
-0.00713632 0.00104381 1e-05
-0.00685578 0.00104454 1e-05
-0.00657525 0.00104525 1e-05
-0.00630072 0.0010459 1e-05
-0.0060262 0.00104658 1e-05
-0.00575167 0.00104726 1e-05
-0.00547714 0.00104793 1e-05
-0.00520262 0.00104858 1e-05
-0.00493398 0.00104917 1e-05
-0.00466533 0.00104979 1e-05
-0.00439669 0.00105041 1e-05
-0.00412805 0.00105101 1e-05
-0.0038594 0.0010516 1e-05
-0.00359652 0.00105214 1e-05
-0.00333363 0.0010527 1e-05
-0.00307074 0.00105326 1e-05
-0.00280786 0.00105381 1e-05
-0.00254497 0.00105435 1e-05
-0.00228772 0.00105482 1e-05
-0.00203046 0.00105531 1e-05
-0.00177321 0.0010558 1e-05
-0.00151596 0.00105627 1e-05
-0.0012587 0.00105671 1e-05
-0.00100696 0.0010571 1e-05
-0.000755223 0.00105755 1e-05
-0.000503482 0.00105793 1e-05
-0.000251741 0.00105818 1e-05
0 0.00105826 1e-05
0.000329256 0.00105806 1e-05
0.000658511 0.00105801 1e-05
0.000987767 0.00105788 1e-05
0.00131702 0.00105754 1e-05
0.00164628 0.00105688 1e-05
0.00197921 0.00105577 1e-05
0.00231214 0.00105517 1e-05
0.00264507 0.00105472 1e-05
0.002978 0.00105417 1e-05
0.00331093 0.00105333 1e-05
0.00364757 0.00105184 1e-05
0.00398422 0.001051 1e-05
0.00432087 0.00105036 1e-05
0.00465751 0.00104967 1e-05
0.00499415 0.00104869 1e-05
0.00533455 0.00104691 1e-05
0.00567496 0.00104579 1e-05
0.00601536 0.00104485 1e-05
0.00635577 0.00104386 1e-05
0.00669616 0.00104259 1e-05
0.00704036 0.00104051 1e-05
0.00738456 0.00103902 1e-05
0.00772877 0.00103766 1e-05
0.00807297 0.00103624 1e-05
0.00841716 0.00103458 1e-05
0.0087652 0.00103215 1e-05
0.00911324 0.00103022 1e-05
0.00946129 0.00102835 1e-05
0.00980933 0.00102641 1e-05
0.0101574 0.00102428 1e-05
0.0105093 0.00102145 1e-05
0.0108612 0.00101901 1e-05
0.0112131 0.00101657 1e-05
0.0115651 0.00101405 1e-05
0.011917 0.00101138 1e-05
0.0122728 0.00100811 1e-05
0.0126287 0.00100511 1e-05
0.0129845 0.00100207 1e-05
0.0133404 0.000998941 1e-05
0.0136962 0.000995706 1e-05
0.0140561 0.00099196 1e-05
0.0144159 0.000988403 1e-05
0.0147757 0.00098476 1e-05
0.0151355 0.000981029 1e-05
0.0154954 0.000977208 1e-05
0.0158592 0.000972985 1e-05
0.016223 0.00096885 1e-05
0.0165869 0.000964631 1e-05
0.0169507 0.000960327 1e-05
0.0173145 0.000955938 1e-05
0.0176824 0.000951247 1e-05
0.0180503 0.000946569 1e-05
0.0184182 0.000941814 1e-05
0.0187861 0.000936981 1e-05
0.019154 0.000932069 1e-05
0.019526 0.000926933 1e-05
0.019898 0.000921758 1e-05
0.02027 0.000916514 1e-05
0.020642 0.0009112 1e-05
0.0210141 0.000905815 1e-05
0.0213902 0.000900261 1e-05
0.0217664 0.000894639 1e-05
0.0221425 0.000888955 1e-05
0.0225187 0.000883208 1e-05
0.0228948 0.000877397 1e-05
0.0232752 0.000871451 1e-05
0.0236555 0.000865427 1e-05
0.0240359 0.000859347 1e-05
0.0244162 0.00085321 1e-05
0.0247966 0.000847015 1e-05
0.0251026 0.000841988 1e-05
0.0254085 0.000836915 1e-05
0.0257145 0.000831808 1e-05
0.0260204 0.000826667 1e-05
0.0263035 0.00082188 1e-05
0.0263867 0.000820464 1e-05
0.0264699 0.000819046 1e-05
0.0265531 0.000817625 1e-05
0.0266364 0.000816201 1e-05
0.0267196 0.000814775 1e-05
0.0271085 0.000808111 1e-05
0.0274973 0.000801384 1e-05
0.0278862 0.000794604 1e-05
0.0282751 0.000787771 1e-05
0.028664 0.000780885 1e-05
0.0290572 0.000773933 1e-05
0.0294505 0.000766879 1e-05
0.0298437 0.00075977 1e-05
0.0302369 0.000752606 1e-05
0.0306301 0.000745387 1e-05
0.0310278 0.000738138 1e-05
0.0314254 0.000730754 1e-05
0.031823 0.00072331 1e-05
0.0322206 0.000715808 1e-05
0.0326182 0.000708245 1e-05
0.0330203 0.000700676 1e-05
0.0334223 0.000692942 1e-05
0.0338244 0.000685142 1e-05
0.0342264 0.000677276 1e-05
0.0346285 0.000669343 1e-05
0.035035 0.000661416 1e-05
0.0354416 0.000653298 1e-05
0.0358481 0.000645104 1e-05
0.0362546 0.000636836 1e-05
0.0366612 0.000628509 1e-05
0.0370722 0.000620175 1e-05
0.0374833 0.000611648 1e-05
0.0378944 0.000603009 1e-05
0.0383055 0.000594283 1e-05
0.0387166 0.000585521 1e-05
0.0391322 0.000576717 1e-05
0.0395479 0.000567717 1e-05
0.0399635 0.000558568 1e-05
0.0403792 0.000549317 1e-05
0.0407949 0.000540046 1e-05
0.0412152 0.0005307 1e-05
0.0416355 0.000521151 1e-05
0.0420558 0.000511414 1e-05
0.042476 0.00050156 1e-05
0.0428964 0.000491696 1e-05
0.0433214 0.000481725 1e-05
0.0437463 0.000471539 1e-05
0.0441713 0.00046114 1e-05
0.0445963 0.000450616 1e-05
0.0450213 0.000440067 1e-05
0.0454511 0.000429377 1e-05
0.0458808 0.000418461 1e-05
0.0463105 0.000407319 1e-05
0.0467402 0.000396037 1e-05
0.04717 0.000384704 1e-05
0.0476045 0.000373194 1e-05
0.048039 0.000361444 1e-05
0.0484736 0.000349453 1e-05
0.0489081 0.000337308 1e-05
0.0493426 0.000325083 1e-05
0.049782 0.000312644 1e-05
0.0502214 0.000299948 1e-05
0.0506607 0.000287011 1e-05
0.0511001 0.000273907 1e-05
0.0515395 0.000260677 1e-05
0.0519838 0.000247191 1e-05
0.0524281 0.000233433 1e-05
0.0528723 0.000219447 1e-05
0.0533166 0.000205269 1e-05
0.0537609 0.000190912 1e-05
0.0542102 0.000176258 1e-05
0.0546594 0.000161312 1e-05
0.0551086 0.000146147 1e-05
0.0555578 0.000130766 1e-05
0.0560071 0.000115166 1e-05
0.0564614 9.92114e-05 1e-05
0.0569156 8.29721e-05 1e-05
0.0573698 6.64922e-05 1e-05
0.0578241 4.97708e-05 1e-05
0.0582784 3.28036e-05 1e-05
0.0584516 2.62429e-05 1e-05
0.0586249 1.96398e-05 1e-05
0.0587982 1.29987e-05 1e-05
0.0589715 6.31961e-06 1e-05
0.0591345 0 1e-05
0.0594226 -1.12287e-05 1e-05
0.0597107 -2.25605e-05 1e-05
0.0599988 -3.39954e-05 1e-05
0.0602868 -4.55338e-05 1e-05
0.060575 -5.71774e-05 1e-05
0.0610394 -7.60917e-05 1e-05
0.0615038 -9.53119e-05 1e-05
0.0619683 -0.00011482 1e-05
0.0624327 -0.000134616 1e-05
0.0628972 -0.000154708 1e-05
0.0633668 -0.000175259 1e-05
0.0638364 -0.000196171 1e-05
0.064306 -0.000217397 1e-05
0.0647756 -0.00023894 1e-05
0.0652453 -0.000260796 1e-05
0.0657202 -0.00028314 1e-05
0.0661951 -0.000305876 1e-05
0.0666699 -0.000328975 1e-05
0.0671447 -0.00035242 1e-05
0.0676197 -0.000376175 1e-05
0.0680998 -0.000400475 1e-05
0.06858 -0.000425189 1e-05
0.0690601 -0.000450319 1e-05
0.0695402 -0.000475815 1e-05
0.0700205 -0.000501637 1e-05
0.070506 -0.000528061 1e-05
0.0709915 -0.000554925 1e-05
0.071477 -0.000582229 1e-05
0.0719625 -0.000609926 1e-05
0.0724481 -0.000637988 1e-05
0.0729391 -0.000666713 1e-05
0.07343 -0.000695905 1e-05
0.0739209 -0.000725545 1e-05
0.0744118 -0.000755602 1e-05
0.0749029 -0.000786084 1e-05
0.0753993 -0.000817295 1e-05
0.0758957 -0.000848999 1e-05
0.076392 -0.000881152 1e-05
0.0768884 -0.000913756 1e-05
0.077385 -0.000946834 1e-05
0.0776116 -0.000962135 1e-05
0.0778383 -0.00097754 1e-05
0.0780649 -0.000993043 1e-05
0.0782915 -0.00100864 1e-05
0.0785036 -0.00102334 1e-05
0.0787819 -0.00104273 1e-05
0.0790601 -0.00106227 1e-05
0.0793383 -0.00108195 1e-05
0.0796165 -0.00110179 1e-05
0.0798948 -0.00112178 1e-05
0.0804024 -0.00115848 1e-05
0.0809099 -0.00119571 1e-05
0.0814174 -0.00123345 1e-05
0.0819248 -0.00127171 1e-05
0.0824326 -0.0013105 1e-05
0.0829458 -0.00135017 1e-05
0.083459 -0.00139042 1e-05
0.0839722 -0.00143124 1e-05
0.0844852 -0.00147262 1e-05
0.0849987 -0.00151452 1e-05
0.0855177 -0.00155737 1e-05
0.0860366 -0.00160083 1e-05
0.0865554 -0.00164493 1e-05
0.0870742 -0.00168959 1e-05
0.0875935 -0.00173483 1e-05
0.0881183 -0.00178108 1e-05
0.0886429 -0.00182799 1e-05
0.0891676 -0.00187553 1e-05
0.0896921 -0.00192368 1e-05
0.0902172 -0.00197248 1e-05
0.0905705 -0.0020057 1e-05
0.0909237 -0.00203922 1e-05
0.0912768 -0.00207303 1e-05
0.09163 -0.00210712 1e-05
0.0919532 -0.00213858 1e-05
0.0921366 -0.00215657 1e-05
0.09232 -0.00217464 1e-05
0.0925034 -0.00219278 1e-05
0.0926868 -0.002211 1e-05
0.0928702 -0.00222931 1e-05
0.0934068 -0.00228304 1e-05
0.0939432 -0.00233746 1e-05
0.0944796 -0.00239254 1e-05
0.0950159 -0.00244828 1e-05
0.0955528 -0.00250476 1e-05
0.0960954 -0.00256245 1e-05
0.0966378 -0.00262088 1e-05
0.0971801 -0.00268006 1e-05
0.0977224 -0.00273995 1e-05
0.0982654 -0.00280056 1e-05
0.098814 -0.00286247 1e-05
0.0993624 -0.00292516 1e-05
0.0999108 -0.00298863 1e-05
0.100459 -0.00305283 1e-05
0.101008 -0.00311786 1e-05
0.101403 -0.00316508 1e-05
0.101797 -0.00321272 1e-05
0.102191 -0.00326075 1e-05
0.102586 -0.00330917 1e-05
0.102947 -0.00335397 1e-05
0.103114 -0.00337479 1e-05
0.103281 -0.00339567 1e-05
0.103448 -0.00341662 1e-05
0.103615 -0.00343764 1e-05
0.103782 -0.00345875 1e-05
0.104342 -0.00352988 1e-05
0.104903 -0.00360183 1e-05
0.105464 -0.00367456 1e-05
0.106024 -0.00374809 1e-05
0.106586 -0.00382254 1e-05
0.107153 -0.00389849 1e-05
0.10772 -0.00397532 1e-05
0.108287 -0.00405304 1e-05
0.108854 -0.00413159 1e-05
0.109422 -0.00421108 1e-05
0.109995 -0.00429216 1e-05
0.110568 -0.00437417 1e-05
0.111142 -0.00445706 1e-05
0.111715 -0.0045408 1e-05
0.112289 -0.00462562 1e-05
[...]
POINT_DATA 6515
 FIELD attributes 2
p 1 6515 float
-10.123 -10.1233 -10.1237 -10.1241 -10.1245 -10.1249 -10.1287 -10.1329 -10.1372 -10.1415 -10.1463 -10.15 -10.1542 -10.1585 -10.1628 -10.1676 -10.1712 -10.1754 -10.1796 -10.1839 -10.1887 -10.1924 -10.1965 -10.2008 -10.2051 -10.21 -10.2137 -10.2178 -10.2221 -10.2265 -10.2314 -10.2352 -10.2394 -10.2438 -10.2483 -10.2532 -10.2571 -10.2615 -10.2659 -10.2706 -10.2756 -10.2797 -10.2841 -10.2888 -10.2936 -10.2988 -10.3031 -10.3077 -10.3126 -10.3176 -10.323 -10.3275 -10.3325 -10.3376 -10.343 -10.3487 -10.3536 -10.3589 -10.3643 -10.37 -10.3759 -10.3814 -10.3873 -10.3935 -10.4 -10.4069 -10.4137 -10.4202 -10.4266 -10.4331 -10.4398 -10.4501 -10.4606 -10.4713 -10.4816 -10.4911 -10.5081 -10.5163 -10.5188 -10.5167 -10.5075 -10.5142 -10.5158 -10.5143 -10.5109 -10.5044 -10.5219 -10.533 -10.5406 -10.5431 -10.5363 -10.551 -10.5589 -10.5635 -10.5641 -10.556 -10.5624 -10.5651 -10.5663 -10.5658 -10.5605 -10.5619 -10.5625 -10.5629 -10.563 -10.5617 -10.5601 -10.5599 -10.5601 -10.5605 -10.562 -10.5581 -10.5576 -10.5574 -10.5574 -10.5608 -10.5555 -10.5552 -10.555 -10.5547 -10.5591 -10.554 -10.554 -10.5539 -10.5539 -10.5583 -10.5544 -10.5548 -10.5553 -10.5557 -10.5597 -10.5576 -10.5587 -10.5598 -10.561 -10.5646 -10.5644 -10.5664 -10.5684 -10.5703 -10.5737 -10.5755 -10.5785 -10.5814 -10.5843 -10.5878 -10.5906 -10.5937 -10.5969 -10.6 -10.6029 -10.6038 -10.6046 -10.6055 -10.6063 -10.6072 -10.6121 -10.617 -10.622 -10.6269 -10.6319 -10.6376 -10.6435 -10.6494 -10.6553 -10.6613 -10.6677 -10.6745 -10.6812 -10.6879 -10.695 -10.702 -10.7094 -10.7168 -10.7243 -10.7323 -10.7397 -10.7476 -10.7556 -10.7636 -10.7722 -10.7801 -10.7883 -10.7965 -10.805 -10.8139 -10.8221 -10.8303 -10.8388 -10.8475 -10.8564 -10.8647 -10.8729 -10.8813 -10.89 -10.8987 -10.9069 -10.915 -10.9232 -10.9316 -10.9399 -10.9478 -10.9556 -10.9635 -10.9713 -10.9791 -10.9864 -10.9938 -11.0011 -11.0082 -11.0153 -11.022 -11.0286 -11.0352 -11.0415 -11.0477 -11.0535 -11.0592 -11.0648 -11.0703 -11.0755 -11.0803 -11.0848 -11.0893 -11.0938 -11.0979 -11.1013 -11.1045 -11.1077 -11.111 -11.1141 -11.1148 -11.1155 -11.1161 -11.1168 -11.1174 -11.1185 -11.1196 -11.1207 -11.1218 -11.1228 -11.1231 -11.1232 -11.1234 -11.1235 -11.1234 -11.1223 -11.1207 -11.1191 -11.1174 -11.1153 -11.1124 -11.1092 -11.1057 -11.1018 -11.0977 -11.0928 -11.0879 -11.0823 -11.076 -11.0698 -11.0627 -11.0556 -11.0479 -11.0393 -11.0307 -11.0213 -11.0116 -11.0014 -10.9909 -10.9799 -10.968 -10.9551 -10.9423 -10.9295 -10.9164 -10.9097 -10.9027 -10.8956 -10.8886 -10.882 -10.8736 -10.8652 -10.8568 -10.8484 -10.8394 -10.822 -10.804 -10.786 -10.7679 -10.7482 -10.7285 -10.7083 -10.6874 -10.6651 -10.6424 -10.6198 -10.5971 -10.5729 -10.5472 -10.5215 -10.4958 -10.4691 -10.4414 -10.4138 -10.3851 -10.3657 -10.3452 -10.3246 -10.3041 -10.2853 -10.2748 -10.2644 -10.2539 -10.2435 -10.2323 -10.1994 -10.1658 -10.1323 -10.0984 -10.0627 -10.0271 -9.99156 -9.95447 -9.91557 -9.87665 -9.83786 -9.79869 -9.75772 -9.71642 -9.67434 -9.64449 -9.6132 -9.58181 -9.55043 -9.52165 -9.50857 -9.4955 -9.48243 -9.46934 -9.45554 -9.4095 -9.36292 -9.31638 -9.26898 -9.22006 -9.1715 -9.12298 -9.07291 -9.02126 -8.96955 -8.91813 -8.86539 -8.81194 -8.75853 -8.7048 -8.6982 -8.69141 -8.68457 -8.67773 -8.67098 -8.62228 -8.57361 -8.52498 -8.47606 -8.42551 -8.36846 -8.31144 -8.25337 -8.19387 -8.13426 -8.07509 -8.01515 -7.95441 -7.89371 -7.83266 -7.82261 -7.81241 -7.80214 -7.79187 -7.78176 -7.72991 -7.67809 -7.6263 -7.5742 -7.52103 -7.45801 -7.39503 -7.33143 -7.26701 -7.20242 -7.1395 -7.07604 -7.0123 -6.9486 -6.89025 -6.88799 -6.88573 -6.88347 -6.8812 -6.87889 -6.8135 -6.74813 -6.68279 -6.6172 -6.55095 -6.48538 -6.41985 -6.35404 -6.28826 -6.22229 -6.18176 -6.14122 -6.10066 -6.06012 -6.02138 -5.99595 -5.97053 -5.94511 -5.91965 -5.89409 -5.82864 -5.76345 -5.69834 -5.63325 -5.56798 -5.50344 -5.43901 -5.37482 -5.31064 -5.24658 -5.23441 -5.22229 -5.21023 -5.19817 -5.18623 -5.13493 -5.08364 -5.03236 -4.98118 -4.93008 -4.86771 -4.80537 -4.74357 -4.68231 -4.62093 -4.5735 -4.52641 -4.47957 -4.43274 -4.38691 -4.37351 -4.36011 -4.3467 -4.33334 -4.32004 -4.26106 -4.20243 -4.14381 -4.0856 -4.0276 -3.97053 -3.91347 -3.85719 -3.80118 -3.74552 -3.71892 -3.69261 -3.66645 -3.64028 -3.61396 -3.58579 -3.55761 -3.52943 -3.50133 -3.47347 -3.42053 -3.36796 -3.31556 -3.26375 -3.21211 -3.16152 -3.11105 -3.06119 -3.01144 -2.96229 -2.93795 -2.91392 -2.88998 -2.86604 -2.84123 -2.8176 -2.79397 -2.77034 -2.74668 -2.72284 -2.6773 -2.6316 -2.5859 -2.53992 -2.49398 -2.45072 -2.40745 -2.36393 -2.32021 -2.27668 -2.23557 -2.1943 -2.15297 -2.11165 -2.07049 -2.05841 -2.04629 -2.03417 -2.02206 -2.00937 -1.98227 -1.95518 -1.9281 -1.90103 -1.87225 -1.83677 -1.79946 -1.76218 -1.72378 -1.68393 -1.65058 -1.61726 -1.58161 -1.54385 -1.50625 -1.47465 -1.44307 -1.40948 -1.37391 -1.33838 -1.30841 -1.27725 -1.24525 -1.21317 -1.17955 -1.1507 -1.12035 -1.09002 -1.05973 -1.02909 -1.01944 -1.00943 -0.999435 -0.989437 -0.978802 -0.960145 -0.941498 -0.922861 -0.904235 -0.885748 -0.858399 -0.831082 -0.803788 -0.776514 -0.749479 -0.723599 -0.697739 -0.671898 -0.646105 -0.620442 -0.596031 -0.57164 -0.547259 -0.522903 -0.49858 -0.475688 -0.452825 -0.429948 -0.407001 -0.384072 -0.362798 -0.341551 -0.320215 -0.298773 -0.277342 -0.257848 -0.238379 -0.218704 -0.198969 -0.179238 -0.161764 -0.144237 -0.126511 -0.108789 -0.0910727 -0.0759058 -0.0605796 -0.0451575 -0.0297541 -0.0144024 -0.0018031 0.0110259 0.0238484 0.0366591 0.0493935 0.0593318 0.0693919 0.0794374 0.0894685 0.0994673 0.106694 0.113962 0.121213 0.128447 0.135667 0.13626 0.136859 0.137457 0.138056 0.13867 0.142747 0.146809 0.150858 0.154892 0.156603 0.161088 0.16332 0.165534 0.16773 0.165239 0.169705 0.169774 0.169826 0.169861 0.163271 0.167494 0.165541 0.163572 0.161589 0.151297 0.154697 0.15116 0.147578 0.143041 0.13139 0.133028 0.128121 0.121473 0.111901 0.0954888 0.0905537 0.0860112 0.0817408 0.0770608 0.0719336 0.0751654 0.0718664 0.0594241 0.0388656 0.0138277
-10.116 -10.1164 -10.1167 -10.1171 -10.1174 -10.1177 -10.1219 -10.126 -10.1302 -10.1344 -10.1386 -10.1427 -10.1468 -10.151 -10.1551 -10.1592 -10.1634 -10.1675 -10.1716 -10.1757 -10.1798 -10.184 -10.1881 -10.1922 -10.1963 -10.2004 -10.2046 -10.2087 -10.2129 -10.217 -10.2211 -10.2254 -10.2296 -10.2338 -10.238 -10.2421 -10.2464 -10.2507 -10.255 -10.2592 -10.2634 -10.2678 -10.2722 -10.2766 -10.2809 -10.2852 -10.2897 -10.2942 -10.2988 -10.3032 -10.3076 -10.3122 -10.3169 -10.3216 -10.3262 -10.3307 -10.3355 -10.3403 -10.3452 -10.3499 -10.3546 -10.3595 -10.3645 -10.3696 -10.3745 -10.3793 -10.3843 -10.3894 -10.3946 -10.3994 -10.4041 -10.409 -10.414 -10.4194 -10.4248 -10.4301 -10.4353 -10.4404 -10.4451 -10.4493 -10.4532 -10.457 -10.4606 -10.4636 -10.4662 -10.4686 -10.4711 -10.4737 -10.4764 -10.4791 -10.4819 -10.4845 -10.487 -10.4897 -10.4921 -10.4946 -10.4961 -10.4977 -10.4993 -10.501 -10.5026 -10.5029 -10.5032 -10.504 -10.5052 -10.5066 -10.5062 -10.5061 -10.5064 -10.5075 -10.5088 -10.5083 -10.508 -10.5081 -10.509 -10.5102 -10.5097 -10.5093 -10.5094 -10.5101 -10.5111 -10.5107 -10.5106 -10.5108 -10.5114 -10.5124 -10.5125 -10.5127 -10.5132 -10.5141 -10.5153 -10.5159 -10.5166 -10.5176 -10.5189 -10.5204 -10.5216 -10.523 -10.5247 -10.5265 -10.5286 -10.5305 -10.5326 -10.5349 -10.5375 -10.5402 -10.5428 -10.5458 -10.5489 -10.5522 -10.5557 -10.559 -10.5627 -10.5666 -10.5707 -10.5749 -10.579 -10.5835 -10.5882 -10.5929 -10.5979 -10.6027 -10.6079 -10.6133 -10.6187 -10.6242 -10.6296 -10.6355 -10.6414 -10.6474 -10.6534 -10.6594 -10.6657 -10.6721 -10.6785 -10.6848 -10.6912 -10.6979 -10.7046 -10.7113 -10.7177 -10.7244 -10.7312 -10.738 -10.7449 -10.7513 -10.7581 -10.7649 -10.7717 -10.7785 -10.7848 -10.7915 -10.798 -10.8046 -10.8112 -10.8173 -10.8236 -10.8298 -10.836 -10.8421 -10.848 -10.8537 -10.8593 -10.8649 -10.8706 -10.876 -10.8809 -10.8858 -10.8907 -10.8956 -10.9005 -10.9011 -10.9017 -10.9023 -10.903 -10.9036 -10.907 -10.9104 -10.9138 -10.9173 -10.9208 -10.9239 -10.9269 -10.9299 -10.9329 -10.936 -10.9381 -10.9399 -10.9417 -10.9436 -10.9453 -10.9464 -10.9468 -10.9473 -10.9478 -10.9478 -10.9477 -10.9469 -10.9459 -10.9446 -10.9429 -10.9413 -10.9393 -10.9367 -10.9333 -10.9297 -10.9264 -10.9232 -10.9187 -10.913 -10.9074 -10.9023 -10.8973 -10.8909 -10.8831 -10.8754 -10.8683 -10.861 -10.8524 -10.8427 -10.8327 -10.8235 -10.8131 -10.8022 -10.7912 -10.7789 -10.7669 -10.7535 -10.7401 -10.7267 -10.713 -10.7085 -10.7037 -10.6989 -10.694 -10.6894 -10.6786 -10.6677 -10.6569 -10.646 -10.6342 -10.617 -10.5989 -10.5808 -10.5623 -10.542 -10.5227 -10.5028 -10.4819 -10.4591 -10.436 -10.4138 -10.3916 -10.3675 -10.3416 -10.3157 -10.2905 -10.2641 -10.2367 -10.2092 -10.1805 -10.1624 -10.1429 -10.1234 -10.1039 -10.0859 -10.0749 -10.0639 -10.0529 -10.042 -10.0301 -9.99812 -9.96539 -9.9327 -9.89919 -9.86409 -9.82954 -9.79502 -9.75875 -9.72064 -9.68252 -9.64491 -9.60622 -9.56622 -9.52624 -9.48541 -9.47035 -9.45453 -9.43859 -9.42265 -9.40733 -9.38076 -9.35421 -9.32767 -9.30093 -9.27331 -9.22891 -9.18427 -9.13941 -9.09289 -9.04636 -8.99913 -8.95151 -8.90273 -8.85398 -8.80482 -8.78958 -8.77404 -8.75834 -8.74264 -8.72739 -8.69181 -8.65624 -8.62068 -8.585 -8.54853 -8.49519 -8.44178 -8.3883 -8.33367 -8.279 -8.2234 -8.16758 -8.11099 -8.05443 -7.99777 -7.97556 -7.95312 -7.93059 -7.90806 -7.88619 -7.85038 -7.81457 -7.77878 -7.74284 -7.70632 -7.6466 -7.58692 -7.52728 -7.46675 -7.40618 -7.34509 -7.28383 -7.22214 -7.16046 -7.09889 -7.08152 -7.0641 -7.04663 -7.02917 -7.01202 -6.96696 -6.92191 -6.87688 -6.83177 -6.78642 -6.72302 -6.65969 -6.59677 -6.53377 -6.47072 -6.40712 -6.34364 -6.28026 -6.21689 -6.15361 -6.14872 -6.14384 -6.13898 -6.13413 -6.12928 -6.07082 -6.01237 -5.95393 -5.8956 -5.83749 -5.77402 -5.71057 -5.64786 -5.58591 -5.52392 -5.47044 -5.41747 -5.36479 -5.31211 -5.26087 -5.25159 -5.2423 -5.23301 -5.22376 -5.21459 -5.15337 -5.09253 -5.0317 -4.97137 -4.91155 -4.85129 -4.79104 -4.73174 -4.67365 -4.61565 -4.57613 -4.53723 -4.49863 -4.46003 -4.4217 -4.40287 -4.38405 -4.36523 -4.34651 -4.32809 -4.2713 -4.21543 -4.15956 -4.10458 -4.05005 -3.99517 -3.94029 -3.88671 -3.83398 -3.78166 -3.74793 -3.71487 -3.68205 -3.64924 -3.61614 -3.5975 -3.57885 -3.56021 -3.54165 -3.52348 -3.4728 -3.42304 -3.37328 -3.32435 -3.27596 -3.22732 -3.17868 -3.1311 -3.08483 -3.03866 -2.99848 -2.95922 -2.92016 -2.8811 -2.84083 -2.83493 -2.82904 -2.82314 -2.81726 -2.81152 -2.76767 -2.72408 -2.68049 -2.63718 -2.59482 -2.55231 -2.5098 -2.46845 -2.42807 -2.38772 -2.34721 -2.30713 -2.26772 -2.22832 -2.18984 -2.16953 -2.14974 -2.12998 -2.11022 -2.08991 -2.07205 -2.05419 -2.03634 -2.01848 -2.00109 -1.96434 -1.92819 -1.89204 -1.8563 -1.82113 -1.78592 -1.75072 -1.71636 -1.68279 -1.64924 -1.61566 -1.58234 -1.54961 -1.51702 -1.48499 -1.45842 -1.43246 -1.40651 -1.38056 -1.3534 -1.3483 -1.34321 -1.33812 -1.33303 -1.32804 -1.29786 -1.26779 -1.23773 -1.20767 -1.17833 -1.14912 -1.12016 -1.09142 -1.06323 -1.0352 -1.00731 -0.979426 -0.952078 -0.925247 -0.898432 -0.871813 -0.845486 -0.819543 -0.793641 -0.768032 -0.744336 -0.721174 -0.698014 -0.674855 -0.651329 -0.649924 -0.64852 -0.647115 -0.645711 -0.644332 -0.620877 -0.597434 -0.573993 -0.550551 -0.527605 -0.505439 -0.483413 -0.461408 -0.43978 -0.418456 -0.39796 -0.377461 -0.357518 -0.338279 -0.319036 -0.300746 -0.282552 -0.265386 -0.248708 -0.232298 -0.216828 -0.202329 -0.187977 -0.173628 -0.159836 -0.154402 -0.149285 -0.14417 -0.139055 -0.133829 -0.127206 -0.120584 -0.113965 -0.107347 -0.100916 -0.0911814 -0.0818311 -0.0724924 -0.0632064 -0.0542735 -0.0466846 -0.0393103 -0.0321863 -0.0253213 -0.0185416 -0.013138 -0.00774826 -0.00253788 0.00248211 0.00747451 0.0109316 0.0143568 0.0176206 0.0210533 0.0245396 0.0262771 0.0279303 0.0295365 0.0311241 0.0332279 0.0334286 0.0335413 0.033637 0.0337159 0.0339934 0.0335405 0.0330956 0.032648 0.0321978 0.0317041 0.0311173 0.030526 0.0299301 0.0293296 0.0289902 0.0260781 0.0235373 0.0209847 0.0184204 0.0153791 0.00989095 0.00965056 0.00941311 0.00944281 0.0154033 0.0191743 0.0188921 0.0174749 0.0119103 0
-10.1108 -10.1111 -10.1114 -10.1117 -10.112 -10.1124 -10.1164 -10.1204 -10.1244 -10.1284 -10.1323 -10.1363 -10.1403 -10.1443 -10.1482 -10.1521 -10.1561 -10.16 -10.164 -10.1679 -10.1718 -10.1757 -10.1797 -10.1836 -10.1875 -10.1914 -10.1953 -10.1993 -10.2032 -10.2071 -10.211 -10.2149 -10.2189 -10.2228 -10.2267 -10.2306 -10.2346 -10.2385 -10.2425 -10.2464 -10.2503 -10.2543 -10.2583 -10.2623 -10.2662 -10.2701 -10.2741 -10.2781 -10.2821 -10.2861 -10.29 -10.294 -10.298 -10.302 -10.3061 -10.31 -10.3139 -10.3179 -10.3219 -10.3259 -10.3298 -10.3336 -10.3376 -10.3415 -10.3454 -10.3492 -10.3529 -10.3567 -10.3605 -10.3643 -10.3678 -10.3714 -10.3752 -10.379 -10.3827 -10.3865 -10.3902 -10.3941 -10.3979 -10.4017 -10.4055 -10.409 -10.4123 -10.4156 -10.4189 -10.422 -10.4248 -10.4275 -10.4302 -10.4329 -10.4355 -10.4379 -10.4402 -10.4425 -10.4448 -10.447 -10.4491 -10.4509 -10.4528 -10.4546 -10.4564 -10.4579 -10.4593 -10.4607 -10.4621 -10.4634 -10.4646 -10.4657 -10.4668 -10.4678 -10.4689 -10.4699 -10.4708 -10.4717 -10.4726 -10.4735 -10.4744 -10.4752 -10.476 -10.4768 -10.4777 -10.4786 -10.4794 -10.4803 -10.4811 -10.482 -10.4831 -10.4841 -10.4851 -10.4862 -10.4873 -10.4886 -10.4899 -10.4912 -10.4925 -10.4939 -10.4956 -10.4973 -10.499 -10.5007 -10.5025 -10.5046 -10.5068 -10.509 -10.5111 -10.5134 -10.516 -10.5187 -10.5214 -10.5241 -10.5268 -10.5299 -10.5332 -10.5364 -10.5396 -10.5429 -10.5465 -10.5503 -10.554 -10.5577 -10.5615 -10.5656 -10.5698 -10.574 -10.5782 -10.5824 -10.5869 -10.5915 -10.5961 -10.6007 -10.6053 -10.6101 -10.615 -10.6199 -10.6248 -10.6297 -10.6331 -10.6365 -10.6399 -10.6434 -10.6463 -10.648 -10.6498 -10.6515 -10.6532 -10.6549 -10.66 -10.6651 -10.6702 -10.6753 -10.6804 -10.6854 -10.6904 -10.6954 -10.7004 -10.7054 -10.7103 -10.715 -10.7198 -10.7245 -10.7293 -10.7339 -10.7382 -10.7426 -10.7469 -10.7513 -10.7554 -10.7592 -10.763 -10.7668 -10.7706 -10.7742 -10.7773 -10.7804 -10.7835 -10.7865 -10.7894 -10.7917 -10.794 -10.7962 -10.7983 -10.8004 -10.8017 -10.803 -10.8042 -10.8053 -10.8062 -10.8067 -10.8068 -10.8068 -10.8066 -10.8064 -10.8058 -10.8047 -10.8033 -10.8017 -10.8001 -10.7984 -10.7959 -10.7928 -10.7897 -10.7866 -10.7835 -10.7795 -10.7748 -10.7701 -10.7653 -10.7606 -10.755 -10.7484 -10.7419 -10.7354 -10.7289 -10.7215 -10.7131 -10.7047 -10.6962 -10.6874 -10.6779 -10.6681 -10.6576 -10.6471 -10.6357 -10.6241 -10.6125 -10.6 -10.587 -10.5731 -10.5592 -10.5454 -10.5312 -10.5238 -10.5162 -10.5085 -10.5009 -10.4937 -10.4852 -10.4767 -10.4682 -10.4597 -10.4507 -10.4328 -10.4144 -10.3961 -10.3777 -10.3579 -10.3383 -10.3175 -10.2966 -10.2749 -10.2522 -10.23 -10.2077 -10.184 -10.1585 -10.1332 -10.1082 -10.0833 -10.0566 -10.0285 -10.0003 -9.97261 -9.94387 -9.91413 -9.88433 -9.85339 -9.82369 -9.79243 -9.76119 -9.72997 -9.70189 -9.69995 -9.69801 -9.69608 -9.69414 -9.69208 -9.65733 -9.62251 -9.58772 -9.55296 -9.51608 -9.47961 -9.44245 -9.40488 -9.36546 -9.32552 -9.28623 -9.24697 -9.20587 -9.16319 -9.12052 -9.0785 -9.03492 -8.99058 -8.94625 -8.90137 -8.88641 -8.87069 -8.85497 -8.83924 -8.82394 -8.7931 -8.76228 -8.73147 -8.70057 -8.6682 -8.62023 -8.57173 -8.52306 -8.47264 -8.42176 -8.37141 -8.32108 -8.26884 -8.21602 -8.16302 -8.12185 -8.07946 -8.03681 -7.99417 -7.95379 -7.94171 -7.92964 -7.91756 -7.9054 -7.89293 -7.83741 -7.78177 -7.72615 -7.66974 -7.61257 -7.55551 -7.49847 -7.44039 -7.38198 -7.32353 -7.28451 -7.24503 -7.20533 -7.16564 -7.12739 -7.10748 -7.08758 -7.06767 -7.04766 -7.02746 -6.96724 -6.90723 -6.84724 -6.78676 -6.72617 -6.66533 -6.60441 -6.5433 -6.48221 -6.4213 -6.40977 -6.39824 -6.38672 -6.3752 -6.36377 -6.31405 -6.26432 -6.2146 -6.16497 -6.11541 -6.0538 -5.9922 -5.93094 -5.87029 -5.80969 -5.78181 -5.75407 -5.7265 -5.69894 -5.67178 -5.63857 -5.60537 -5.57217 -5.53909 -5.50626 -5.44548 -5.38503 -5.32516 -5.2661 -5.20702 -5.14747 -5.08841 -5.0299 -4.9714 -4.91316 -4.90722 -4.90135 -4.89552 -4.8897 -4.88388 -4.83219 -4.78049 -4.7288 -4.67746 -4.62689 -4.57002 -4.51315 -4.45747 -4.40301 -4.34855 -4.30195 -4.25615 -4.21077 -4.16539 -4.12008 -4.11182 -4.10356 -4.0953 -4.0871 -4.07907 -4.02642 -3.97422 -3.92201 -3.8705 -3.81978 -3.7686 -3.71743 -3.66735 -3.61871 -3.57009 -3.53321 -3.49709 -3.46128 -3.42548 -3.3893 -3.37743 -3.36556 -3.3537 -3.3419 -3.33038 -3.28362 -3.23746 -3.1913 -3.14584 -3.10107 -3.05597 -3.01087 -2.96679 -2.92397 -2.88117 -2.84263 -2.80494 -2.76749 -2.73004 -2.69173 -2.68745 -2.68317 -2.67889 -2.67463 -2.67048 -2.6298 -2.58931 -2.54883 -2.50862 -2.4693 -2.42977 -2.39023 -2.3517 -2.31405 -2.27643 -2.23863 -2.20131 -2.1645 -2.1277 -2.09144 -2.07834 -2.06553 -2.05275 -2.03998 -2.02708 -2.00442 -1.98176 -1.9591 -1.93647 -1.91441 -1.87968 -1.84549 -1.81139 -1.77789 -1.74467 -1.71138 -1.67809 -1.64545 -1.6135 -1.58157 -1.54961 -1.51821 -1.48698 -1.45575 -1.42469 -1.41838 -1.4122 -1.40603 -1.39986 -1.39367 -1.36963 -1.34559 -1.32156 -1.29753 -1.27405 -1.24456 -1.21531 -1.18614 -1.15747 -1.129 -1.1006 -1.07221 -1.04428 -1.0167 -0.989121 -0.96169 -0.934642 -0.907791 -0.88094 -0.854099 -0.84434 -0.834809 -0.825278 -0.815747 -0.806305 -0.789808 -0.773309 -0.75681 -0.74031 -0.724214 -0.699208 -0.674062 -0.648913 -0.624119 -0.599635 -0.575667 -0.551694 -0.528151 -0.50507 -0.481969 -0.459558 -0.438038 -0.417527 -0.397014 -0.377 -0.367496 -0.359204 -0.350954 -0.342703 -0.334716 -0.325844 -0.31697 -0.308095 -0.299218 -0.291323 -0.276803 -0.263463 -0.250119 -0.23757 -0.22585 -0.214957 -0.204063 -0.194012 -0.184799 -0.175595 -0.167384 -0.159165 -0.150941 -0.142727 -0.134633 -0.131143 -0.127512 -0.123886 -0.120263 -0.116436 -0.113055 -0.109678 -0.106304 -0.102934 -0.099651 -0.0938028 -0.0877449 -0.0817052 -0.075721 -0.0698555 -0.0653291 -0.0607894 -0.0558868 -0.0511889 -0.0465187 -0.0431147 -0.0397252 -0.0367202 -0.033521 -0.0303263 -0.0281283 -0.0261768 -0.0243783 -0.0225933 -0.0205369 -0.0193751 -0.0187305 -0.0180957 -0.0174707 -0.0168611 -0.0168154 -0.0167312 -0.0166471 -0.0165632 -0.0164771 -0.0160616 -0.0156511 -0.0152456 -0.014845 -0.0145715 -0.0147189 -0.0145694 -0.0144245 -0.0142843 -0.013222 -0.0122389 -0.00939986 -0.00623274 -0.00309307 0