/*--------------------------------*- C++ -*----------------------------------*\
| =========                 |                                                 |
| \\      /  F ield         | OpenFOAM: The Open Source CFD Toolbox           |
|  \\    /   O peration     | Version:  4.1                                   |
|   \\  /    A nd           | Web:      www.OpenFOAM.org                      |
|    \\/     M anipulation  |                                                 |
\*---------------------------------------------------------------------------*/
FoamFile
{
    version     2.0;
    format      ascii;
    class       volScalarField;
    location    "3";
    object      p;
}
// * * * * * * * * * * * * * * * * * * * * * * * * * * * * * * * * * * * * * //

dimensions      [0 2 -2 0 0 0 0];

internalField   nonuniform List<scalar> 
1705
(
3.99835e-29
2.05413e-28
3.86842e-28
4.68673e-28
5.50563e-28
7.03052e-28
9.14574e-28
1.003e-27
1.09132e-27
1.2397e-27
1.49582e-27
1.59631e-27
1.75407e-27
2.05921e-27
2.17581e-27
2.29242e-27
2.46009e-27
2.8428e-27
2.9836e-27
3.17729e-27
3.6473e-27
3.81852e-27
3.98996e-27
4.21148e-27
4.8109e-27
5.02425e-27
5.23743e-27
5.49895e-27
6.2722e-27
6.54216e-27
6.86559e-27
7.84411e-27
8.18507e-27
8.52618e-27
8.91497e-27
1.01949e-26
1.0633e-26
1.11183e-26
1.27608e-26
1.33188e-26
1.37172e-26
1.39543e-26
1.43233e-26
1.476e-26
-1.37124e-26
1.57888e-26
1.56048e-26
1.54827e-26
1.54905e-26
1.55093e-26
1.5539e-26
1.57059e-26
1.59431e-26
-1.33437e-26
1.54131e-26
1.50465e-26
1.47481e-26
1.45899e-26
1.44475e-26
1.43209e-26
1.43362e-26
1.44255e-26
-1.49499e-26
1.27617e-26
1.22699e-26
1.1864e-26
1.16057e-26
1.1371e-26
1.11602e-26
1.10974e-26
1.11177e-26
-1.60684e-26
3.37993e-27
2.94487e-27
2.61575e-27
2.45487e-27
2.35116e-27
2.30382e-27
2.37423e-27
2.54009e-27
-1.04315e-26
-9.90577e-27
-9.77544e-27
-9.33464e-27
-9.2004e-27
-8.83118e-27
-8.46403e-27
-8.3226e-27
-8.04026e-27
-7.72998e-27
-7.59153e-27
-7.36564e-27
-7.22869e-27
-7.02912e-27
-6.78341e-27
-6.65472e-27
-6.48585e-27
-6.36067e-27
-6.20788e-27
-6.00631e-27
-5.89346e-27
-5.76095e-27
-5.58407e-27
-5.48624e-27
-5.37124e-27
-5.28047e-27
-5.17683e-27
-5.04055e-27
-4.96917e-27
-4.88356e-27
-4.82197e-27
-4.74817e-27
-4.65876e-27
-4.62019e-27
-4.56728e-27
-4.51159e-27
-4.49751e-27
-4.4667e-27
-4.46551e-27
-4.44712e-27
2.70513e-28
2.73459e-28
2.71359e-28
2.64723e-28
2.53292e-28
2.36696e-28
2.1452e-28
1.86349e-28
1.51796e-28
1.10522e-28
6.22471e-29
6.75977e-30
-5.60735e-29
-1.26273e-28
-2.0368e-28
-2.87837e-28
-3.77827e-28
-4.72064e-28
-5.6808e-28
-6.62351e-28
-7.50223e-28
-8.26001e-28
-8.83232e-28
-9.15192e-28
-9.15531e-28
-8.79039e-28
-8.02559e-28
-6.86302e-28
-5.36105e-28
-3.67226e-28
-2.09247e-28
-1.09548e-28
-1.31387e-28
-3.41907e-28
-7.89561e-28
-1.48041e-27
-2.36956e-27
-3.26481e-27
-4.14538e-27
2.70395e-28
2.73294e-28
2.71181e-28
2.6455e-28
2.53132e-28
2.36553e-28
2.14399e-28
1.86253e-28
1.5173e-28
1.10491e-28
6.22565e-29
6.81462e-30
-5.59692e-29
-1.26118e-28
-2.03474e-28
-2.87585e-28
-3.77539e-28
-4.71754e-28
-5.67763e-28
-6.62043e-28
-7.49937e-28
-8.25745e-28
-8.83007e-28
-9.14992e-28
-9.15343e-28
-8.78839e-28
-8.02296e-28
-6.85863e-28
-5.35269e-28
-3.65662e-28
-2.06645e-28
-1.05872e-28
-1.27199e-28
-3.38543e-28
-7.88798e-28
-1.48353e-27
-2.38104e-27
-3.27701e-27
-4.17357e-27
2.69788e-28
2.72612e-28
2.7048e-28
2.63863e-28
2.52474e-28
2.35939e-28
2.13844e-28
1.85773e-28
1.51341e-28
1.1021e-28
6.21032e-29
6.8074e-30
-5.5812e-29
-1.25779e-28
-2.02939e-28
-2.86844e-28
-3.76584e-28
-4.70584e-28
-5.66384e-28
-6.60465e-28
-7.48179e-28
-8.23833e-28
-8.80976e-28
-9.12888e-28
-9.13222e-28
-8.76763e-28
-8.00316e-28
-6.8399e-28
-5.3345e-28
-3.63811e-28
-2.04811e-28
-1.04521e-28
-1.27489e-28
-3.4239e-28
-7.98412e-28
-1.50036e-27
-2.40945e-27
-3.30991e-27
-4.2244e-27
2.68708e-28
2.71447e-28
2.69297e-28
2.62702e-28
2.5136e-28
2.34895e-28
2.12895e-28
1.84945e-28
1.50661e-28
1.0971e-28
6.18122e-29
6.75753e-30
-5.55891e-29
-1.25253e-28
-2.02081e-28
-2.85629e-28
-3.74993e-28
-4.68604e-28
-5.6401e-28
-6.57709e-28
-7.45065e-28
-8.20405e-28
-8.77303e-28
-9.09063e-28
-9.09365e-28
-8.73009e-28
-7.96804e-28
-6.80835e-28
-5.30733e-28
-3.61638e-28
-2.03527e-28
-1.05034e-28
-1.31517e-28
-3.52428e-28
-8.17149e-28
-1.52949e-27
-2.45347e-27
-3.36199e-27
-4.29726e-27
2.67171e-28
2.69824e-28
2.6766e-28
2.61095e-28
2.49818e-28
2.33449e-28
2.11578e-28
1.83795e-28
1.49716e-28
1.0901e-28
6.14012e-29
6.67843e-30
-5.52923e-29
-1.24537e-28
-2.00905e-28
-2.83955e-28
-3.72789e-28
-4.65847e-28
-5.60693e-28
-6.53839e-28
-7.40677e-28
-8.15562e-28
-8.72105e-28
-9.03649e-28
-9.0391e-28
-8.67718e-28
-7.91891e-28
-6.76504e-28
-5.27173e-28
-3.59112e-28
-2.02629e-28
-1.07058e-28
-1.38704e-28
-3.67841e-28
-8.43951e-28
-1.56964e-27
-2.51183e-27
-3.43171e-27
-4.39124e-27
2.6519e-28
2.67761e-28
2.65589e-28
2.59064e-28
2.47867e-28
2.31621e-28
2.09914e-28
1.82341e-28
1.48522e-28
1.08126e-28
6.08818e-29
6.5788e-30
-5.49163e-29
-1.2363e-28
-1.99413e-28
-2.8183e-28
-3.69988e-28
-4.6234e-28
-5.56466e-28
-6.48903e-28
-7.35073e-28
-8.09375e-28
-8.65464e-28
-8.96735e-28
-8.96953e-28
-8.60985e-28
-7.85667e-28
-6.71069e-28
-5.22808e-28
-3.56209e-28
-2.01993e-28
-1.10331e-28
-1.48608e-28
-3.8797e-28
-8.77914e-28
-1.6196e-27
-2.58323e-27
-3.51748e-27
-4.50547e-27
2.62776e-28
2.65271e-28
2.63097e-28
2.56622e-28
2.45523e-28
2.29423e-28
2.07915e-28
1.80595e-28
1.47088e-28
1.07067e-28
6.02616e-29
6.46407e-30
-5.44583e-29
-1.22532e-28
-1.97611e-28
-2.79263e-28
-3.66605e-28
-4.58102e-28
-5.51355e-28
-6.42932e-28
-7.28294e-28
-8.0189e-28
-8.57434e-28
-8.88381e-28
-8.88556e-28
-8.52873e-28
-7.78191e-28
-6.64578e-28
-5.17663e-28
-3.52909e-28
-2.01527e-28
-1.14651e-28
-1.60875e-28
-4.12258e-28
-9.18215e-28
-1.6782e-27
-2.66627e-27
-3.61761e-27
-4.63861e-27
2.59942e-28
2.62365e-28
2.60194e-28
2.53779e-28
2.42795e-28
2.26866e-28
2.0559e-28
1.78566e-28
1.45424e-28
1.05839e-28
5.95457e-29
6.33759e-30
-5.39168e-29
-1.21244e-28
-1.95501e-28
-2.7626e-28
-3.62647e-28
-4.53145e-28
-5.45378e-28
-6.3595e-28
-7.20369e-28
-7.93142e-28
-8.48053e-28
-8.78629e-28
-8.78764e-28
-8.43426e-28
-7.69501e-28
-6.57062e-28
-5.11751e-28
-3.49195e-28
-2.01157e-28
-1.19851e-28
-1.752e-28
-4.40194e-28
-9.64046e-28
-1.74421e-27
-2.75944e-27
-3.73028e-27
-4.7891e-27
2.56694e-28
2.59049e-28
2.56888e-28
2.50543e-28
2.3969e-28
2.23958e-28
2.02946e-28
1.7626e-28
1.43533e-28
1.04447e-28
5.87375e-29
6.20143e-30
-5.32915e-29
-1.19768e-28
-1.93087e-28
-2.72827e-28
-3.58126e-28
-4.47482e-28
-5.38551e-28
-6.27976e-28
-7.1132e-28
-7.83158e-28
-8.37351e-28
-8.67511e-28
-8.6761e-28
-8.32675e-28
-7.59628e-28
-6.48544e-28
-5.05084e-28
-3.45052e-28
-2.00819e-28
-1.25787e-28
-1.913e-28
-4.7127e-28
-1.01457e-27
-1.81632e-27
-2.86102e-27
-3.85348e-27
-4.95489e-27
2.53043e-28
2.55332e-28
2.53186e-28
2.4692e-28
2.36216e-28
2.20704e-28
1.99989e-28
1.73682e-28
1.41422e-28
1.02895e-28
5.78397e-29
6.05691e-30
-5.25824e-29
-1.18105e-28
-1.90373e-28
-2.68971e-28
-3.53048e-28
-4.41125e-28
-5.30888e-28
-6.19027e-28
-7.01167e-28
-7.71958e-28
-8.25352e-28
-8.55053e-28
-8.55119e-28
-8.20647e-28
-7.48596e-28
-6.39044e-28
-4.9767e-28
-3.40466e-28
-2.00456e-28
-1.32316e-28
-2.0889e-28
-5.04964e-28
-1.06888e-27
-1.89308e-27
-2.96912e-27
-3.98505e-27
-5.13422e-27
2.48995e-28
2.51221e-28
2.49093e-28
2.42918e-28
2.32379e-28
2.17111e-28
1.96726e-28
1.70838e-28
1.39095e-28
1.01185e-28
5.68545e-29
5.90495e-30
-5.17903e-29
-1.16258e-28
-1.87363e-28
-2.64697e-28
-3.47422e-28
-4.34084e-28
-5.22403e-28
-6.09119e-28
-6.89928e-28
-7.59566e-28
-8.1208e-28
-8.41279e-28
-8.41316e-28
-8.07365e-28
-7.36424e-28
-6.28577e-28
-4.89516e-28
-3.35426e-28
-2.00011e-28
-1.393e-28
-2.27679e-28
-5.40719e-28
-1.12603e-27
-1.97294e-27
-3.08163e-27
-4.12263e-27
-5.32496e-27
2.44559e-28
2.46722e-28
2.44618e-28
2.38543e-28
2.28186e-28
2.13186e-28
1.93161e-28
1.67733e-28
1.36555e-28
9.93224e-29
5.57839e-29
5.74619e-30
-5.0916e-29
-1.1423e-28
-1.84062e-28
-2.60012e-28
-3.41259e-28
-4.2637e-28
-5.13108e-28
-5.98269e-28
-6.77624e-28
-7.46002e-28
-7.97557e-28
-8.26212e-28
-8.26225e-28
-7.92852e-28
-7.23134e-28
-6.17159e-28
-4.8063e-28
-3.29918e-28
-1.99431e-28
-1.46595e-28
-2.47361e-28
-5.77948e-28
-1.18497e-27
-2.05423e-27
-3.19626e-27
-4.26369e-27
-5.52455e-27
2.39744e-28
2.41843e-28
2.39767e-28
2.33803e-28
2.23643e-28
2.08934e-28
1.893e-28
1.64372e-28
1.33807e-28
9.73087e-29
5.46299e-29
5.58116e-30
-4.99606e-29
-1.12022e-28
-1.80474e-28
-2.54924e-28
-3.34566e-28
-4.17997e-28
-5.0302e-28
-5.86495e-28
-6.64273e-28
-7.31287e-28
-7.81807e-28
-8.09878e-28
-8.0987e-28
-7.77129e-28
-7.08746e-28
-6.04808e-28
-4.7102e-28
-3.23933e-28
-1.98659e-28
-1.54054e-28
-2.67616e-28
-6.16026e-28
-1.24462e-27
-2.13515e-27
-3.31058e-27
-4.40559e-27
-5.73094e-27
2.34556e-28
2.36591e-28
2.34548e-28
2.28703e-28
2.18757e-28
2.04362e-28
1.85151e-28
1.6076e-28
1.30856e-28
9.51477e-29
5.33945e-29
5.41028e-30
-4.89254e-29
-1.0964e-28
-1.76606e-28
-2.4944e-28
-3.27355e-28
-4.08976e-28
-4.92154e-28
-5.73814e-28
-6.49897e-28
-7.15445e-28
-7.64854e-28
-7.923e-28
-7.92275e-28
-7.60222e-28
-6.9328e-28
-5.91539e-28
-4.60696e-28
-3.17461e-28
-1.97641e-28
-1.61526e-28
-2.88109e-28
-6.54298e-28
-1.30382e-27
-2.21384e-27
-3.42198e-27
-4.54557e-27
-5.94186e-27
2.29005e-28
2.30975e-28
2.28968e-28
2.23253e-28
2.13536e-28
1.99478e-28
1.80718e-28
1.56903e-28
1.27706e-28
9.2843e-29
5.20796e-29
5.23397e-30
-4.7812e-29
-1.07085e-28
-1.72462e-28
-2.43568e-28
-3.19636e-28
-3.99321e-28
-4.80526e-28
-5.60245e-28
-6.34517e-28
-6.985e-28
-7.46724e-28
-7.73505e-28
-7.73468e-28
-7.42154e-28
-6.7676e-28
-5.77372e-28
-4.49668e-28
-3.10495e-28
-1.96322e-28
-1.68855e-28
-3.08494e-28
-6.92086e-28
-1.36138e-27
-2.28838e-27
-3.52776e-27
-4.68071e-27
-6.15493e-27
2.231e-28
2.25003e-28
2.23037e-28
2.17461e-28
2.07988e-28
1.94288e-28
1.76009e-28
1.52806e-28
1.24361e-28
9.0398e-29
5.06874e-29
5.05259e-30
-4.66218e-29
-1.04362e-28
-1.68049e-28
-2.37319e-28
-3.11421e-28
-3.89048e-28
-4.68154e-28
-5.45811e-28
-6.18158e-28
-6.80478e-28
-7.27445e-28
-7.53523e-28
-7.53475e-28
-7.22952e-28
-6.59208e-28
-5.62326e-28
-4.37949e-28
-3.03027e-28
-1.9465e-28
-1.75883e-28
-3.28414e-28
-7.28694e-28
-1.41609e-27
-2.35682e-27
-3.62511e-27
-4.80802e-27
-6.36769e-27
2.16849e-28
2.18684e-28
2.16762e-28
2.11334e-28
2.02122e-28
1.88802e-28
1.71032e-28
1.48477e-28
1.20828e-28
8.78167e-29
4.92202e-29
4.86652e-30
-4.53567e-29
-1.01476e-28
-1.63374e-28
-2.307e-28
-3.02723e-28
-3.78172e-28
-4.55057e-28
-5.30532e-28
-6.00843e-28
-6.61405e-28
-7.07045e-28
-7.32382e-28
-7.32326e-28
-7.02643e-28
-6.4065e-28
-5.46422e-28
-4.25552e-28
-2.95055e-28
-1.92574e-28
-1.82454e-28
-3.47509e-28
-7.63417e-28
-1.46673e-27
-2.41722e-27
-3.7112e-27
-4.92434e-27
-6.577e-27
2.10264e-28
2.12028e-28
2.10155e-28
2.04884e-28
1.95946e-28
1.83026e-28
1.65793e-28
1.43921e-28
1.17111e-28
8.5103e-29
4.76802e-29
4.67611e-30
-4.40185e-29
-9.84293e-29
-1.58445e-28
-2.23722e-28
-2.93555e-28
-3.66709e-28
-4.41256e-28
-5.14433e-28
-5.82599e-28
-6.41312e-28
-6.85555e-28
-7.10114e-28
-7.10052e-28
-6.81259e-28
-6.21114e-28
-5.29683e-28
-4.12493e-28
-2.86577e-28
-1.90046e-28
-1.88409e-28
-3.65417e-28
-7.95555e-28
-1.51213e-27
-2.4677e-27
-3.78316e-27
-5.02643e-27
-6.78001e-27
2.03353e-28
2.05046e-28
2.03224e-28
1.98119e-28
1.89469e-28
1.7697e-28
1.60301e-28
1.39147e-28
1.13217e-28
8.22612e-29
4.60699e-29
4.48171e-30
-4.26091e-29
-9.52279e-29
-1.53267e-28
-2.16395e-28
-2.8393e-28
-3.54678e-28
-4.2677e-28
-4.97536e-28
-5.63455e-28
-6.20229e-28
-6.63009e-28
-6.86753e-28
-6.86688e-28
-6.58829e-28
-6.00626e-28
-5.12133e-28
-3.9879e-28
-2.77592e-28
-1.8702e-28
-1.93598e-28
-3.81781e-28
-8.24419e-28
-1.55111e-27
-2.50646e-27
-3.83814e-27
-5.11084e-27
-6.97361e-27
1.96128e-28
1.97747e-28
1.9598e-28
1.9105e-28
1.82702e-28
1.70644e-28
1.54564e-28
1.3416e-28
1.09151e-28
7.92956e-29
4.43917e-29
4.2837e-30
-4.11307e-29
-9.18763e-29
-1.4785e-28
-2.08732e-28
-2.73864e-28
-3.42095e-28
-4.11623e-28
-4.7987e-28
-5.43439e-28
-5.98187e-28
-6.39438e-28
-6.62333e-28
-6.62266e-28
-6.35387e-28
-5.79218e-28
-4.93798e-28
-3.84462e-28
-2.68107e-28
-1.83456e-28
-1.97873e-28
-3.96252e-28
-8.49345e-28
-1.58261e-27
-2.53186e-27
-3.87337e-27
-5.17374e-27
-7.15337e-27
1.886e-28
1.90142e-28
1.88435e-28
1.83687e-28
1.75655e-28
1.64056e-28
1.48592e-28
1.28969e-28
1.0492e-28
7.62108e-29
4.26483e-29
4.08241e-30
-3.95854e-29
-8.83795e-29
-1.42201e-28
-2.00743e-28
-2.63372e-28
-3.28981e-28
-3.95837e-28
-4.61459e-28
-5.22581e-28
-5.7522e-28
-6.14881e-28
-6.36891e-28
-6.36823e-28
-6.10966e-28
-5.5692e-28
-4.74705e-28
-3.69529e-28
-2.58126e-28
-1.79322e-28
-2.01096e-28
-4.08495e-28
-8.69702e-28
-1.60562e-27
-2.54246e-27
-3.88618e-27
-5.21092e-27
-7.31472e-27
1.8078e-28
1.82245e-28
1.80599e-28
1.76042e-28
1.68339e-28
1.57218e-28
1.42392e-28
1.23582e-28
1.0053e-28
7.30116e-29
4.08424e-29
3.87821e-30
-3.79757e-29
-8.47428e-29
-1.36329e-28
-1.9244e-28
-2.5247e-28
-3.15356e-28
-3.79436e-28
-4.42332e-28
-5.00914e-28
-5.51363e-28
-5.89372e-28
-6.10466e-28
-6.10398e-28
-5.85604e-28
-5.33765e-28
-4.54883e-28
-3.54015e-28
-2.47662e-28
-1.74587e-28
-2.03141e-28
-4.18195e-28
-8.84905e-28
-1.61927e-27
-2.53704e-27
-3.8741e-27
-5.21749e-27
-7.45045e-27
1.7268e-28
1.74066e-28
1.72485e-28
1.68126e-28
1.60764e-28
1.50139e-28
1.35976e-28
1.18007e-28
9.59874e-29
6.97029e-29
3.89768e-29
3.67145e-30
-3.63038e-29
-8.09719e-29
-1.30243e-28
-1.83837e-28
-2.41174e-28
-3.0124e-28
-3.62445e-28
-4.22519e-28
-4.7847e-28
-5.26652e-28
-5.62952e-28
-5.83096e-28
-5.83029e-28
-5.59338e-28
-5.09788e-28
-4.34362e-28
-3.37945e-28
-2.36727e-28
-1.69233e-28
-2.03892e-28
-4.2506e-28
-8.94425e-28
-1.62281e-27
-2.51469e-27
-3.83489e-27
-5.18763e-27
-7.5531e-27
1.64312e-28
1.65618e-28
1.64105e-28
1.59952e-28
1.52943e-28
1.4283e-28
1.29351e-28
1.12253e-28
9.12998e-29
6.62898e-29
3.70543e-29
3.46248e-30
-3.45723e-29
-7.70723e-29
-1.23952e-28
-1.74946e-28
-2.29502e-28
-2.86654e-28
-3.44891e-28
-4.0205e-28
-4.55284e-28
-5.01124e-28
-5.35659e-28
-5.54824e-28
-5.54758e-28
-5.32207e-28
-4.85025e-28
-4.13174e-28
-3.21345e-28
-2.25338e-28
-1.63246e-28
-2.03254e-28
-4.28828e-28
-8.97794e-28
-1.61562e-27
-2.47485e-27
-3.76671e-27
-5.11435e-27
-7.60807e-27
1.5569e-28
1.56913e-28
1.55472e-28
1.51532e-28
1.44887e-28
1.35303e-28
1.2253e-28
1.06328e-28
8.64743e-29
6.27776e-29
3.50781e-29
3.25167e-30
-3.27839e-29
-7.305e-29
-1.17466e-28
-1.65781e-28
-2.17471e-28
-2.71622e-28
-3.26799e-28
-3.80955e-28
-4.3139e-28
-4.74819e-28
-5.07536e-28
-5.25691e-28
-5.25627e-28
-5.04251e-28
-4.59513e-28
-3.91351e-28
-3.04244e-28
-2.13518e-28
-1.56622e-28
-2.01146e-28
-4.29271e-28
-8.94617e-28
-1.59726e-27
-2.41731e-27
-3.66826e-27
-4.98924e-27
-7.59764e-27
1.46826e-28
1.47966e-28
1.466e-28
1.42879e-28
1.36609e-28
1.27568e-28
1.15521e-28
1.00241e-28
8.15181e-29
5.91716e-29
3.30511e-29
3.03936e-30
-3.09412e-29
-6.89111e-29
-1.10795e-28
-1.56356e-28
-2.051e-28
-2.56165e-28
-3.08198e-28
-3.59266e-28
-4.06825e-28
-4.47775e-28
-4.78624e-28
-4.95743e-28
-4.95679e-28
-4.75512e-28
-4.3329e-28
-3.68928e-28
-2.86672e-28
-2.01289e-28
-1.49366e-28
-1.97509e-28
-4.26201e-28
-8.84575e-28
-1.56745e-27
-2.3423e-27
-3.53902e-27
-4.80236e-27
-7.53266e-27
1.37734e-28
1.38789e-28
1.37501e-28
1.34006e-28
1.28122e-28
1.19638e-28
1.08337e-28
9.4002e-29
7.6439e-29
5.54774e-29
3.09764e-29
2.82591e-30
-2.9047e-29
-6.4662e-29
-1.03948e-28
-1.46685e-28
-1.92408e-28
-2.40308e-28
-2.89116e-28
-3.37018e-28
-3.81627e-28
-4.20035e-28
-4.48969e-28
-4.65023e-28
-4.64961e-28
-4.46035e-28
-4.06396e-28
-3.4594e-28
-2.68659e-28
-1.88681e-28
-1.41494e-28
-1.92306e-28
-4.19469e-28
-8.6743e-28
-1.52606e-27
-2.25044e-27
-3.37958e-27
-4.54086e-27
-7.02944e-27
1.28428e-28
1.29398e-28
1.28189e-28
1.24926e-28
1.19437e-28
1.11526e-28
1.00987e-28
8.76205e-29
7.12446e-29
5.17007e-29
2.88572e-29
2.61166e-30
-2.71043e-29
-6.03091e-29
-9.69374e-29
-1.36782e-28
-1.79413e-28
-2.24074e-28
-2.69582e-28
-3.14243e-28
-3.55833e-28
-3.91641e-28
-4.18614e-28
-4.3358e-28
-4.33518e-28
-4.15863e-28
-3.78873e-28
-3.22424e-28
-2.50239e-28
-1.75723e-28
-1.3303e-28
-1.85523e-28
-4.08976e-28
-8.43028e-28
-1.47311e-27
-2.14271e-27
-3.1921e-27
-4.20313e-27
-6.14474e-27
1.18921e-28
1.19805e-28
1.18679e-28
1.15654e-28
1.1057e-28
1.03243e-28
9.34829e-29
8.11061e-29
6.59431e-29
4.78472e-29
2.66968e-29
2.39696e-30
-2.51159e-29
-5.5859e-29
-8.97722e-29
-1.26664e-28
-1.66137e-28
-2.07489e-28
-2.49625e-28
-2.90977e-28
-3.29483e-28
-3.62635e-28
-3.87606e-28
-4.0146e-28
-4.01399e-28
-3.85042e-28
-3.50763e-28
-2.98417e-28
-2.31445e-28
-1.62449e-28
-1.24006e-28
-1.77172e-28
-3.94671e-28
-8.11304e-28
-1.40874e-27
-2.02044e-27
-2.98044e-27
-3.79993e-27
-4.90833e-27
1.09228e-28
1.10026e-28
1.08986e-28
1.06204e-28
1.01532e-28
9.48013e-29
8.58367e-29
7.44688e-29
6.05424e-29
4.39229e-29
2.44986e-29
2.18215e-30
-2.30848e-29
-5.13185e-29
-8.2464e-29
-1.16346e-28
-1.52598e-28
-1.90577e-28
-2.29276e-28
-2.67254e-28
-3.02617e-28
-3.33061e-28
-3.55992e-28
-3.68712e-28
-3.68652e-28
-3.5362e-28
-3.22108e-28
-2.73957e-28
-2.12312e-28
-1.48897e-28
-1.14468e-28
-1.67287e-28
-3.76553e-28
-7.72277e-28
-1.33321e-27
-1.88509e-27
-2.7497e-27
-3.35491e-27
-3.22734e-27
9.93645e-29
1.00075e-28
9.91237e-29
9.65908e-29
9.23391e-29
8.62151e-29
7.80598e-29
6.77188e-29
5.50509e-29
3.99338e-29
2.22658e-29
1.96756e-30
-2.10143e-29
-4.66946e-29
-7.50239e-29
-1.05843e-28
-1.38818e-28
-1.73365e-28
-2.08566e-28
-2.43111e-28
-2.75276e-28
-3.02966e-28
-3.2382e-28
-3.35386e-28
-3.35328e-28
-3.21645e-28
-2.92954e-28
-2.49085e-28
-1.92876e-28
-1.35104e-28
-1.04466e-28
-1.55933e-28
-3.54676e-28
-7.26056e-28
-1.24687e-27
-1.73821e-27
-2.50544e-27
-2.9096e-27
-2.10112e-27
8.93441e-29
8.99686e-29
8.9108e-29
8.68282e-29
8.3004e-29
7.74971e-29
7.01642e-29
6.08664e-29
4.9477e-29
3.58859e-29
2.00019e-29
1.75354e-30
-1.89073e-29
-4.19944e-29
-6.74632e-29
-9.51708e-29
-1.24818e-28
-1.55878e-28
-1.87526e-28
-2.18584e-28
-2.47501e-28
-2.72393e-28
-2.91139e-28
-3.01534e-28
-3.01476e-28
-2.89165e-28
-2.63346e-28
-2.23839e-28
-1.73172e-28
-1.21111e-28
-9.40596e-29
-1.43194e-28
-3.29146e-28
-6.72838e-28
-1.15015e-27
-1.58121e-27
-2.25236e-27
-2.48626e-27
-1.35853e-27
7.91822e-29
7.97212e-29
7.89541e-29
7.69316e-29
7.35416e-29
6.86607e-29
6.21619e-29
5.39221e-29
4.38292e-29
3.17856e-29
1.77104e-29
1.5404e-30
-1.67673e-29
-3.7225e-29
-5.97935e-29
-8.43463e-29
-1.10618e-28
-1.38143e-28
-1.66189e-28
-1.93711e-28
-2.19335e-28
-2.41391e-28
-2.57999e-28
-2.67206e-28
-2.6715e-28
-2.56232e-28
-2.33329e-28
-1.98261e-28
-1.53236e-28
-1.06959e-28
-8.33169e-29
-1.29183e-28
-3.00125e-28
-6.12908e-28
-1.04354e-27
-1.4154e-27
-1.99385e-27
-2.09483e-27
-8.71249e-28
6.88941e-29
6.93488e-29
6.86776e-29
6.69164e-29
6.39662e-29
5.97193e-29
5.40651e-29
4.68966e-29
3.81162e-29
2.7639e-29
1.53948e-29
1.32847e-30
-1.45974e-29
-3.23936e-29
-5.20264e-29
-7.3386e-29
-9.62416e-29
-1.20187e-28
-1.44586e-28
-1.68529e-28
-1.9082e-28
-2.10006e-28
-2.24451e-28
-2.32456e-28
-2.32402e-28
-2.22895e-28
-2.0295e-28
-1.72391e-28
-1.33107e-28
-9.26912e-29
-7.23106e-29
-1.14032e-28
-2.67825e-28
-5.46639e-28
-9.27616e-28
-1.24193e-27
-1.73212e-27
-1.73795e-27
-5.57426e-28
5.84949e-29
5.88673e-29
5.82944e-29
5.67979e-29
5.42926e-29
5.06868e-29
4.58864e-29
3.98007e-29
3.23467e-29
2.34525e-29
1.30586e-29
1.11807e-30
-1.24009e-29
-2.75078e-29
-4.4174e-29
-6.23064e-29
-8.17093e-29
-1.02038e-28
-1.22751e-28
-1.43077e-28
-1.62e-28
-1.78285e-28
-1.90545e-28
-1.97337e-28
-1.97286e-28
-1.89207e-28
-1.72258e-28
-1.46271e-28
-1.12819e-28
-7.83495e-29
-6.11187e-29
-9.78953e-29
-2.32506e-28
-4.74487e-28
-8.03018e-28
-1.06184e-27
-1.46846e-27
-1.41386e-27
-3.55951e-28
4.80002e-29
4.82928e-29
4.78205e-29
4.65917e-29
4.45357e-29
4.15769e-29
3.76382e-29
3.26451e-29
2.65295e-29
1.92326e-29
1.07054e-29
9.09495e-31
-1.01813e-29
-2.2575e-29
-3.62481e-29
-5.11245e-29
-6.70437e-29
-8.37227e-29
-1.00718e-28
-1.17394e-28
-1.32918e-28
-1.46278e-28
-1.56333e-28
-1.61902e-28
-1.61856e-28
-1.5522e-28
-1.413e-28
-1.19942e-28
-9.24092e-29
-6.39765e-29
-4.98227e-29
-8.09461e-29
-1.94477e-28
-3.9699e-28
-6.70483e-28
-8.7612e-28
-1.20352e-27
-1.11849e-27
-2.25292e-28
3.74253e-29
3.76418e-29
3.7272e-29
3.63135e-29
3.47105e-29
3.24038e-29
2.93332e-29
2.54408e-29
2.06736e-29
1.49856e-29
8.33879e-30
7.03058e-31
-7.94201e-30
-1.76027e-29
-2.82609e-29
-3.98575e-29
-5.22672e-29
-6.52695e-29
-7.85181e-29
-9.15182e-29
-1.0362e-28
-1.14032e-28
-1.21869e-28
-1.26207e-28
-1.26166e-28
-1.20988e-28
-1.10125e-28
-9.34473e-29
-7.19135e-29
-4.96136e-29
-3.85065e-29
-6.3372e-29
-1.54087e-28
-3.14762e-28
-5.30838e-28
-6.85782e-28
-9.37563e-28
-8.46719e-28
-1.4057e-28
2.67854e-29
2.69309e-29
2.66654e-29
2.59793e-29
2.4832e-29
2.31813e-29
2.09842e-29
1.8199e-29
1.47879e-29
1.07181e-29
5.96232e-30
4.99048e-31
-5.68639e-30
-1.25986e-29
-2.02247e-29
-2.85224e-29
-3.74022e-29
-4.67063e-29
-5.61867e-29
-6.54891e-29
-7.4148e-29
-8.1598e-29
-8.72036e-29
-9.03052e-29
-9.0273e-29
-8.65633e-29
-7.87822e-29
-6.68281e-29
-5.13672e-29
-3.5301e-29
-2.72547e-29
-4.5374e-29
-1.11721e-28
-2.28483e-28
-3.85009e-28
-4.91911e-28
-6.70697e-28
-5.92965e-28
-8.34242e-29
1.6096e-29
1.61769e-29
1.60172e-29
1.56048e-29
1.49155e-29
1.39238e-29
1.26038e-29
1.09306e-29
8.88141e-30
6.43654e-30
3.57963e-30
2.97749e-31
-3.41796e-30
-7.57029e-30
-1.21516e-29
-1.71366e-29
-2.24715e-29
-2.80615e-29
-3.37574e-29
-3.93464e-29
-4.45486e-29
-4.9024e-29
-5.23908e-29
-5.42528e-29
-5.42316e-29
-5.20002e-29
-4.73207e-29
-4.01266e-29
-3.0805e-29
-2.10774e-29
-1.61515e-29
-2.7163e-29
-6.77957e-29
-1.38892e-28
-2.34016e-28
-2.9571e-28
-4.03032e-28
-3.51572e-28
-4.36877e-29
5.37194e-30
5.39711e-30
5.34383e-30
5.20626e-30
4.9763e-30
4.64545e-30
4.20507e-30
3.64683e-30
2.96316e-30
2.14749e-30
1.19435e-30
9.9434e-32
-1.14024e-30
-2.52561e-30
-4.0542e-30
-5.71757e-30
-7.49783e-30
-9.36335e-30
-1.12644e-29
-1.31298e-29
-1.48662e-29
-1.63601e-29
-1.74838e-29
-1.81053e-29
-1.80981e-29
-1.73531e-29
-1.57902e-29
-1.33851e-29
-1.02607e-29
-6.97911e-30
-5.27889e-30
-8.95636e-30
-2.27552e-29
-4.67804e-29
-7.89701e-29
-9.85288e-29
-1.34795e-28
-1.16825e-28
-1.35796e-29
-1.09036e-20
-5.93868e-21
-3.62742e-21
-1.32729e-21
-1.53169e-21
-6.13314e-22
-3.23338e-22
-1.70843e-22
-1.06222e-22
-8.62879e-23
-3.28827e-23
-1.68089e-23
-9.46544e-24
-6.2839e-24
-4.28253e-24
-1.58831e-24
-7.34931e-25
-3.46532e-25
-1.44639e-25
-1.45459e-26
1.07347e-25
1.45882e-25
1.5989e-25
1.64048e-25
1.63647e-25
)
;

boundaryField
{
    fixedWallsLeftTop
    {
        type            zeroGradient;
    }
    backFaceLeftTop
    {
        type            zeroGradient;
    }
    frontFaceLeftTop
    {
        type            zeroGradient;
    }
    symmetryWallLeftTop
    {
        type            fixedValue;
        value           uniform 0;
    }
    topToBottom
    {
        type            zeroGradient;
    }
    plug
    {
        type            cyclicAMI;
        value           nonuniform List<scalar> 
40
(
6.36937e-26
6.38518e-26
6.40978e-26
6.4389e-26
7.2746e-26
6.50748e-26
6.49522e-26
6.48708e-26
6.50096e-26
6.50222e-26
6.5042e-26
6.51533e-26
6.53114e-26
7.31305e-26
6.49581e-26
6.47137e-26
6.31286e-26
6.30231e-26
6.29282e-26
6.28438e-26
6.28539e-26
6.29135e-26
7.02801e-26
6.18043e-26
5.68072e-26
5.65366e-26
5.63644e-26
5.62079e-26
5.60674e-26
5.60255e-26
5.60391e-26
6.28784e-26
3.80357e-26
3.77457e-26
3.75263e-26
3.7419e-26
3.73499e-26
3.73183e-26
3.73653e-26
3.74758e-26
)
;
    }
    fixedWallsChannel
    {
        type            zeroGradient;
    }
    inlet
    {
        type            zeroGradient;
    }
    outlet
    {
        type            cyclicAMI;
        value           nonuniform List<scalar> 5(6.57235e-26 6.62994e-26 6.39595e-26 5.73246e-26 3.75295e-26);
    }
    backFaceInletChannel
    {
        type            zeroGradient;
    }
    frontFaceInletChannel
    {
        type            zeroGradient;
    }
}


// ************************************************************************* //
