/*--------------------------------*- C++ -*----------------------------------*\
| =========                 |                                                 |
| \\      /  F ield         | OpenFOAM: The Open Source CFD Toolbox           |
|  \\    /   O peration     | Version:  4.1                                   |
|   \\  /    A nd           | Web:      www.OpenFOAM.org                      |
|    \\/     M anipulation  |                                                 |
\*---------------------------------------------------------------------------*/
FoamFile
{
    version     2.0;
    format      ascii;
    class       surfaceScalarField;
    location    "3";
    object      phi;
}
// * * * * * * * * * * * * * * * * * * * * * * * * * * * * * * * * * * * * * //

dimensions      [0 3 -1 0 0 0 0];

internalField   nonuniform List<scalar> 
3240
(
-5.92489e-25
-6.01591e-25
9.10231e-27
-6.01588e-25
-6.01588e-25
-6.0159e-25
-6.12674e-25
1.10872e-26
-6.12663e-25
-6.12663e-25
-6.12666e-25
-6.26954e-25
1.42925e-26
-6.26934e-25
-6.26938e-25
-6.62083e-25
3.51518e-26
-6.62053e-25
-6.62053e-25
-6.62058e-25
-7.05681e-25
4.36312e-26
-7.05639e-25
-7.05646e-25
-7.76327e-25
7.06916e-26
-7.76273e-25
-7.76273e-25
-7.76281e-25
-8.67161e-25
9.08925e-26
-8.67093e-25
-8.67093e-25
-8.67102e-25
-9.87675e-25
1.20589e-25
-9.87592e-25
-9.87603e-25
-1.15874e-24
1.71156e-25
-1.15864e-24
-1.15864e-24
-1.15865e-24
-1.38748e-24
2.2885e-25
-1.38736e-24
-1.38738e-24
-1.70029e-24
3.12934e-25
-1.70015e-24
-1.70015e-24
-1.64042e-24
-1.58143e-24
-1.52318e-24
-1.42153e-24
-1.03668e-24
-3.38089e-25
-9.44454e-25
-8.83927e-25
-8.2383e-25
-7.81352e-25
-7.39067e-25
-6.97742e-25
-6.567e-25
-5.73997e-25
-2.77591e-25
-2.84482e-25
-2.01483e-25
-1.58491e-25
-1.28749e-25
-9.84692e-26
-6.82747e-26
-3.86112e-26
-8.8605e-27
6.05213e-26
3.2517e-25
-2.79737e-25
3.91331e-25
3.88579e-25
3.86068e-25
3.84182e-25
3.82524e-25
3.80647e-25
3.79092e-25
4.14451e-25
6.46248e-25
-3.01341e-25
5.38287e-25
3.97044e-25
2.55945e-25
1.15483e-25
-2.4855e-26
-1.65514e-25
-3.06499e-25
-4.31798e-25
-3.93447e-25
-3.85181e-26
-3.51458e-25
-4.18646e-26
-3.51368e-25
-3.10328e-25
-4.10277e-26
-3.10249e-25
-2.65323e-25
-4.49219e-26
-2.40484e-25
-2.47595e-26
-2.40422e-25
-2.09235e-25
-3.11842e-26
-1.95158e-25
-1.40126e-26
-1.95105e-25
-1.74851e-25
-2.02489e-26
-1.74799e-25
-1.50267e-25
-2.45302e-26
-1.37472e-25
-1.27404e-26
-1.3742e-25
-1.20849e-25
-1.65687e-26
-1.20797e-25
-1.0309e-25
-1.77057e-26
-9.12403e-26
-1.17955e-26
-9.11853e-26
-7.85413e-26
-1.26433e-26
-6.92734e-26
-9.21148e-27
-6.92147e-26
-5.92226e-26
-9.9912e-27
-5.91618e-26
-5.08138e-26
-8.34757e-27
-4.28459e-26
-7.90669e-27
-4.27815e-26
-3.52152e-26
-7.56589e-27
-3.5149e-26
-2.97362e-26
-5.41262e-27
-2.31843e-26
-6.48636e-27
-2.31157e-26
-1.76773e-26
-5.43824e-27
-1.18008e-26
-5.80929e-27
-1.17308e-26
-5.58802e-27
-6.1426e-27
-5.51754e-27
-5.51748e-27
4.52419e-30
-4.52419e-30
9.90113e-30
-4.66051e-30
1.57068e-29
-5.08254e-30
2.22677e-29
-5.76806e-30
2.98728e-29
-6.71169e-30
3.88283e-29
-7.94085e-30
4.947e-29
-9.49784e-30
6.2177e-29
-1.14402e-29
7.73898e-29
-1.38431e-29
9.56322e-29
-1.68017e-29
1.17538e-28
-2.04346e-29
1.43882e-28
-2.48869e-29
1.75614e-28
-3.03339e-29
2.13899e-28
-3.69853e-29
2.60156e-28
-4.50907e-29
3.16105e-28
-5.49464e-29
3.83814e-28
-6.69037e-29
4.65762e-28
-8.13816e-29
5.64901e-28
-9.88821e-29
6.84749e-28
-1.2001e-28
8.29505e-28
-1.45501e-28
1.00419e-27
-1.76246e-28
1.21486e-27
-2.13333e-28
1.46881e-27
-2.58077e-28
1.77492e-27
-3.12053e-28
2.14393e-27
-3.77084e-28
2.58875e-27
-4.55178e-28
3.12455e-27
-5.48295e-28
3.76835e-27
-6.57846e-28
4.53762e-27
-7.83649e-28
5.44676e-27
-9.21922e-28
6.49977e-27
-1.06153e-27
7.67615e-27
-1.17748e-27
8.90612e-27
-1.22046e-27
1.00317e-26
-1.10298e-27
1.07567e-26
-6.88297e-28
1.06151e-26
1.91592e-28
9.03832e-27
1.63722e-27
3.58801e-27
4.5199e-30
-8.29304e-30
9.88696e-30
-8.5451e-30
1.56836e-29
-9.30961e-30
2.22356e-29
-1.05642e-29
2.98307e-29
-1.23278e-29
3.87747e-29
-1.46695e-29
4.94029e-29
-1.7687e-29
6.2094e-29
-2.15063e-29
7.72878e-29
-2.6285e-29
9.5507e-29
-3.2217e-29
1.17384e-28
-3.95382e-29
1.43694e-28
-4.85346e-29
1.75384e-28
-5.95509e-29
2.13619e-28
-7.3003e-29
2.59815e-28
-8.93918e-29
3.15691e-28
-1.09321e-28
3.83314e-28
-1.33518e-28
4.65157e-28
-1.62861e-28
5.6417e-28
-1.98405e-28
6.83868e-28
-2.41423e-28
8.28443e-28
-2.93445e-28
1.00291e-27
-3.56302e-28
1.21332e-27
-4.32175e-28
1.46696e-27
-5.23642e-28
1.77269e-27
-6.3369e-28
2.14126e-27
-7.65685e-28
2.58557e-27
-9.23201e-28
3.12082e-27
-1.10958e-27
3.76411e-27
-1.32701e-27
4.53303e-27
-1.57451e-27
5.44231e-27
-1.84422e-27
6.49648e-27
-2.11416e-27
7.67602e-27
-2.33546e-27
8.91264e-27
-2.41153e-27
1.00503e-26
-2.16952e-27
1.0794e-26
-1.3372e-27
1.0675e-26
4.24659e-28
9.11811e-27
3.32165e-27
6.68941e-27
4.50982e-30
-1.20797e-29
9.85638e-30
-1.24847e-29
1.56334e-29
-1.36101e-29
2.2165e-29
-1.54438e-29
2.9737e-29
-1.80375e-29
3.8654e-29
-2.15015e-29
4.92501e-29
-2.59873e-29
6.19029e-29
-3.16878e-29
7.70505e-29
-3.88418e-29
9.52142e-29
-4.77405e-29
1.17025e-28
-5.87367e-29
1.43253e-28
-7.22565e-29
1.74846e-28
-8.88142e-29
2.12963e-28
-1.09031e-28
2.59018e-28
-1.3366e-28
3.14723e-28
-1.63609e-28
3.8214e-28
-1.99981e-28
4.63735e-28
-2.44105e-28
5.62449e-28
-2.97587e-28
6.81787e-28
-3.6236e-28
8.25929e-28
-4.4074e-28
9.99879e-28
-5.35489e-28
1.20966e-27
-6.49878e-28
1.46255e-27
-7.87745e-28
1.76741e-27
-9.53505e-28
2.13496e-27
-1.15209e-27
2.57812e-27
-1.3887e-27
3.11213e-27
-1.66814e-27
3.75421e-27
-1.9935e-27
4.52225e-27
-2.36327e-27
5.43152e-27
-2.76582e-27
6.48763e-27
-3.16886e-27
7.67297e-27
-3.50051e-27
8.92232e-27
-3.61793e-27
1.00836e-26
-3.26375e-27
1.08645e-26
-2.02882e-27
1.07909e-26
6.05468e-28
9.25281e-27
4.97973e-27
1.02541e-26
4.49363e-30
-1.58746e-29
9.81136e-30
-1.6454e-29
1.556e-29
-1.79501e-29
2.20613e-29
-2.03689e-29
2.95984e-29
-2.37979e-29
3.84745e-29
-2.83881e-29
4.90221e-29
-3.43439e-29
6.16167e-29
-4.19239e-29
7.66945e-29
-5.14468e-29
9.47743e-29
-6.33002e-29
1.16484e-28
-7.79528e-29
1.42591e-28
-9.59704e-29
1.74037e-28
-1.18036e-28
2.11978e-28
-1.44977e-28
2.5782e-28
-1.77794e-28
3.13268e-28
-2.17702e-28
3.80375e-28
-2.66172e-28
4.61596e-28
-3.24984e-28
5.59858e-28
-3.96288e-28
6.78652e-28
-4.82669e-28
8.22139e-28
-5.87223e-28
9.95303e-28
-7.13635e-28
1.20414e-27
-8.66264e-28
1.45592e-27
-1.0502e-27
1.75947e-27
-1.27131e-27
2.12549e-27
-1.53611e-27
2.56694e-27
-1.85146e-27
3.09911e-27
-2.22375e-27
3.73942e-27
-2.65713e-27
4.50614e-27
-3.14979e-27
5.41539e-27
-3.68683e-27
6.47436e-27
-4.22644e-27
7.66828e-27
-4.67496e-27
8.93649e-27
-4.84505e-27
1.0133e-26
-4.39621e-27
1.09699e-26
-2.78058e-27
1.09658e-26
7.11378e-28
9.46377e-27
6.59594e-27
1.43949e-26
4.47046e-30
-1.96669e-29
9.75152e-30
-2.04307e-29
1.54633e-29
-2.23011e-29
2.19241e-29
-2.53073e-29
2.94148e-29
-2.95722e-29
3.82363e-29
-3.52877e-29
4.87189e-29
-4.27099e-29
6.12358e-29
-5.21622e-29
7.62204e-29
-6.40422e-29
9.41882e-29
-7.8833e-29
1.15763e-28
-9.71184e-29
1.41708e-28
-1.19603e-28
1.7296e-28
-1.47138e-28
2.10665e-28
-1.80754e-28
2.56224e-28
-2.21701e-28
3.1133e-28
-2.71496e-28
3.78023e-28
-3.31977e-28
4.58744e-28
-4.05371e-28
5.56403e-28
-4.94365e-28
6.7447e-28
-6.02192e-28
8.17083e-28
-7.3272e-28
9.89198e-28
-8.90553e-28
1.19679e-27
-1.08113e-27
1.44708e-27
-1.3108e-27
1.74887e-27
-1.58688e-27
2.11288e-27
-1.91749e-27
2.55205e-27
-2.31122e-27
3.08178e-27
-2.77612e-27
3.71971e-27
-3.31757e-27
4.48466e-27
-3.93382e-27
5.39381e-27
-4.60726e-27
6.45642e-27
-5.28758e-27
7.66147e-27
-5.86103e-27
8.95445e-27
-6.09814e-27
1.01976e-26
-5.57743e-27
1.11096e-26
-3.61046e-27
1.12012e-26
7.17518e-28
9.77572e-27
8.13105e-27
1.77971e-26
4.43991e-30
-2.34457e-29
9.6767e-30
-2.43965e-29
1.5343e-29
-2.66411e-29
2.17535e-29
-3.02337e-29
2.91862e-29
-3.53318e-29
3.79394e-29
-4.21674e-29
4.83408e-29
-5.10481e-29
6.07606e-29
-6.23609e-29
7.56288e-29
-7.65816e-29
9.34568e-29
-9.42877e-29
1.14864e-28
-1.16177e-28
1.40607e-28
-1.43092e-28
1.71615e-28
-1.76051e-28
2.09027e-28
-2.16286e-28
2.54232e-28
-2.65295e-28
3.0891e-28
-3.24894e-28
3.75087e-28
-3.97286e-28
4.55184e-28
-4.85139e-28
5.5209e-28
-5.91675e-28
6.69249e-28
-7.20766e-28
8.10769e-28
-8.77047e-28
9.81575e-28
-1.06603e-27
1.1876e-27
-1.29424e-27
1.43604e-27
-1.56928e-27
1.73565e-27
-1.89991e-27
2.09713e-27
-2.29589e-27
2.53345e-27
-2.7676e-27
3.06012e-27
-3.32483e-27
3.69506e-27
-3.9744e-27
4.45773e-27
-4.71499e-27
5.3666e-27
-5.52698e-27
6.43348e-27
-6.35281e-27
7.65199e-27
-7.06076e-27
8.97528e-27
-7.38231e-27
1.02763e-26
-6.81798e-27
1.12827e-26
-4.53711e-27
1.14978e-26
5.96946e-28
1.01624e-26
9.57239e-27
2.26542e-26
4.40189e-30
-2.7201e-29
9.58692e-30
-2.83371e-29
1.51993e-29
-3.09535e-29
2.15496e-29
-3.51294e-29
2.89128e-29
-4.10551e-29
3.75842e-29
-4.90026e-29
4.78883e-29
-5.93302e-29
6.01918e-29
-7.24877e-29
7.49205e-29
-8.90283e-29
9.25812e-29
-1.09623e-28
1.13787e-28
-1.35082e-28
1.39288e-28
-1.66385e-28
1.70006e-28
-2.04715e-28
2.07067e-28
-2.51506e-28
2.51848e-28
-3.08498e-28
3.06015e-28
-3.77806e-28
3.71573e-28
-4.61993e-28
4.50922e-28
-5.64165e-28
5.46927e-28
-6.88071e-28
6.62998e-28
-8.3822e-28
8.0321e-28
-1.02001e-27
9.72447e-28
-1.23985e-27
1.1766e-27
-1.50533e-27
1.42281e-27
-1.82533e-27
1.71981e-27
-2.21005e-27
2.07826e-27
-2.67092e-27
2.51116e-27
-3.22013e-27
3.03414e-27
-3.86937e-27
3.66544e-27
-4.62709e-27
4.42525e-27
-5.49282e-27
5.33356e-27
-6.44573e-27
6.40517e-27
-7.42251e-27
7.63913e-27
-8.27597e-27
8.99785e-27
-8.7024e-27
1.03676e-26
-8.12831e-27
1.1488e-26
-5.57981e-27
1.18568e-26
3.19809e-28
1.06856e-26
1.08462e-26
2.58775e-26
4.35645e-30
-3.09233e-29
9.48226e-30
-3.22413e-29
1.50323e-29
-3.52256e-29
2.13126e-29
-3.99798e-29
2.85949e-29
-4.67254e-29
3.71711e-29
-5.5774e-29
4.7362e-29
-6.75337e-29
5.95302e-29
-8.25168e-29
7.40967e-29
-1.01352e-28
9.15628e-29
-1.24804e-28
1.12535e-28
-1.53793e-28
1.37755e-28
-1.89435e-28
1.68134e-28
-2.33076e-28
2.04787e-28
-2.86349e-28
2.49076e-28
-3.51236e-28
3.02647e-28
-4.30144e-28
3.67486e-28
-5.25995e-28
4.45966e-28
-6.42326e-28
5.40921e-28
-7.83411e-28
6.55726e-28
-9.54384e-28
7.94416e-28
-1.16139e-27
9.61827e-28
-1.41176e-27
1.1638e-27
-1.71413e-27
1.40742e-27
-2.07862e-27
1.70137e-27
-2.51692e-27
2.05629e-27
-3.04213e-27
2.48519e-27
-3.66831e-27
3.00383e-27
-4.40915e-27
3.63081e-27
-5.275e-27
4.38713e-27
-6.26669e-27
5.29449e-27
-7.3631e-27
6.37103e-27
-8.49682e-27
7.62207e-27
-9.50817e-27
9.02082e-27
-1.00628e-26
1.04695e-26
-9.51854e-27
1.1724e-26
-6.75833e-27
1.22778e-26
-1.45219e-28
1.12869e-26
1.19368e-26
2.93549e-26
4.30374e-30
-3.46044e-29
9.36289e-30
-3.60999e-29
1.48421e-29
-3.94473e-29
2.10427e-29
-4.47733e-29
2.82329e-29
-5.23294e-29
3.67007e-29
-6.24659e-29
4.67627e-29
-7.56403e-29
5.87767e-29
-9.24264e-29
7.31587e-29
-1.13528e-28
9.04032e-29
-1.39801e-28
1.11109e-28
-1.72276e-28
1.3601e-28
-2.12202e-28
1.66003e-28
-2.61086e-28
2.02192e-28
-3.20758e-28
2.45919e-28
-3.93439e-28
2.98813e-28
-4.81825e-28
3.62833e-28
-5.89191e-28
4.40323e-28
-7.19502e-28
5.34082e-28
-8.77547e-28
6.47446e-28
-1.06908e-27
7.84401e-28
-1.301e-27
9.49733e-28
-1.58152e-27
1.14922e-27
-1.92032e-27
1.38989e-27
-2.3288e-27
1.68037e-27
-2.8201e-27
2.03124e-27
-3.40902e-27
2.45556e-27
-4.11157e-27
2.96919e-27
-4.94354e-27
3.59114e-27
-5.91743e-27
4.34327e-27
-7.0359e-27
5.24914e-27
-8.27853e-27
6.33058e-27
-9.57567e-27
7.59989e-27
-1.07585e-26
9.04259e-27
-1.14674e-26
1.05799e-26
-1.09983e-26
1.19885e-26
-8.09273e-27
1.27611e-26
-8.31911e-28
1.19836e-26
1.28109e-26
3.30818e-26
4.24393e-30
-3.82365e-29
9.22899e-30
-3.9905e-29
1.46291e-29
-4.36102e-29
2.07405e-29
-4.95002e-29
2.78275e-29
-5.78556e-29
3.61737e-29
-6.90649e-29
4.60912e-29
-8.36343e-29
5.79327e-29
-1.02198e-28
7.21078e-29
-1.25534e-28
8.91042e-29
-1.54587e-28
1.09512e-28
-1.90498e-28
1.34054e-28
-2.34646e-28
1.63616e-28
-2.88699e-28
1.99285e-28
-3.54677e-28
2.42384e-28
-4.35039e-28
2.94518e-28
-5.32767e-28
3.5762e-28
-6.51483e-28
4.34001e-28
-7.95574e-28
5.2642e-28
-9.70338e-28
6.38169e-28
-1.18215e-27
7.73181e-28
-1.43863e-27
9.3618e-28
-1.74887e-27
1.13288e-27
-2.12363e-27
1.37024e-27
-2.57552e-27
1.65681e-27
-3.11916e-27
2.00314e-27
-3.7711e-27
2.42228e-27
-4.54931e-27
2.93024e-27
-5.47184e-27
3.5464e-27
-6.55362e-27
4.29357e-27
-7.79967e-27
5.19726e-27
-9.19131e-27
6.28326e-27
-1.06587e-26
7.57153e-27
-1.20276e-26
9.06136e-27
-1.29194e-26
1.06961e-26
-1.25764e-26
1.2279e-26
-9.6032e-27
1.33068e-26
-1.77699e-27
1.27944e-26
1.34166e-26
3.59691e-26
4.1772e-30
-4.18126e-29
9.08078e-30
-4.36495e-29
1.43935e-29
-4.77065e-29
2.04063e-29
-5.41519e-29
2.73791e-29
-6.32941e-29
3.5591e-29
-7.55593e-29
4.53487e-29
-9.15013e-29
5.69992e-29
-1.11814e-28
7.09457e-29
-1.37349e-28
8.76678e-29
-1.69138e-28
1.07746e-28
-2.0843e-28
1.31892e-28
-2.56732e-28
1.60977e-28
-3.15868e-28
1.9607e-28
-3.88052e-28
2.38475e-28
-4.75971e-28
2.8977e-28
-5.8289e-28
3.51856e-28
-7.12774e-28
4.2701e-28
-8.70424e-28
5.17948e-28
-1.06164e-27
6.2791e-28
-1.2934e-27
7.60771e-28
-1.57406e-27
9.2119e-28
-1.91357e-27
1.1148e-27
-2.32373e-27
1.34849e-27
-2.81841e-27
1.63073e-27
-3.41368e-27
1.97201e-27
-4.12784e-27
2.38538e-27
-4.98092e-27
2.88697e-27
-5.99335e-27
3.49656e-27
-7.18276e-27
4.2379e-27
-8.5571e-27
5.13856e-27
-1.01006e-26
6.22851e-27
-1.17452e-26
7.53586e-27
-1.33155e-26
9.07508e-27
-1.4421e-26
1.08151e-26
-1.42607e-26
1.2592e-26
-1.13098e-26
1.39145e-26
-3.02013e-27
1.36965e-26
1.37247e-26
4.05292e-26
4.10374e-30
-4.53261e-29
8.9185e-30
-4.7327e-29
1.41357e-29
-5.17295e-29
2.00406e-29
-5.87204e-29
2.68885e-29
-6.86355e-29
3.49533e-29
-8.19378e-29
4.45362e-29
-9.92283e-29
5.59778e-29
-1.21259e-28
6.96741e-29
-1.48953e-28
8.60961e-29
-1.83429e-28
1.05814e-28
-2.26041e-28
1.29527e-28
-2.78423e-28
1.5809e-28
-3.42553e-28
1.92553e-28
-4.20831e-28
2.34198e-28
-5.16172e-28
2.84574e-28
-6.32118e-28
3.4555e-28
-7.72969e-28
4.19362e-28
-9.43937e-28
5.08677e-28
-1.15131e-27
6.16683e-28
-1.40267e-27
7.47191e-28
-1.70708e-27
9.04783e-28
-2.07536e-27
1.09502e-27
-2.52033e-27
1.32468e-27
-3.0571e-27
1.60217e-27
-3.70321e-27
1.93789e-27
-4.47873e-27
2.34488e-27
-5.40579e-27
2.83939e-27
-6.50734e-27
3.44158e-27
-7.804e-27
4.17617e-27
-9.30723e-27
5.07278e-27
-1.10052e-26
6.1657e-27
-1.28343e-26
7.49164e-27
-1.46218e-26
9.0815e-27
-1.59735e-26
1.09331e-26
-1.60578e-26
1.29236e-26
-1.32321e-26
1.45843e-26
-4.60512e-27
1.47686e-26
1.3627e-26
4.27219e-26
4.02372e-30
-4.8771e-29
8.7424e-30
-5.09315e-29
1.3856e-29
-5.56724e-29
1.9644e-29
-6.31982e-29
2.63564e-29
-7.38711e-29
3.42617e-29
-8.81902e-29
4.36549e-29
-1.06803e-28
5.48701e-29
-1.30518e-28
6.8295e-29
-1.60328e-28
8.43916e-29
-1.97438e-28
1.03719e-28
-2.43304e-28
1.26961e-28
-2.99685e-28
1.54959e-28
-3.6871e-28
1.8874e-28
-4.52962e-28
2.2956e-28
-5.55578e-28
2.7894e-28
-6.80373e-28
3.38712e-28
-8.31976e-28
4.11066e-28
-1.016e-27
4.98623e-28
-1.23922e-27
6.04507e-28
-1.5098e-27
7.3246e-28
-1.8375e-27
8.86984e-28
-2.234e-27
1.07355e-27
-2.71314e-27
1.29884e-27
-3.29124e-27
1.57114e-27
-3.98732e-27
1.90081e-27
-4.82323e-27
2.30082e-27
-5.82328e-27
2.78752e-27
-7.01306e-27
3.38146e-27
-8.41645e-27
4.10825e-27
-1.0049e-26
4.99962e-27
-1.19041e-26
6.0942e-27
-1.39246e-26
7.43758e-27
-1.59454e-26
9.07813e-27
-1.7577e-26
1.10461e-26
-1.79725e-26
1.32687e-26
-1.53889e-26
1.53136e-26
-6.57827e-27
1.59324e-26
1.30913e-26
4.6916e-26
3.93731e-30
-5.21415e-29
8.55277e-30
-5.44572e-29
1.3555e-29
-5.9529e-29
1.92171e-29
-6.75782e-29
2.57836e-29
-7.89926e-29
3.35172e-29
-9.43065e-29
4.27063e-29
-1.14212e-28
5.36776e-29
-1.39575e-28
6.68106e-29
-1.71456e-28
8.2557e-29
-2.11144e-28
1.01464e-28
-2.60193e-28
1.242e-28
-3.20487e-28
1.51589e-28
-3.943e-28
1.84635e-28
-4.84395e-28
2.24568e-28
-5.94129e-28
2.72876e-28
-7.27581e-28
3.31351e-28
-8.89704e-28
4.02138e-28
-1.0865e-27
4.878e-28
-1.32523e-27
5.91399e-28
-1.61461e-27
7.166e-28
-1.96512e-27
8.67819e-28
-2.38925e-27
1.05042e-27
-2.90186e-27
1.27099e-27
-3.52046e-27
1.53771e-27
-4.26558e-27
1.86081e-27
-5.16083e-27
2.25323e-27
-6.23276e-27
2.73139e-27
-7.50973e-27
3.31615e-27
-9.01917e-27
4.03404e-27
-1.07813e-26
4.9188e-27
-1.27958e-26
6.01337e-27
-1.50144e-26
7.37231e-27
-1.72843e-26
9.06232e-27
-1.92304e-26
1.11495e-26
-2.00076e-26
1.36211e-26
-1.77973e-26
1.61004e-26
-8.99e-27
1.72853e-26
1.19861e-26
4.6544e-26
3.8447e-30
-5.54319e-29
8.34989e-30
-5.78985e-29
1.3233e-29
-6.32934e-29
1.87605e-29
-7.18535e-29
2.51711e-29
-8.39919e-29
3.27209e-29
-1.00277e-28
4.16918e-29
-1.21445e-28
5.24024e-29
-1.48417e-28
6.52231e-29
-1.8232e-28
8.0595e-29
-2.24523e-28
9.90521e-29
-2.76681e-28
1.21248e-28
-3.40794e-28
1.47985e-28
-4.19282e-28
1.80246e-28
-5.15083e-28
2.1923e-28
-6.31765e-28
2.66391e-28
-7.73668e-28
3.23479e-28
-9.46062e-28
3.92589e-28
-1.15533e-27
4.76225e-28
-1.4092e-27
5.77378e-28
-1.71695e-27
6.99634e-28
-2.08974e-27
8.47315e-28
-2.54087e-27
1.02568e-27
-3.08619e-27
1.24119e-27
-3.74442e-27
1.5019e-27
-4.53755e-27
1.81793e-27
-5.491e-27
2.20215e-27
-6.63359e-27
2.67101e-27
-7.99657e-27
3.24567e-27
-9.6112e-27
3.95346e-27
-1.15029e-26
4.83005e-27
-1.36788e-26
5.92258e-27
-1.61017e-26
7.29447e-27
-1.86361e-26
9.03123e-27
-2.0931e-26
1.12379e-26
-2.21638e-26
1.39734e-26
-2.04723e-26
1.69394e-26
-1.1893e-26
1.86676e-26
1.03344e-26
4.86786e-26
3.74605e-30
-5.86369e-29
8.1341e-30
-6.125e-29
1.28906e-29
-6.69596e-29
1.8275e-29
-7.60175e-29
2.45197e-29
-8.88612e-29
3.18742e-29
-1.06093e-28
4.0613e-29
-1.28491e-28
5.10463e-29
-1.5703e-28
6.3535e-29
-1.92902e-28
7.85087e-29
-2.37557e-28
9.64876e-29
-2.92743e-28
1.18108e-28
-3.60576e-28
1.44153e-28
-4.43618e-28
1.75578e-28
-5.44977e-28
2.13554e-28
-6.68428e-28
2.59496e-28
-8.18565e-28
3.15108e-28
-1.00097e-27
3.82434e-28
-1.22239e-27
4.63915e-28
-1.49101e-27
5.62467e-28
-1.81666e-27
6.81589e-28
-2.21116e-27
8.25502e-28
-2.68862e-27
9.99348e-28
-3.26585e-27
1.20946e-27
-3.96277e-27
1.46376e-27
-4.80281e-27
1.77223e-27
-5.81323e-27
2.14763e-27
-7.02513e-27
2.60643e-27
-8.4728e-27
3.17e-27
-1.01915e-26
3.86643e-27
-1.22125e-26
4.73313e-27
-1.45513e-26
5.82121e-27
-1.71842e-26
7.20268e-27
-1.99972e-26
8.98192e-27
-2.26747e-26
1.13056e-26
-2.44386e-26
1.43166e-26
-2.34257e-26
1.78284e-26
-1.53466e-26
2.02013e-26
8.03508e-27
5.61608e-26
3.64155e-30
-6.17514e-29
7.90571e-30
-6.45067e-29
1.25283e-29
-7.0522e-29
1.77612e-29
-8.00636e-29
2.38304e-29
-9.35929e-29
3.09783e-29
-1.11744e-28
3.94714e-29
-1.35338e-28
4.96114e-29
-1.654e-28
6.17488e-29
-2.03187e-28
7.63012e-29
-2.50224e-28
9.37743e-29
-3.08353e-28
1.14787e-28
-3.79803e-28
1.40098e-28
-4.67271e-28
1.7064e-28
-5.74031e-28
2.07549e-28
-7.04061e-28
2.522e-28
-8.62201e-28
3.06251e-28
-1.05433e-27
3.71689e-28
-1.28756e-27
4.50888e-28
-1.57052e-27
5.46687e-28
-1.91358e-27
6.6249e-28
-2.3292e-27
8.02413e-28
-2.83227e-27
9.71471e-28
-3.44056e-27
1.17586e-27
-4.17516e-27
1.42334e-27
-5.06094e-27
1.72375e-27
-6.12699e-27
2.08972e-27
-7.40675e-27
2.53768e-27
-8.9376e-27
3.08916e-27
-1.07591e-26
3.77287e-27
-1.29087e-26
4.62782e-27
-1.54114e-26
5.70868e-27
-1.8259e-26
7.09558e-27
-2.13638e-26
8.91137e-27
-2.44555e-26
1.13461e-26
-2.68264e-26
1.46398e-26
-2.66649e-26
1.87637e-26
-1.94172e-26
2.21261e-26
4.74364e-27
5.37675e-26
3.53136e-30
-6.47706e-29
7.6651e-30
-6.76633e-29
1.21466e-29
-7.3975e-29
1.722e-29
-8.39858e-29
2.31044e-29
-9.81798e-29
3.00345e-29
-1.17223e-28
3.82689e-29
-1.41976e-28
4.80999e-29
-1.73515e-28
5.98673e-29
-2.13158e-28
7.3976e-29
-2.62505e-28
9.09163e-29
-3.23487e-28
1.11288e-28
-3.98444e-28
1.35828e-28
-4.90203e-28
1.65439e-28
-6.022e-28
2.01223e-28
-7.3861e-28
2.44514e-28
-9.0451e-28
2.96921e-28
-1.10607e-27
3.60371e-28
-1.35076e-27
4.37166e-28
-1.64763e-27
5.30062e-28
-2.00757e-27
6.42368e-28
-2.44367e-27
7.78081e-28
-2.9716e-27
9.42087e-28
-3.61005e-27
1.14043e-27
-4.38126e-27
1.3807e-27
-5.31154e-27
1.67256e-27
-6.43178e-27
2.02849e-27
-7.7778e-27
2.46482e-27
-9.39017e-27
3.00318e-27
-1.1313e-26
3.67277e-27
-1.35901e-26
4.51392e-27
-1.62571e-26
5.58449e-27
-1.9323e-26
6.97192e-27
-2.27308e-26
8.81654e-27
-2.62659e-26
1.13526e-26
-2.93173e-26
1.49297e-26
-3.01908e-26
1.97301e-26
-2.41693e-26
2.40869e-26
4.55869e-28
5.75992e-26
3.41567e-30
-6.76896e-29
7.41263e-30
-7.07151e-29
1.17462e-29
-7.73135e-29
1.66523e-29
-8.77779e-29
2.23426e-29
-1.02615e-28
2.90444e-29
-1.2252e-28
3.70073e-29
-1.48394e-28
4.65141e-29
-1.81362e-28
5.78935e-29
-2.228e-28
7.15367e-29
-2.7438e-28
8.7918e-29
-3.38123e-28
1.07618e-28
-4.1647e-28
1.31348e-28
-5.1238e-28
1.59983e-28
-6.29442e-28
1.94587e-28
-7.72021e-28
2.36452e-28
-9.45425e-28
2.87134e-28
-1.1561e-27
3.48496e-28
-1.41188e-27
4.22768e-28
-1.7222e-27
5.12618e-28
-2.09848e-27
6.2125e-28
-2.5544e-27
7.52543e-28
-3.10639e-27
9.11239e-28
-3.77405e-27
1.10322e-27
-4.58075e-27
1.33589e-27
-5.55419e-27
1.61872e-27
-6.7271e-27
1.96399e-27
-8.13766e-27
2.3879e-27
-9.8297e-27
2.91209e-27
-1.18519e-26
3.56608e-27
-1.42553e-26
4.39128e-27
-1.70864e-26
5.44818e-27
-2.03731e-26
6.83051e-27
-2.40928e-26
8.69448e-27
-2.80965e-26
1.13177e-26
-3.18975e-26
1.51706e-26
-3.39958e-26
2.07151e-26
-2.96706e-26
2.63724e-26
-5.13355e-27
6.99337e-26
3.29467e-30
-7.05039e-29
7.1487e-30
-7.36573e-29
1.13276e-29
-8.05321e-29
1.60588e-29
-9.14341e-29
2.15464e-29
-1.06891e-28
2.80094e-29
-1.27628e-28
3.56886e-29
-1.54584e-28
4.48566e-29
-1.88929e-28
5.58303e-29
-2.32098e-28
6.8987e-29
-2.85833e-28
8.47841e-29
-3.52237e-28
1.03781e-28
-4.33854e-28
1.26666e-28
-5.33766e-28
1.54279e-28
-6.55713e-28
1.87651e-28
-8.04242e-28
2.28025e-28
-9.84883e-28
2.76903e-28
-1.20436e-27
3.36083e-28
-1.47082e-27
4.07717e-28
-1.79412e-27
4.94381e-28
-2.18616e-27
5.99171e-28
-2.66122e-27
7.25836e-28
-3.23643e-27
8.78971e-28
-3.93231e-27
1.06428e-27
-4.7733e-27
1.28897e-27
-5.78851e-27
1.5623e-27
-7.01245e-27
1.89631e-27
-8.4857e-27
2.30701e-27
-1.02554e-26
2.81596e-27
-1.2375e-26
3.45284e-27
-1.49027e-26
4.25981e-27
-1.78968e-26
5.29939e-27
-2.14055e-26
6.67037e-27
-2.54436e-26
8.54244e-27
-2.99361e-26
1.12337e-26
-3.45481e-26
1.53436e-26
-3.80612e-26
2.16965e-26
-3.59856e-26
2.93746e-26
-1.27437e-26
6.80862e-26
3.16856e-30
-7.32091e-29
6.8737e-30
-7.64855e-29
1.08915e-29
-8.36261e-29
1.54405e-29
-9.49487e-29
2.07169e-29
-1.11002e-28
2.69312e-29
-1.32539e-28
3.43148e-29
-1.60534e-28
4.31298e-29
-1.96204e-28
5.36809e-29
-2.41038e-28
6.63308e-29
-2.96845e-28
8.15194e-29
-3.65808e-28
9.97847e-29
-4.5057e-28
1.21788e-28
-5.5433e-28
1.48338e-28
-6.80974e-28
1.80425e-28
-8.35223e-28
2.19246e-28
-1.02282e-27
2.66244e-28
-1.25076e-27
3.23151e-28
-1.5275e-27
3.92036e-28
-1.86329e-27
4.75379e-28
-2.27048e-27
5.76162e-28
-2.76395e-27
6.98001e-28
-3.36152e-27
8.45331e-28
-4.08456e-27
1.02367e-27
-4.9586e-27
1.24002e-27
-6.01411e-27
1.50337e-27
-7.28735e-27
1.82552e-27
-8.8213e-27
2.22223e-27
-1.06664e-26
2.71485e-27
-1.2881e-26
3.33307e-27
-1.55307e-26
4.11946e-27
-1.86861e-26
5.13787e-27
-2.24164e-26
6.49067e-27
-2.67763e-26
8.35797e-27
-3.1772e-26
1.10932e-26
-3.7245e-26
1.54267e-26
-4.23536e-26
2.26262e-26
-4.31524e-26
3.26075e-26
-2.2656e-26
7.58727e-26
3.03752e-30
-7.5801e-29
6.58808e-30
-7.91952e-29
1.04386e-29
-8.65906e-29
1.47984e-29
-9.83165e-29
1.98554e-29
-1.14941e-28
2.58114e-29
-1.37245e-28
3.2888e-29
-1.66237e-28
4.13364e-29
-2.03176e-28
5.14486e-29
-2.49606e-28
6.35723e-29
-3.07398e-28
7.81289e-29
-3.78815e-28
9.56343e-29
-4.6659e-28
1.16722e-28
-5.74039e-28
1.42168e-28
-7.05184e-28
1.72921e-28
-8.64917e-28
2.10129e-28
-1.05919e-27
2.55175e-28
-1.29523e-27
3.09719e-28
-1.58183e-27
3.75748e-28
-1.92958e-27
4.5564e-28
-2.35131e-27
5.52259e-28
-2.86244e-27
6.6908e-28
-3.48146e-27
8.1037e-28
-4.23058e-27
9.81453e-28
-5.13636e-27
1.18909e-27
-6.23061e-27
1.44201e-27
-7.55133e-27
1.75172e-27
-9.14386e-27
2.13365e-27
-1.1062e-26
2.60886e-27
-1.33689e-26
3.20686e-27
-1.61379e-26
3.97025e-27
-1.94519e-26
4.96347e-27
-2.34019e-26
6.29084e-27
-2.80838e-26
8.13905e-27
-3.35899e-26
1.08889e-26
-3.9959e-26
1.53947e-26
-4.68219e-26
2.34462e-26
-5.11759e-26
3.65477e-26
-3.56857e-26
6.74217e-26
2.90178e-30
-7.82756e-29
6.29226e-30
-8.17824e-29
9.9696e-30
-8.94211e-29
1.41334e-29
-1.01532e-28
1.89633e-29
-1.18702e-28
2.46517e-29
-1.41738e-28
3.14104e-29
-1.71682e-28
3.94792e-29
-2.09835e-28
4.91369e-29
-2.57789e-28
6.07156e-29
-3.17478e-28
7.46179e-29
-3.91237e-28
9.13364e-29
-4.81891e-28
1.11476e-28
-5.92863e-28
1.35779e-28
-7.28308e-28
1.6515e-28
-8.93278e-28
2.00687e-28
-1.09392e-27
2.43711e-28
-1.33771e-27
2.95809e-28
-1.63372e-27
3.58879e-28
-1.99291e-27
4.35195e-28
-2.42853e-27
5.27498e-28
-2.95653e-27
6.39115e-28
-3.59606e-27
7.74139e-28
-4.37012e-27
9.37683e-28
-5.30628e-27
1.13626e-27
-6.43765e-27
1.37831e-27
-7.80393e-27
1.675e-27
-9.45278e-27
2.04137e-27
-1.14413e-26
2.4981e-27
-1.38376e-26
3.0743e-27
-1.67226e-26
3.81225e-27
-2.01917e-26
4.77619e-27
-2.43579e-26
6.0706e-27
-2.93587e-26
7.88429e-27
-3.53745e-26
1.06144e-26
-4.26558e-26
1.52206e-26
-5.1394e-26
2.40659e-26
-5.99981e-26
4.06712e-26
-5.22141e-26
6.69573e-26
2.76154e-30
-8.06291e-29
5.98671e-30
-8.4243e-29
9.48516e-30
-9.21133e-29
1.34466e-29
-1.04591e-28
1.80419e-29
-1.2228e-28
2.34539e-29
-1.46013e-28
2.98843e-29
-1.76863e-28
3.75611e-29
-2.16169e-28
4.67494e-29
-2.65574e-28
5.77653e-29
-3.27067e-28
7.09917e-29
-4.03056e-28
8.68975e-29
-4.96449e-28
1.06058e-28
-6.10773e-28
1.2918e-28
-7.50309e-28
1.57124e-28
-9.20262e-28
1.90935e-28
-1.12697e-27
2.31871e-28
-1.37813e-27
2.81441e-28
-1.68309e-27
3.41454e-28
-2.05316e-27
4.14075e-28
-2.50201e-27
5.01917e-28
-3.04607e-27
6.08153e-28
-3.70513e-27
7.36692e-28
-4.50296e-27
8.92429e-28
-5.46809e-27
1.08161e-27
-6.63488e-27
1.31235e-27
-8.04471e-27
1.59546e-27
-9.74749e-27
1.94552e-27
-1.18036e-26
2.3827e-27
-1.4286e-26
2.93553e-27
-1.72833e-26
3.6456e-27
-2.09032e-26
4.57616e-27
-2.52805e-26
5.82996e-27
-3.05934e-26
7.59303e-27
-3.71097e-26
1.02649e-26
-4.5297e-26
1.48765e-26
-5.59749e-26
2.43774e-26
-6.94807e-26
4.54368e-26
-7.3189e-26
7.03865e-26
2.617e-30
-8.28577e-29
5.6719e-30
-8.65732e-29
8.98606e-30
-9.4663e-29
1.2739e-29
-1.07488e-28
1.70925e-29
-1.25669e-28
2.22199e-29
-1.50062e-28
2.83121e-29
-1.8177e-28
3.55849e-29
-2.2217e-28
4.42896e-29
-2.72949e-28
5.47257e-29
-3.36152e-28
6.7256e-29
-4.14253e-28
8.23245e-29
-5.10241e-28
1.00477e-28
-6.27741e-28
1.22382e-28
-7.71153e-28
1.48856e-28
-9.45828e-28
1.80889e-28
-1.15828e-27
2.19672e-28
-1.41642e-27
2.66638e-28
-1.72987e-27
3.235e-28
-2.11026e-27
3.92313e-28
-2.57163e-27
4.75554e-28
-3.13093e-27
5.7624e-28
-3.80851e-27
6.98086e-28
-4.62888e-27
8.45757e-28
-5.62152e-27
1.02521e-27
-6.82198e-27
1.24424e-27
-8.27323e-27
1.51321e-27
-1.00274e-26
1.84622e-27
-1.21481e-26
2.26281e-27
-1.47132e-26
2.79074e-27
-1.78184e-26
3.47051e-27
-2.1584e-26
4.36365e-27
-2.61655e-26
5.56931e-27
-3.17804e-26
7.26554e-27
-3.87795e-26
9.83776e-27
-4.78413e-26
1.43363e-26
-6.0446e-26
2.42295e-26
-7.93601e-26
5.11862e-26
-1.0005e-25
8.28917e-26
2.46841e-30
-8.49581e-29
5.34831e-30
-8.87696e-29
8.47307e-30
-9.70664e-29
1.20118e-29
-1.10218e-28
1.61168e-29
-1.28864e-28
2.09516e-29
-1.53879e-28
2.6696e-29
-1.86396e-28
3.35537e-29
-2.27828e-28
4.17615e-29
-2.79902e-28
5.16017e-29
-3.44718e-28
6.34164e-29
-4.24811e-28
7.76245e-29
-5.23247e-28
9.47404e-29
-6.43741e-28
1.15395e-28
-7.90808e-28
1.40358e-28
-9.69935e-28
1.70563e-28
-1.1878e-27
2.07135e-28
-1.45253e-27
2.51423e-28
-1.77399e-27
3.05045e-28
-2.1641e-27
3.69941e-28
-2.6373e-27
4.48451e-28
-3.21096e-27
5.43425e-28
-3.90603e-27
6.58381e-28
-4.74769e-27
7.97739e-28
-5.76632e-27
9.67164e-28
-6.9986e-27
1.17407e-27
-8.48908e-27
1.42838e-27
-1.0292e-26
1.74362e-27
-1.24742e-26
2.1386e-27
-1.51179e-26
2.64011e-27
-1.83265e-26
3.28726e-27
-2.22318e-26
4.13905e-27
-2.70092e-26
5.28935e-27
-3.29126e-26
6.90306e-27
-4.03681e-26
9.33357e-27
-5.02466e-26
1.35798e-26
-6.46681e-26
2.34024e-26
-8.91733e-26
5.85016e-26
-1.3504e-25
-1.60418e-25
2.31598e-30
-8.69269e-29
5.01643e-30
-9.08286e-29
7.94699e-30
-9.93197e-29
1.1266e-29
-1.12779e-28
1.51162e-29
-1.31859e-28
1.96509e-29
-1.57458e-28
2.50388e-29
-1.90735e-28
3.14707e-29
-2.33134e-28
3.91689e-29
-2.86424e-28
4.8398e-29
-3.52752e-28
5.9479e-29
-4.34713e-28
7.28047e-29
-5.35445e-28
8.88577e-29
-6.58749e-28
1.0823e-28
-8.09243e-28
1.31643e-28
-9.92546e-28
1.59974e-28
-1.21549e-27
1.94276e-28
-1.4864e-27
2.35818e-28
-1.81537e-27
2.86117e-28
-2.21461e-27
3.46994e-28
-2.6989e-27
4.20648e-28
-3.28605e-27
5.09758e-28
-3.99753e-27
6.17636e-28
-4.85919e-27
7.48447e-28
-5.90223e-27
9.07544e-28
-7.16446e-27
1.10195e-27
-8.69187e-27
1.3411e-27
-1.05408e-26
1.63787e-27
-1.2781e-26
2.01026e-27
-1.54994e-26
2.4839e-27
-1.88062e-26
3.09616e-27
-2.28443e-26
3.90291e-27
-2.78079e-26
4.99112e-27
-3.39833e-26
6.50792e-27
-4.18613e-26
8.7567e-27
-5.24728e-26
1.25995e-26
-6.84898e-26
2.1568e-26
-9.81366e-26
5.7494e-26
-1.70837e-25
-3.83167e-25
2.15994e-30
-8.87612e-29
4.67679e-30
-9.27473e-29
7.40863e-30
-1.0142e-28
1.05028e-29
-1.15165e-28
1.40922e-29
-1.34651e-28
1.83199e-29
-1.60794e-28
2.33428e-29
-1.94779e-28
2.93391e-29
-2.3808e-28
3.65157e-29
-2.92504e-28
4.51195e-29
-3.60242e-28
5.54497e-29
-4.43945e-28
6.78725e-29
-5.46817e-28
8.28379e-29
-6.7274e-28
1.00898e-28
-8.26431e-28
1.22725e-28
-1.01363e-27
1.49137e-28
-1.24131e-27
1.81118e-28
-1.51798e-27
2.19848e-28
-1.85395e-27
2.66745e-28
-2.2617e-27
3.23508e-28
-2.75634e-27
3.92189e-28
-3.35608e-27
4.75292e-28
-4.08287e-27
5.75914e-28
-4.96319e-27
6.97958e-28
-6.02904e-27
8.46448e-28
-7.31926e-27
1.02799e-27
-8.88123e-27
1.25149e-27
-1.07733e-26
1.52913e-27
-1.3068e-26
1.87799e-27
-1.58566e-26
2.32237e-27
-1.9256e-26
2.89762e-27
-2.34196e-26
3.6559e-27
-2.85582e-26
4.676e-27
-3.49867e-26
6.08345e-27
-4.32467e-26
8.11601e-27
-5.44855e-26
1.14136e-26
-7.17692e-26
1.86598e-26
-1.05382e-25
4.90029e-26
-2.01042e-25
-6.1915e-25
2.00052e-30
-9.04581e-29
4.32989e-30
-9.45226e-29
6.85881e-30
-1.03363e-28
9.72332e-30
-1.17373e-28
1.30465e-29
-1.37235e-28
1.69605e-29
-1.63882e-28
2.16108e-29
-1.98522e-28
2.71621e-29
-2.42658e-28
3.38062e-29
-2.98132e-28
4.17714e-29
-3.67177e-28
5.13348e-29
-4.52493e-28
6.28356e-29
-5.57346e-28
7.66903e-29
-6.85694e-28
9.34099e-29
-8.42344e-28
1.13618e-28
-1.03314e-27
1.38071e-28
-1.26522e-27
1.67679e-28
-1.54722e-27
2.03538e-28
-1.88967e-27
2.4696e-28
-2.3053e-27