/*--------------------------------*- C++ -*----------------------------------*\
| =========                 |                                                 |
| \\      /  F ield         | OpenFOAM: The Open Source CFD Toolbox           |
|  \\    /   O peration     | Version:  4.1                                   |
|   \\  /    A nd           | Web:      www.OpenFOAM.org                      |
|    \\/     M anipulation  |                                                 |
\*---------------------------------------------------------------------------*/
FoamFile
{
    version     2.0;
    format      ascii;
    class       volVectorField;
    location    "3";
    object      U;
}
// * * * * * * * * * * * * * * * * * * * * * * * * * * * * * * * * * * * * * //

dimensions      [0 1 -1 0 0 0 0];

internalField   nonuniform List<vector> 
1705
(
(-3.56131e-62 -2.90131e-28 -1.46648e-30)
(-7.30308e-61 -4.34576e-29 6.47067e-30)
(-1.73635e-62 -2.93617e-28 1.13157e-29)
(4.25742e-59 -5.33404e-28 3.38217e-30)
(3.16667e-56 -2.78034e-28 -6.30922e-30)
(1.62045e-53 -5.29573e-29 2.93404e-29)
(7.57661e-52 -3.27414e-28 7.1234e-30)
(4.11961e-49 -5.43086e-28 -8.11299e-30)
(1.06738e-46 -2.684e-28 -1.09736e-29)
(4.73421e-44 -6.98015e-29 5.39896e-29)
(1.05975e-46 -3.67403e-28 1.82702e-30)
(3.22814e-49 -2.89003e-28 -2.82507e-30)
(6.61443e-51 -9.75653e-29 7.48442e-29)
(3.17875e-53 -4.02598e-28 1.62198e-29)
(1.23644e-50 -5.86951e-28 -1.3268e-30)
(5.84183e-48 -3.04811e-28 -9.31257e-30)
(5.50172e-47 -1.4093e-28 1.09074e-28)
(8.42669e-44 -4.73399e-28 1.0941e-29)
(5.37487e-46 -3.5328e-28 -3.184e-31)
(5.59595e-48 -1.96383e-28 1.48687e-28)
(5.53893e-49 -5.42507e-28 3.17187e-29)
(3.55043e-46 -6.88121e-28 7.15876e-30)
(1.00126e-43 -4.03736e-28 -9.57678e-30)
(3.69267e-47 -2.71179e-28 2.05258e-28)
(2.94212e-48 -6.53951e-28 2.60326e-29)
(-1.40643e-45 -7.68673e-28 -8.37394e-30)
(-2.53648e-43 -4.7127e-28 -2.21154e-29)
(1.24092e-44 -3.61956e-28 2.7713e-28)
(-1.10054e-43 -7.88488e-28 1.61813e-29)
(-7.93221e-46 -5.84693e-28 -9.70089e-30)
(-9.91481e-47 -4.7292e-28 3.77604e-28)
(-2.45688e-43 -9.3862e-28 5.15628e-29)
(-1.79597e-45 -1.02728e-27 1.78916e-30)
(-2.44227e-43 -7.13909e-28 -2.81203e-29)
(-9.12778e-47 -6.19309e-28 5.05135e-28)
(8.61269e-47 -1.16234e-27 4.04165e-29)
(2.05037e-43 -9.05982e-28 -6.90705e-30)
(2.25668e-40 -8.00937e-28 6.92076e-28)
(1.28839e-38 -1.42712e-27 9.83557e-29)
(1.89291e-35 -1.53725e-27 3.28611e-29)
(1.81085e-34 -1.69925e-27 2.9443e-27)
(1.66815e-34 -2.08263e-27 2.91193e-27)
(8.17722e-35 -1.95068e-27 2.87944e-27)
(-1.84389e-32 1.81477e-26 4.81564e-27)
(3.5738e-33 -4.61748e-28 3.20954e-27)
(-1.83908e-32 -1.98901e-26 4.49081e-27)
(5.89166e-35 -4.28843e-28 2.97337e-27)
(8.70187e-35 -2.94319e-28 2.95597e-27)
(-9.6825e-34 -6.62637e-28 3.34083e-27)
(-9.26543e-34 -8.61815e-28 3.33208e-27)
(-9.40785e-34 -1.2476e-27 3.28937e-27)
(-1.20913e-33 -1.13385e-27 3.27846e-27)
(-5.34583e-32 1.89607e-26 5.13355e-27)
(9.93697e-33 1.80084e-28 3.39448e-27)
(-5.32359e-32 -1.92425e-26 4.93842e-27)
(2.251e-34 2.70907e-28 3.35572e-27)
(2.18356e-33 3.82579e-28 3.63205e-27)
(8.44902e-34 -7.17411e-30 3.6588e-27)
(8.39463e-34 -2.17653e-28 3.65513e-27)
(8.45319e-34 -6.14223e-28 3.63224e-27)
(1.83913e-33 -5.08932e-28 3.63851e-27)
(2.01432e-31 1.9515e-26 5.40055e-27)
(-3.83085e-32 5.90373e-28 3.45437e-27)
(1.98913e-31 -1.87398e-26 5.3597e-27)
(-9.2439e-34 8.20019e-28 3.73562e-27)
(5.15094e-34 8.93479e-28 3.7495e-27)
(5.38042e-34 4.75952e-28 3.78019e-27)
(5.53468e-34 2.42395e-28 3.79096e-27)
(5.67011e-34 -1.79101e-28 3.78247e-27)
(2.0582e-34 -9.57942e-29 3.79956e-27)
(-7.14936e-32 1.96202e-26 5.44067e-27)
(1.20338e-32 2.42707e-27 3.23356e-27)
(-5.3564e-32 -1.66042e-26 4.96283e-27)
(-8.41768e-34 8.68811e-28 3.394e-27)
(-5.98438e-34 8.32616e-28 3.40401e-27)
(-6.04891e-34 3.24166e-28 3.43602e-27)
(-6.12478e-34 -4.53677e-30 3.44287e-27)
(-6.20691e-34 -4.28146e-28 3.42976e-27)
(-7.69753e-34 -6.03383e-28 3.41681e-27)
(-3.08162e-32 8.8577e-27 4.11258e-27)
(1.958e-33 7.27866e-27 4.8428e-28)
(5.36504e-38 -2.26934e-28 -8.3006e-29)
(2.65929e-39 -1.83258e-28 6.07385e-30)
(5.19884e-43 -1.19403e-28 -7.5052e-29)
(4.24833e-45 -1.33646e-28 -1.02576e-30)
(5.3564e-48 -1.20703e-28 -6.98847e-29)
(4.18714e-48 -1.25126e-28 -5.36125e-29)
(6.09324e-47 -7.92593e-29 5.16481e-31)
(2.35244e-43 -9.71752e-29 -5.14479e-29)
(-2.29763e-43 -8.68118e-29 -4.02618e-29)
(-1.04723e-46 -6.63523e-29 3.51393e-31)
(-2.94705e-48 -4.7207e-29 -4.04896e-29)
(4.31745e-48 -6.1349e-29 -2.88479e-30)
(9.84914e-44 -8.57021e-29 -4.02302e-29)
(-2.22011e-43 -5.0471e-29 -3.21948e-29)
(-1.06119e-46 -5.33625e-29 -2.64388e-30)
(-8.63324e-48 -4.11122e-29 -3.20328e-29)
(-5.62739e-44 -5.46818e-29 -5.17821e-30)
(2.00375e-43 -7.59313e-29 -3.22482e-29)
(-2.10351e-43 -2.69355e-29 -2.59276e-29)
(-9.93746e-47 -4.80993e-29 -4.1656e-30)
(-3.876e-48 -7.13929e-29 -2.54001e-29)
(-3.86972e-48 -2.14204e-29 -2.11192e-29)
(-9.52931e-47 -4.25792e-29 -2.37146e-30)
(-2.03875e-43 -3.55811e-29 -2.04929e-29)
(-9.53695e-47 -4.5578e-29 -4.07909e-30)
(-3.89224e-48 -5.52422e-29 -1.9707e-29)
(-3.87819e-48 -1.26281e-29 -1.61138e-29)
(-9.79163e-47 -3.011e-29 -2.16081e-30)
(-2.02806e-43 -2.65768e-29 -1.58157e-29)
(-1.93044e-46 -3.175e-29 -3.12745e-30)
(-1.92395e-43 -3.46793e-29 -1.52982e-29)
(-3.38622e-47 -7.87944e-30 -1.26481e-29)
(-1.0226e-46 -1.84726e-29 -1.39417e-30)
(-1.99147e-43 -2.21068e-29 -1.2388e-29)
(-3.17613e-47 -7.68017e-30 -1.08777e-29)
(-1.81488e-48 -8.6066e-31 1.577e-31)
(-3.77159e-48 -4.88032e-30 -1.12521e-29)
(-9.4339e-47 -1.63904e-31 8.50894e-31)
(-1.84084e-43 5.29621e-30 -1.13746e-29)
(-1.56477e-291 1.50805e-33 -7.54028e-33)
(-7.1217e-285 1.55352e-33 -2.40422e-32)
(-3.19227e-278 1.69422e-33 -4.26799e-32)
(-1.40848e-271 1.92274e-33 -6.32908e-32)
(-6.11323e-265 2.23728e-33 -8.69008e-32)
(-2.60846e-258 2.64699e-33 -1.14502e-31)
(-1.09343e-251 3.16597e-33 -1.47164e-31)
(-4.49963e-245 3.81341e-33 -1.86078e-31)
(-1.81634e-238 4.61437e-33 -2.32611e-31)
(-7.18606e-232 5.60059e-33 -2.8837e-31)
(-2.78399e-225 6.81158e-33 -3.55283e-31)
(-1.05514e-218 8.29568e-33 -4.35699e-31)
(-3.90806e-212 1.01113e-32 -5.32493e-31)
(-1.41299e-205 1.23284e-32 -6.49188e-31)
(-4.98095e-199 1.50302e-32 -7.90091e-31)
(-1.70966e-192 1.83155e-32 -9.60433e-31)
(-5.70568e-186 2.23013e-32 -1.16653e-30)
(-1.84852e-179 2.71273e-32 -1.41596e-30)
(-5.80382e-173 3.29608e-32 -1.71777e-30)
(-1.76262e-166 4.00034e-32 -2.08275e-30)
(-5.16712e-160 4.85001e-32 -2.52375e-30)
(-1.45876e-153 5.87487e-32 -3.05616e-30)
(-3.9559e-147 7.1111e-32 -3.69841e-30)
(-1.0275e-140 8.60258e-32 -4.47278e-30)
(-2.54788e-134 1.04018e-31 -5.40621e-30)
(-6.00949e-128 1.25694e-31 -6.53141e-30)
(-1.34255e-121 1.51726e-31 -7.8878e-30)
(-2.82711e-115 1.82765e-31 -9.52216e-30)
(-5.57988e-109 2.19282e-31 -1.14881e-29)
(-1.02537e-102 2.61216e-31 -1.38433e-29)
(-1.74046e-96 3.07307e-31 -1.66406e-29)
(-2.70259e-90 3.53843e-31 -1.99109e-29)
(-3.79363e-84 3.92494e-31 -2.36265e-29)
(-4.7417e-78 4.06821e-31 -2.76371e-29)
(-5.17443e-72 3.67662e-31 -3.15631e-29)
(-4.80009e-66 2.2943e-31 -3.46473e-29)
(-3.64371e-60 -6.38684e-32 -3.56197e-29)
(-2.13447e-54 -5.45749e-31 -3.27558e-29)
(-8.71767e-49 -1.19597e-30 -2.54024e-29)
(-3.01402e-295 4.27244e-33 -7.53311e-33)
(-1.35949e-288 4.40188e-33 -2.40113e-32)
(-6.03826e-282 4.79738e-33 -4.26174e-32)
(-2.6394e-275 5.44406e-33 -6.31984e-32)
(-1.13472e-268 6.34647e-33 -8.67769e-32)
(-4.79495e-262 7.53677e-33 -1.14342e-31)
(-1.99015e-255 9.06161e-33 -1.46962e-31)
(-8.10729e-249 1.09822e-32 -1.85828e-31)
(-3.23899e-242 1.3376e-32 -2.32303e-31)
(-1.268e-235 1.63396e-32 -2.87991e-31)
(-4.85976e-229 1.9991e-32 -3.54818e-31)
(-1.82167e-222 2.44738e-32 -4.3513e-31)
(-6.67154e-216 2.99616e-32 -5.31796e-31)
(-2.38448e-209 3.66628e-32 -6.48337e-31)
(-8.30691e-203 4.48275e-32 -7.89055e-31)
(-2.81697e-196 5.47558e-32 -9.59175e-31)
(-9.28524e-190 6.68073e-32 -1.16501e-30)
(-2.97017e-183 8.1414e-32 -1.41411e-30)
(-9.20435e-177 9.90955e-32 -1.71554e-30)
(-2.75801e-170 1.20478e-31 -2.08006e-30)
(-7.97396e-164 1.46315e-31 -2.52051e-30)
(-2.21925e-157 1.77516e-31 -3.05226e-30)
(-5.93006e-151 2.15169e-31 -3.69371e-30)
(-1.51689e-144 2.60573e-31 -4.46711e-30)
(-3.70217e-138 3.15248e-31 -5.3994e-30)
(-8.5887e-132 3.80923e-31 -6.52323e-30)
(-1.8858e-125 4.5946e-31 -7.87803e-30)
(-3.89932e-119 5.52626e-31 -9.51064e-30)
(-7.54879e-113 6.61617e-31 -1.14749e-29)
(-1.35881e-106 7.86053e-31 -1.38285e-29)
(-2.25542e-100 9.22048e-31 -1.66256e-29)
(-3.41721e-94 1.05856e-30 -1.9898e-29)
(-4.66625e-88 1.17098e-30 -2.36208e-29)
(-5.64939e-82 1.21066e-30 -2.76478e-29)
(-5.93273e-76 1.09084e-30 -3.1605e-29)
(-5.2397e-70 6.75166e-31 -3.47407e-29)
(-3.71279e-64 -2.05418e-31 -3.57819e-29)
(-1.94505e-58 -1.65296e-30 -3.29888e-29)
(-6.26804e-53 -3.42582e-30 -2.53043e-29)
(1.09972e-292 6.79093e-33 -7.51632e-33)
(4.97867e-286 7.00992e-33 -2.39436e-32)
(2.21912e-279 7.63989e-33 -4.24828e-32)
(9.73258e-273 8.66932e-33 -6.29972e-32)
(4.19748e-266 1.01218e-32 -8.65032e-32)
(1.779e-259 1.2057e-32 -1.13985e-31)
(7.40438e-253 1.45581e-32 -1.46507e-31)
(3.02413e-246 1.77314e-32 -1.85255e-31)
(1.21107e-239 2.17089e-32 -2.31588e-31)
(4.75139e-233 2.66525e-32 -2.87107e-31)
(1.82458e-226 3.27583e-32 -3.53731e-31)
(6.8512e-220 4.02637e-32 -4.33796e-31)
(2.51291e-213 4.9455e-32 -5.30165e-31)
(8.99289e-207 6.06781e-32 -6.46347e-31)
(3.13616e-200 7.43505e-32 -7.86633e-31)
(1.06438e-193 9.09768e-32 -9.56233e-31)
(3.51042e-187 1.11166e-31 -1.16144e-30)
(1.12332e-180 1.35655e-31 -1.40979e-30)
(3.48156e-174 1.65331e-31 -1.7103e-30)
(1.04315e-167 2.01261e-31 -2.07372e-30)
(3.01513e-161 2.44728e-31 -2.51286e-30)
(8.38772e-155 2.97263e-31 -3.04301e-30)
(2.23993e-148 3.60685e-31 -3.68256e-30)
(5.72557e-142 4.37129e-31 -4.45368e-30)
(1.3963e-135 5.29065e-31 -5.38326e-30)
(3.23674e-129 6.39258e-31 -6.50393e-30)
(7.10185e-123 7.70632e-31 -7.85511e-30)
(1.46777e-116 9.25909e-31 -9.48372e-30)
(2.84124e-110 1.10684e-30 -1.14439e-29)
(5.11723e-104 1.31259e-30 -1.37941e-29)
(8.50733e-98 1.53668e-30 -1.65896e-29)
(1.29305e-91 1.761e-30 -1.98652e-29)
(1.77565e-85 1.94532e-30 -2.3601e-29)
(2.17033e-79 2.00982e-30 -2.76588e-29)
(2.31567e-73 1.81109e-30 -3.16766e-29)
(2.10092e-67 1.122e-30 -3.49137e-29)
(1.56137e-61 -3.43378e-31 -3.60925e-29)
(8.97613e-56 -2.76713e-30 -3.34064e-29)
(3.61283e-50 -5.64782e-30 -2.51468e-29)
(-1.50502e-291 9.31811e-33 -7.48933e-33)
(-6.85221e-285 9.64622e-33 -2.38416e-32)
(-3.07262e-278 1.052e-32 -4.22856e-32)
(-1.35622e-271 1.19376e-32 -6.2702e-32)
(-5.88882e-265 1.39451e-32 -8.60993e-32)
(-2.51377e-258 1.66299e-32 -1.13455e-31)
(-1.05421e-251 2.01104e-32 -1.45827e-31)
(-4.3402e-245 2.45372e-32 -1.84398e-31)
(-1.75282e-238 3.00962e-32 -2.30518e-31)
(-6.93821e-232 3.70136e-32 -2.85781e-31)
(-2.68935e-225 4.55632e-32 -3.52096e-31)
(-1.01981e-218 5.60756e-32 -4.3179e-31)
(-3.77931e-212 6.89501e-32 -5.27713e-31)
(-1.36722e-205 8.46695e-32 -6.43358e-31)
(-4.82245e-199 1.03818e-31 -7.82995e-31)
(-1.65626e-192 1.27104e-31 -9.51812e-31)
(-5.53096e-186 1.55384e-31 -1.15607e-30)
(-1.79308e-179 1.89696e-31 -1.40328e-30)
(-5.63352e-173 2.31292e-31 -1.70242e-30)
(-1.71207e-166 2.81677e-31 -2.06418e-30)
(-5.02254e-160 3.42654e-31 -2.50131e-30)
(-1.41899e-153 4.16375e-31 -3.02906e-30)
(-3.85097e-147 5.05381e-31 -3.66574e-30)
(-1.00103e-140 6.1265e-31 -4.43344e-30)
(-2.48428e-134 7.41605e-31 -5.35897e-30)
(-5.86451e-128 8.96066e-31 -6.47492e-30)
(-1.31134e-121 1.08005e-30 -7.8207e-30)
(-2.76406e-115 1.2973e-30 -9.4434e-30)
(-5.46109e-109 1.55021e-30 -1.13975e-29)
(-1.00469e-102 1.83769e-30 -1.37426e-29)
(-1.70755e-96 2.15088e-30 -1.65359e-29)
(-2.65547e-90 2.4651e-30 -1.98162e-29)
(-3.73426e-84 2.72516e-30 -2.3571e-29)
(-4.67817e-78 2.82099e-30 -2.76746e-29)
(-5.12055e-72 2.55332e-30 -3.17826e-29)
(-4.77001e-66 1.60313e-30 -3.51716e-29)
(-3.64285e-60 -4.38951e-31 -3.65598e-29)
(-2.15325e-54 -3.85856e-30 -3.40497e-29)
(-8.90795e-49 -8.21634e-30 -2.5877e-29)
(4.57943e-293 1.18472e-32 -7.45071e-33)
(2.07261e-286 1.22949e-32 -2.37032e-32)
(9.23529e-280 1.34171e-32 -4.20246e-32)
(4.04911e-273 1.52254e-32 -6.23122e-32)
(1.74572e-266 1.779e-32 -8.55647e-32)
(7.39622e-260 2.12253e-32 -1.12752e-31)
(3.07724e-253 2.56846e-32 -1.44925e-31)
(1.25634e-246 3.1362e-32 -1.83257e-31)
(5.02917e-240 3.84963e-32 -2.29093e-31)
(1.97226e-233 4.73777e-32 -2.84014e-31)
(7.57024e-227 5.83571e-32 -3.49918e-31)
(2.84125e-220 7.18578e-32 -4.29118e-31)
(1.0416e-213 8.83914e-32 -5.24446e-31)
(3.7256e-207 1.08577e-31 -6.39374e-31)
(1.29854e-200 1.33165e-31 -7.78147e-31)
(4.4045e-194 1.63066e-31 -9.4592e-31)
(1.45175e-187 1.99383e-31 -1.14892e-30)
(4.64249e-181 2.43452e-31 -1.39461e-30)
(1.43787e-174 2.96885e-31 -1.69191e-30)
(4.30498e-168 3.61621e-31 -2.05145e-30)
(1.24334e-161 4.39981e-31 -2.48592e-30)
(3.45594e-155 5.34729e-31 -3.01046e-30)
(9.22082e-149 6.49131e-31 -3.6433e-30)
(2.35473e-142 7.87003e-31 -4.40643e-30)
(5.73665e-136 9.52729e-31 -5.32658e-30)
(1.32835e-129 1.1512e-30 -6.43624e-30)
(2.91116e-123 1.38756e-30 -7.77486e-30)
(6.00898e-117 1.66663e-30 -9.38969e-30)
(1.16159e-110 1.99156e-30 -1.13358e-29)
(2.08896e-104 2.3612e-30 -1.36739e-29)
(3.46718e-98 2.76469e-30 -1.64641e-29)
(5.26031e-92 3.17134e-30 -1.97504e-29)
(7.20905e-86 3.512e-30 -2.35298e-29)
(8.79139e-80 3.64773e-30 -2.76932e-29)
(9.35561e-74 3.32455e-30 -3.19202e-29)
(8.46198e-68 2.13034e-30 -3.55121e-29)
(6.26614e-62 -4.76302e-31 -3.71849e-29)
(3.58821e-56 -4.909e-30 -3.49619e-29)
(1.44126e-50 -1.07306e-29 -2.71774e-29)
(-3.69708e-292 1.43709e-32 -7.3998e-33)
(-1.79094e-285 1.49424e-32 -2.35276e-32)
(-8.52365e-279 1.63141e-32 -4.16994e-32)
(-3.98405e-272 1.85137e-32 -6.18274e-32)
(-1.82806e-265 2.16347e-32 -8.48994e-32)
(-8.23004e-259 2.58184e-32 -1.11876e-31)
(-3.63346e-252 3.12527e-32 -1.438e-31)
(-1.57207e-245 3.81744e-32 -1.81835e-31)
(-6.66137e-239 4.68746e-32 -2.27315e-31)
(-2.76227e-232 5.77069e-32 -2.81809e-31)
(-1.12001e-225 7.10985e-32 -3.472e-31)
(-4.43653e-219 8.7565e-32 -4.25784e-31)
(-1.71515e-212 1.0773e-31 -5.20369e-31)
(-6.46452e-206 1.32347e-31 -6.34403e-31)
(-2.37267e-199 1.62332e-31 -7.72097e-31)
(-8.46935e-193 1.98797e-31 -9.38568e-31)
(-2.93608e-186 2.43088e-31 -1.13999e-30)
(-9.87023e-180 2.96837e-31 -1.38378e-30)
(-3.21213e-173 3.62013e-31 -1.67879e-30)
(-1.01009e-166 4.40986e-31 -2.03556e-30)
(-3.0629e-160 5.36589e-31 -2.46669e-30)
(-8.93549e-154 6.52196e-31 -2.98723e-30)
(-2.50155e-147 7.9179e-31 -3.61528e-30)
(-6.70134e-141 9.60028e-31 -4.37272e-30)
(-1.71228e-134 1.16226e-30 -5.28613e-30)
(-4.15772e-128 1.40446e-30 -6.38795e-30)
(-9.55398e-122 1.69294e-30 -7.71762e-30)
(-2.06758e-115 2.03365e-30 -9.3226e-30)
(-4.19034e-109 2.43066e-30 -1.12586e-29)
(-7.90065e-103 2.88294e-30 -1.3588e-29)
(-1.3749e-96 3.37808e-30 -1.63738e-29)
(-2.1873e-90 3.88013e-30 -1.96668e-29)
(-3.14364e-84 4.30726e-30 -2.34758e-29)
(-4.02097e-78 4.49349e-30 -2.77121e-29)
(-4.48875e-72 4.1318e-30 -3.2086e-29)
(-4.25937e-66 2.71585e-30 -3.59318e-29)
(-3.30876e-60 -4.38159e-31 -3.79676e-29)
(-1.98665e-54 -5.90115e-30 -3.61005e-29)
(-8.35331e-49 -1.34838e-29 -2.81624e-29)
(-4.23245e-292 1.68822e-32 -7.33643e-33)
(-2.03639e-285 1.75779e-32 -2.33146e-32)
(-9.63213e-279 1.91982e-32 -4.13103e-32)
(-4.4769e-272 2.17877e-32 -6.12481e-32)
(-2.04367e-265 2.54623e-32 -8.41038e-32)
(-9.15754e-259 3.039e-32 -1.10828e-31)
(-4.02552e-252 3.67928e-32 -1.42454e-31)
(-1.73481e-245 4.49496e-32 -1.80133e-31)
(-7.32414e-239 5.52033e-32 -2.25187e-31)
(-3.0269e-232 6.79702e-32 -2.79169e-31)
(-1.22351e-225 8.3753e-32 -3.43947e-31)
(-4.83264e-219 1.03159e-31 -4.21792e-31)
(-1.86336e-212 1.26922e-31 -5.15489e-31)
(-7.00602e-206 1.55931e-31 -6.28453e-31)
(-2.56564e-199 1.91265e-31 -7.64857e-31)
(-9.13919e-193 2.34233e-31 -9.29769e-31)
(-3.16226e-186 2.86426e-31 -1.12931e-30)
(-1.06119e-179 3.49768e-31 -1.37082e-30)
(-3.44795e-173 4.26582e-31 -1.66308e-30)
(-1.08265e-166 5.19662e-31 -2.01654e-30)
(-3.2785e-160 6.32351e-31 -2.44367e-30)
(-9.55279e-154 7.68628e-31 -2.95942e-30)
(-2.67141e-147 9.33191e-31 -3.58173e-30)
(-7.14923e-141 1.13154e-30 -4.33234e-30)
(-1.82508e-134 1.36999e-30 -5.23769e-30)
(-4.4281e-128 1.65561e-30 -6.33011e-30)
(-1.01681e-121 1.99591e-30 -7.64902e-30)
(-2.19911e-115 2.39807e-30 -9.24215e-30)
(-4.45445e-109 2.86716e-30 -1.11659e-29)
(-8.39451e-103 3.4026e-30 -1.34844e-29)
(-1.4602e-96 3.9909e-30 -1.62647e-29)
(-2.32207e-90 4.59177e-30 -1.95645e-29)
(-3.33602e-84 5.11224e-30 -2.34071e-29)
(-4.26536e-78 5.36157e-30 -2.77283e-29)
(-4.75957e-72 4.98209e-30 -3.22757e-29)
(-4.51418e-66 3.3723e-30 -3.64261e-29)
(-3.50454e-60 -3.0559e-31 -3.89083e-29)
(-2.10185e-54 -6.80622e-30 -3.7571e-29)
(-8.81383e-49 -1.61772e-29 -3.05203e-29)
(-8.24457e-296 1.93748e-32 -7.2607e-33)
(-3.94157e-289 2.01928e-32 -2.30644e-32)
(-1.8517e-282 2.20597e-32 -4.08575e-32)
(-8.54449e-276 2.50364e-32 -6.05746e-32)
(-3.87087e-269 2.92602e-32 -8.31789e-32)
(-1.72069e-262 3.49256e-32 -1.0961e-31)
(-7.50086e-256 4.22879e-32 -1.40888e-31)
(-3.20444e-249 5.16682e-32 -1.78153e-31)
(-1.34066e-242 6.34602e-32 -2.22711e-31)
(-5.48868e-236 7.81422e-32 -2.76099e-31)
(-2.19704e-229 9.62918e-32 -3.40162e-31)
(-8.59072e-223 1.18607e-31 -4.1715e-31)
(-3.27798e-216 1.4593e-31 -5.09815e-31)
(-1.21926e-209 1.79285e-31 -6.21534e-31)
(-4.41552e-203 2.19911e-31 -7.56437e-31)
(-1.5549e-196 2.69317e-31 -9.19536e-31)
(-5.31668e-190 3.29329e-31 -1.11689e-30)
(-1.76247e-183 4.02164e-31 -1.35575e-30)
(-5.65463e-177 4.90494e-31 -1.64481e-30)
(-1.75254e-170 5.97535e-31 -1.99441e-30)
(-5.23611e-164 7.27134e-31 -2.4169e-30)
(-1.50458e-157 8.83869e-31 -2.92707e-30)
(-4.14732e-151 1.07315e-30 -3.5427e-30)
(-1.09345e-144 1.30132e-30 -4.28536e-30)
(-2.7484e-138 1.57566e-30 -5.18132e-30)
(-6.56134e-132 1.90435e-30 -6.26277e-30)
(-1.48141e-125 2.29615e-30 -7.56913e-30)
(-3.14758e-119 2.75951e-30 -9.14835e-30)
(-6.25723e-113 3.3007e-30 -1.10577e-29)
(-1.1559e-106 3.91983e-30 -1.33632e-29)
(-1.96797e-100 4.60294e-30 -1.6136e-29)
(-3.05713e-94 5.30644e-30 -1.94425e-29)
(-4.27917e-88 5.92805e-30 -2.33218e-29)
(-5.31078e-82 6.25507e-30 -2.77381e-29)
(-5.72e-76 5.88228e-30 -3.24839e-29)
(-5.18838e-70 4.11271e-30 -3.69893e-29)
(-3.78807e-64 -5.82032e-32 -4.00033e-29)
(-2.06139e-58 -7.59436e-30 -3.92749e-29)
(-7.08919e-53 -1.84108e-29 -3.26278e-29)
(3.93809e-295 2.18426e-32 -7.17285e-33)
(1.70572e-288 2.27804e-32 -2.27776e-32)
(7.25759e-282 2.4891e-32 -4.03416e-32)
(3.03102e-275 2.8251e-32 -5.9808e-32)
(1.24141e-268 3.30183e-32 -8.2126e-32)
(4.98133e-262 3.94133e-32 -1.08222e-31)
(1.95623e-255 4.77247e-32 -1.39105e-31)
(7.50979e-249 5.83144e-32 -1.75899e-31)
(2.81444e-242 7.16269e-32 -2.19892e-31)
(1.02817e-235 8.82015e-32 -2.72603e-31)
(3.65513e-229 1.0869e-31 -3.35854e-31)
(1.26198e-222 1.33879e-31 -4.11864e-31)
(4.22178e-216 1.64721e-31 -5.03354e-31)
(1.36463e-209 2.02369e-31 -6.13657e-31)
(4.24708e-203 2.48225e-31 -7.4685e-31)
(1.26701e-196 3.0399e-31 -9.07886e-31)
(3.60139e-190 3.71729e-31 -1.10274e-30)
(9.67011e-184 4.53943e-31 -1.33859e-30)
(2.42042e-177 5.53653e-31 -1.624e-30)
(5.51849e-171 6.74489e-31 -1.96921e-30)
(1.09244e-164 8.208e-31 -2.38641e-30)
(1.63686e-158 9.97758e-31 -2.89022e-30)
(6.17579e-153 1.21148e-30 -3.49824e-30)
(-8.03501e-146 1.46914e-30 -4.23184e-30)
(-4.30715e-139 1.77901e-30 -5.11709e-30)
(-1.54293e-132 2.15038e-30 -6.18601e-30)
(-4.5794e-126 2.59329e-30 -7.47799e-30)
(-1.19269e-119 3.11756e-30 -9.04124e-30)
(-2.78341e-113 3.73081e-30 -1.09339e-29)
(-5.86163e-107 4.4342e-30 -1.3224e-29)
(-1.11386e-100 5.21388e-30 -1.59873e-29)
(-1.90072e-94 6.02416e-30 -1.92995e-29)
(-2.88655e-88 6.75555e-30 -2.32174e-29)
(-3.84877e-82 7.17675e-30 -2.77374e-29)
(-4.41834e-76 6.83895e-30 -3.27042e-29)
(-4.24432e-70 4.95035e-30 -3.76142e-29)
(-3.26503e-64 3.25702e-31 -4.12497e-29)
(-1.8651e-58 -8.24924e-30 -4.12415e-29)
(-6.72515e-53 -2.08123e-29 -3.46433e-29)
(1.78874e-291 2.42803e-32 -7.07317e-33)
(7.81697e-285 2.5335e-32 -2.24548e-32)
(3.35556e-278 2.76858e-32 -3.97634e-32)
(1.41373e-271 3.14245e-32 -5.89492e-32)
(5.84035e-265 3.67283e-32 -8.09465e-32)
(2.36346e-258 4.38436e-32 -1.06668e-31)
(9.35846e-252 5.30915e-32 -1.37108e-31)
(3.62131e-245 6.48748e-32 -1.73373e-31)
(1.36747e-238 7.96875e-32 -2.16734e-31)
(5.03107e-232 9.81294e-32 -2.68686e-31)
(1.80003e-225 1.20925e-31 -3.31027e-31)
(6.24906e-219 1.48949e-31 -4.05944e-31)
(2.09949e-212 1.83262e-31 -4.96117e-31)
(6.80373e-206 2.25145e-31 -6.04834e-31)
(2.11777e-199 2.76159e-31 -7.36113e-31)
(6.29586e-193 3.38197e-31 -8.94835e-31)
(1.77333e-186 4.13558e-31 -1.0869e-30)
(4.67444e-180 5.05025e-31 -1.31937e-30)
(1.12903e-173 6.15962e-31 -1.6007e-30)
(2.39427e-167 7.5041e-31 -1.94098e-30)
(3.9708e-161 9.13211e-31 -2.35224e-30)
(2.57221e-155 1.11013e-30 -2.84893e-30)
(-1.65123e-148 1.34798e-30 -3.44843e-30)
(-1.03989e-141 1.63478e-30 -4.17186e-30)
(-4.09426e-135 1.97975e-30 -5.04507e-30)
(-1.3229e-128 2.39337e-30 -6.09991e-30)
(-3.75197e-122 2.88696e-30 -7.37569e-30)
(-9.57329e-116 3.47179e-30 -8.92085e-30)
(-2.21828e-109 4.15701e-30 -1.07944e-29)
(-4.67772e-103 4.94519e-30 -1.30666e-29)
(-8.95512e-97 5.82328e-30 -1.5818e-29)
(-1.54731e-90 6.74479e-30 -1.91342e-29)
(-2.39081e-84 7.59535e-30 -2.30913e-29)
(-3.26069e-78 8.12895e-30 -2.77215e-29)
(-3.8551e-72 7.85824e-30 -3.29292e-29)
(-3.85274e-66 5.89864e-30 -3.8292e-29)
(-3.13775e-60 8.69624e-31 -4.26433e-29)
(-1.96779e-54 -8.7425e-30 -4.35024e-29)
(-8.61883e-49 -2.3017e-29 -3.80888e-29)
(3.87947e-295 2.6683e-32 -6.96196e-33)
(1.68298e-288 2.78515e-32 -2.20966e-32)
(7.17186e-282 3.04389e-32 -3.91237e-32)
(2.99973e-275 3.45507e-32 -5.79995e-32)
(1.2304e-268 4.03832e-32 -7.96421e-32)
(4.94427e-262 4.82081e-32 -1.0495e-31)
(1.94442e-255 5.83785e-32 -1.34899e-31)
(7.47478e-249 7.13374e-32 -1.70579e-31)
(2.80514e-242 8.76276e-32 -2.13241e-31)
(1.02615e-235 1.07908e-31 -2.64355e-31)
(3.65286e-229 1.32976e-31 -3.2569e-31)
(1.26289e-222 1.63793e-31 -3.99397e-31)
(4.23063e-216 2.01522e-31 -4.88115e-31)
(1.36942e-209 2.47577e-31 -5.95078e-31)
(4.26839e-203 3.0367e-31 -7.2424e-31)
(1.27545e-196 3.71886e-31 -8.80406e-31)
(3.63217e-190 4.54752e-31 -1.06938e-30)
(9.77486e-184 5.55333e-31 -1.29811e-30)
(2.45394e-177 6.77326e-31 -1.57493e-30)
(5.6196e-171 8.25182e-31 -1.90976e-30)
(1.12123e-164 1.00423e-30 -2.31446e-30)
(1.71412e-158 1.22081e-30 -2.80326e-30)
(8.125e-153 1.48245e-30 -3.39331e-30)
(-7.57507e-146 1.79798e-30 -4.10549e-30)
(-4.20639e-139 2.17762e-30 -4.96537e-30)
(-1.52267e-132 2.63298e-30 -6.00457e-30)
(-4.54274e-126 3.17674e-30 -7.26231e-30)
(-1.18695e-119 3.82173e-30 -8.78723e-30)
(-2.7763e-113 4.57879e-30 -1.06392e-29)
(-5.85708e-107 5.45226e-30 -1.28907e-29)
(-1.11469e-100 6.43062e-30 -1.56274e-29)
(-1.90486e-94 7.46798e-30 -1.89451e-29)
(-2.89703e-88 8.44769e-30 -2.29406e-29)
(-3.86896e-82 9.11347e-30 -2.76849e-29)
(-4.45022e-76 8.94572e-30 -3.31503e-29)
(-4.28619e-70 6.97099e-30 -3.90119e-29)
(-3.31034e-64 1.59903e-30 -4.41779e-29)
(-1.90437e-58 -9.0471e-30 -4.60189e-29)
(-6.98397e-53 -2.54994e-29 -4.11991e-29)
(-5.63737e-295 2.90462e-32 -6.83952e-33)
(-2.51514e-288 3.03255e-32 -2.17037e-32)
(-1.10472e-281 3.31453e-32 -3.84235e-32)
(-4.77408e-275 3.76241e-32 -5.69603e-32)
(-2.02867e-268 4.39765e-32 -7.8215e-32)
(-8.47096e-262 5.2499e-32 -1.03069e-31)
(-3.47337e-255 6.35765e-32 -1.32482e-31)
(-1.39747e-248 7.76911e-32 -1.67523e-31)
(-5.51275e-242 9.54339e-32 -2.09419e-31)
(-2.13038e-235 1.17522e-31 -2.59616e-31)
(-8.05777e-229 1.44823e-31 -3.1985e-31)
(-2.98001e-222 1.78385e-31 -3.92234e-31)
(-1.07649e-215 2.19474e-31 -4.7936e-31)
(-3.79404e-209 2.69628e-31 -5.84404e-31)
(-1.30304e-202 3.30714e-31 -7.11251e-31)
(-4.35512e-196 4.05003e-31 -8.64619e-31)
(-1.41449e-189 4.95248e-31 -1.05021e-30)
(-4.45732e-183 6.04787e-31 -1.27485e-30)
(-1.3604e-176 7.37652e-31 -1.54673e-30)
(-4.01374e-170 8.9869e-31 -1.8756e-30)
(-1.14238e-163 1.09371e-30 -2.27312e-30)
(-3.12925e-157 1.32964e-30 -2.75328e-30)
(-8.22816e-151 1.61469e-30 -3.33299e-30)
(-2.07078e-144 1.9585e-30 -4.03282e-30)
(-4.97166e-138 2.3723e-30 -4.87807e-30)
(-1.13444e-131 2.86886e-30 -5.90008e-30)
(-2.44972e-125 3.46224e-30 -7.13794e-30)
(-4.98139e-119 4.1669e-30 -8.64044e-30)
(-9.4836e-113 4.99559e-30 -1.04683e-29)
(-1.67885e-106 5.95478e-30 -1.26962e-29)
(-2.74091e-100 7.03526e-30 -1.54149e-29)
(-4.08568e-94 8.19319e-30 -1.87308e-29)
(-5.49122e-88 9.31245e-30 -2.27622e-29)
(-6.54792e-82 1.01315e-29 -2.76218e-29)
(-6.7799e-76 1.01062e-29 -3.33577e-29)
(-5.91435e-70 8.18063e-30 -3.97613e-29)
(-4.15218e-64 2.54174e-30 -4.58469e-29)
(-2.16878e-58 -9.11723e-30 -4.89221e-29)
(-7.09417e-53 -2.77505e-29 -4.48174e-29)
(-2.63278e-291 3.13657e-32 -6.70615e-33)
(-1.18738e-284 3.27528e-32 -2.12768e-32)
(-5.27266e-278 3.58006e-32 -3.76639e-32)
(-2.30399e-271 4.06395e-32 -5.58332e-32)
(-9.90102e-265 4.75022e-32 -7.66672e-32)
(-4.18163e-258 5.67094e-32 -1.0103e-31)
(-1.73451e-251 6.86769e-32 -1.29861e-31)
(-7.06086e-245 8.39256e-32 -1.64208e-31)
(-2.81867e-238 1.03094e-31 -2.05275e-31)
(-1.10249e-231 1.26956e-31 -2.54477e-31)
(-4.22139e-225 1.56448e-31 -3.13517e-31)
(-1.58077e-218 1.92703e-31 -3.84467e-31)
(-5.78313e-212 2.37088e-31 -4.69866e-31)
(-2.06467e-205 2.91264e-31 -5.72829e-31)
(-7.18461e-199 3.5725e-31 -6.97165e-31)
(-2.43361e-192 4.37497e-31 -8.47499e-31)
(-8.01255e-186 5.34982e-31 -1.02942e-30)
(-2.56027e-179 6.53313e-31 -1.24963e-30)
(-7.92593e-173 7.96846e-31 -1.51615e-30)
(-2.37274e-166 9.70823e-31 -1.83855e-30)
(-6.85461e-160 1.18153e-30 -2.22827e-30)
(-1.90656e-153 1.43646e-30 -2.69907e-30)
(-5.09262e-147 1.74449e-30 -3.26754e-30)
(-1.3026e-140 2.11611e-30 -3.95396e-30)
(-3.1802e-134 2.56351e-30 -4.78329e-30)
(-7.38385e-128 3.10065e-30 -5.78658e-30)
(-1.6236e-121 3.74302e-30 -7.0027e-30)
(-3.36475e-115 4.5068e-30 -8.48056e-30)
(-6.53528e-109 5.40682e-30 -1.02816e-29)
(-1.18181e-102 6.45208e-30 -1.24828e-29)
(-1.97418e-96 7.63645e-30 -1.51797e-29)
(-3.01743e-90 8.91964e-30 -1.84897e-29)
(-4.17047e-84 1.01891e-29 -2.25529e-29)
(-5.13529e-78 1.11835e-29 -2.75261e-29)
(-5.52538e-72 1.13434e-29 -3.35404e-29)
(-5.06061e-66 9.54032e-30 -4.05248e-29)
(-3.80132e-60 3.72779e-30 -4.76375e-29)
(-2.21327e-54 -8.90611e-30 -5.20773e-29)
(-9.09319e-49 -2.98792e-29 -4.8426e-29)
(-6.11417e-291 3.36375e-32 -6.56215e-33)
(-2.70751e-284 3.51296e-32 -2.08167e-32)
(-1.17921e-277 3.84005e-32 -3.68462e-32)
(-5.04789e-271 4.35921e-32 -5.462e-32)
(-2.12237e-264 5.09546e-32 -7.5001e-32)
(-8.7579e-258 6.08323e-32 -9.88344e-32)
(-3.54399e-251 7.36715e-32 -1.27039e-31)
(-1.40514e-244 9.00308e-32 -1.6064e-31)
(-5.45357e-238 1.10595e-31 -2.00813e-31)
(-2.06982e-231 1.36194e-31 -2.48945e-31)
(-7.67367e-225 1.67833e-31 -3.06701e-31)
(-2.77571e-218 2.06724e-31 -3.76106e-31)
(-9.78327e-212 2.54337e-31 -4.59647e-31)
(-3.35518e-205 3.12452e-31 -5.60372e-31)
(-1.11787e-198 3.83236e-31 -6.82004e-31)
(-3.61212e-192 4.69318e-31 -8.29073e-31)
(-1.12978e-185 5.73893e-31 -1.00704e-30)
(-3.41307e-179 7.00834e-31 -1.22248e-30)
(-9.93491e-173 8.54817e-31 -1.48323e-30)
(-2.77869e-166 1.04147e-30 -1.79866e-30)
(-7.44355e-160 1.26754e-30 -2.17999e-30)
(-1.90259e-153 1.54109e-30 -2.64069e-30)
(-4.61931e-147 1.87167e-30 -3.19706e-30)
(-1.05944e-140 2.27057e-30 -3.86902e-30)
(-2.27933e-134 2.75097e-30 -4.68116e-30)
(-4.55771e-128 3.32802e-30 -5.66418e-30)
(-8.36061e-122 4.01868e-30 -6.85671e-30)
(-1.37898e-115 4.84093e-30 -8.30768e-30)
(-1.97359e-109 5.81187e-30 -1.00792e-29)
(-2.26337e-103 6.94344e-30 -1.22503e-29)
(-1.55059e-97 8.23331e-30 -1.49214e-29)
(1.109e-91 9.64634e-30 -1.82202e-29)
(6.42817e-85 1.10766e-29 -2.23094e-29)
(1.40342e-78 1.22691e-29 -2.7391e-29)
(2.17592e-72 1.266e-29 -3.36863e-29)
(2.60689e-66 1.1062e-29 -4.12844e-29)
(2.4197e-60 5.18941e-30 -4.95362e-29)
(1.67515e-54 -8.35914e-30 -5.56436e-29)
(7.93839e-49 -3.11534e-29 -5.31303e-29)
(-1.63674e-294 3.58578e-32 -6.40779e-33)
(-7.14555e-288 3.74519e-32 -2.03243e-32)
(-3.06607e-281 4.09408e-32 -3.59714e-32)
(-1.29211e-274 4.64772e-32 -5.33224e-32)
(-5.34374e-268 5.43282e-32 -7.32191e-32)
(-2.16693e-261 6.48612e-32 -9.64865e-32)
(-8.60781e-255 7.85525e-32 -1.24021e-31)
(-3.34619e-248 9.59972e-32 -1.56823e-31)
(-1.27155e-241 1.17925e-31 -1.96042e-31)
(-4.71749e-235 1.45222e-31 -2.4303e-31)
(-1.70644e-228 1.78958e-31 -2.99411e-31)
(-6.00912e-222 2.20427e-31 -3.67166e-31)
(-2.05648e-215 2.71194e-31 -4.4872e-31)
(-6.82613e-209 3.33159e-31 -5.4705e-31)
(-2.19265e-202 4.08631e-31 -6.65792e-31)
(-6.79722e-196 5.00416e-31 -8.09368e-31)
(-2.02693e-189 6.11922e-31 -9.83115e-31)
(-5.79052e-183 7.47279e-31 -1.19344e-30)
(-1.57641e-176 9.11476e-31 -1.44802e-30)
(-4.0603e-170 1.11052e-30 -1.756e-30)
(-9.79068e-164 1.35162e-30 -2.12835e-30)
(-2.17322e-157 1.64337e-30 -2.57824e-30)
(-4.30453e-151 1.99601e-30 -3.12165e-30)
(-7.08213e-145 2.42163e-30 -3.7781e-30)
(-7.44324e-139 2.93437e-30 -4.5718e-30)
(6.29898e-133 3.55061e-30 -5.53303e-30)
(6.76519e-126 4.28878e-30 -6.70012e-30)
(2.56834e-119 5.16877e-30 -8.12192e-30)
(7.38361e-113 6.21012e-30 -9.86111e-30)
(1.7996e-106 7.42806e-30 -1.19985e-29)
(3.85279e-100 8.82486e-30 -1.46392e-29)
(7.33327e-94 1.03721e-29 -1.7921e-29)
(1.24283e-87 1.19735e-29 -2.20284e-29)
(1.86646e-81 1.33871e-29 -2.72094e-29)
(2.45953e-75 1.40571e-29 -3.37818e-29)
(2.80253e-69 1.27565e-29 -4.20189e-29)
(2.70611e-63 6.96098e-30 -5.15217e-29)
(2.15035e-57 -7.44017e-30 -5.93458e-29)
(1.32972e-51 -3.17409e-29 -5.74721e-29)
(-2.57857e-291 3.80229e-32 -6.24338e-33)
(-1.1628e-284 3.97162e-32 -1.98002e-32)
(-5.16286e-278 4.34177e-32 -3.50411e-32)
(-2.25575e-271 4.92903e-32 -5.19425e-32)
(-9.69256e-265 5.76177e-32 -7.13242e-32)
(-4.09311e-258 6.87899e-32 -9.39896e-32)
(-1.69761e-251 8.33121e-32 -1.20812e-31)
(-6.90986e-245 1.01815e-31 -1.52765e-31)
(-2.7581e-238 1.25074e-31 -1.90968e-31)
(-1.07868e-231 1.54027e-31 -2.36739e-31)
(-4.12983e-225 1.89808e-31 -2.9166e-31)
(-1.54634e-218 2.3379e-31 -3.57659e-31)
(-5.65666e-212 2.87633e-31 -4.37101e-31)
(-2.01935e-205 3.53353e-31 -5.32884e-31)
(-7.0264e-199 4.33398e-31 -6.48553e-31)
(-2.37986e-192 5.30745e-31 -7.88414e-31)
(-7.83516e-186 6.49009e-31 -9.57671e-31)
(-2.50347e-179 7.92574e-31 -1.16257e-30)
(-7.74988e-173 9.66736e-31 -1.41058e-30)
(-2.32e-166 1.17787e-30 -1.71063e-30)
(-6.70227e-160 1.43363e-30 -2.07342e-30)