/*--------------------------------*- C++ -*----------------------------------*\
| =========                 |                                                 |
| \\      /  F ield         | OpenFOAM: The Open Source CFD Toolbox           |
|  \\    /   O peration     | Version:  4.1                                   |
|   \\  /    A nd           | Web:      www.OpenFOAM.org                      |
|    \\/     M anipulation  |                                                 |
\*---------------------------------------------------------------------------*/
FoamFile
{
    version     2.0;
    format      ascii;
    class       volScalarField;
    location    "8";
    object      p;
}
// * * * * * * * * * * * * * * * * * * * * * * * * * * * * * * * * * * * * * //

dimensions      [0 2 -2 0 0 0 0];

internalField   nonuniform List<scalar> 
26785
(
0.681289
0.515936
0.902918
1.27149
1.52148
1.89934
2.15329
2.40728
2.51207
2.61646
2.6321
2.67211
2.61166
2.43434
2.24983
2.0368
1.80202
1.56419
1.35395
1.11962
0.910439
0.638468
0.245935
-0.2364
-0.720262
-1.18971
-1.64512
-2.12535
-2.58155
-3.00161
-3.36048
-3.6778
-3.96434
-4.18675
-4.3131
-4.3128
-4.19708
-3.97271
-3.68598
-3.35607
-3.00831
-2.61884
-2.18337
-1.7105
-1.24065
-0.782328
-0.359412
-0.00947874
0.406602
0.767142
1.17099
1.50327
1.85363
2.12701
2.40814
2.63442
2.87393
3.07009
3.27386
3.44016
3.59738
3.70219
3.7714
3.79059
3.7841
3.75542
3.71711
3.66989
3.61584
3.5556
3.48797
3.41396
3.32885
3.23629
3.13308
3.02632
2.91389
2.80193
2.6842
2.56429
2.43678
2.30826
2.17565
2.04545
1.91412
1.78642
1.65748
1.53038
1.40054
1.27125
1.13969
1.01046
0.882513
0.759926
0.640912
0.526565
0.416326
0.304341
0.201807
0.0485527
0.66217
0.513095
0.902568
1.26918
1.51972
1.89813
2.15175
2.40585
2.51176
2.61593
2.63113
2.67207
2.61016
2.43285
2.24897
2.03634
1.80057
1.56281
1.35253
1.11983
0.913346
0.642167
0.247306
-0.236079
-0.719217
-1.18693
-1.64242
-2.12437
-2.58269
-3.0032
-3.36218
-3.68108
-3.96998
-4.19436
-4.32214
-4.32261
-4.20591
-3.97902
-3.69018
-3.36001
-3.01312
-2.6227
-2.18401
-1.70902
-1.23906
-0.781173
-0.359111
-0.00984853
0.406726
0.768336
1.17301
1.50544
1.8558
2.12888
2.40996
2.63607
2.87565
3.07203
3.27644
3.44401
3.60256
3.70822
3.77724
3.79572
3.78833
3.75912
3.72027
3.67274
3.6183
3.55803
3.49043
3.41664
3.33143
3.23869
3.13505
3.02802
2.91533
2.80341
2.68562
2.56566
2.43792
2.30928
2.17648
2.04621
1.9147
1.78684
1.65764
1.53036
1.40027
1.27077
1.13892
1.00945
0.881275
0.758548
0.639419
0.524839
0.415008
0.301874
0.216811
0.0304322
0.627861
0.508707
0.902394
1.26567
1.51754
1.89765
2.15018
2.40441
2.51231
2.61657
2.63113
2.67354
2.60848
2.43023
2.24802
2.03568
1.79773
1.55968
1.34888
1.11941
0.919107
0.649161
0.249412
-0.237086
-0.718742
-1.1827
-1.63757
-2.12257
-2.58463
-3.00529
-3.36332
-3.68461
-3.97775
-4.20592
-4.33652
-4.33862
-4.22036
-3.98887
-3.69628
-3.36599
-3.02138
-2.62967
-2.185
-1.70579
-1.2353
-0.778098
-0.357163
-0.0092652
0.407624
0.770999
1.17686
1.50986
1.86028
2.13338
2.41422
2.64035
2.87986
3.07701
3.28257
3.45245
3.61285
3.71988
3.78843
3.80607
3.79749
3.76776
3.72822
3.68033
3.62531
3.5649
3.49708
3.42314
3.33721
3.24358
3.13879
3.0309
2.91755
2.80525
2.68695
2.5664
2.43793
2.30875
2.17556
2.04515
1.91356
1.78566
1.6563
1.52882
1.3984
1.26852
1.13627
1.00655
0.878259
0.755569
0.636537
0.521862
0.412112
0.298113
0.217881
0.0363345
0.58008
0.504102
0.900989
1.26028
1.51487
1.89777
2.14821
2.40283
2.51383
2.61795
2.63122
2.67569
2.60543
2.42567
2.24683
2.0347
1.7931
1.55385
1.34183
1.11709
0.926831
0.658716
0.252165
-0.239258
-0.718696
-1.17747
-1.63119
-2.1208
-2.58832
-3.00929
-3.36537
-3.68935
-3.98746
-4.22066
-4.35449
-4.3587
-4.23823
-4.00126
-3.70443
-3.37484
-3.03357
-2.64093
-2.18982
-1.70672
-1.23595
-0.779885
-0.3604
-0.0111594
0.403533
0.770242
1.17352
1.50834
1.85598
2.13117
2.40992
2.63767
2.87497
3.07413
3.27917
3.45243
3.61297
3.72205
3.78913
3.80691
3.79697
3.76762
3.7274
3.67984
3.62442
3.56449
3.49663
3.42277
3.33613
3.24172
3.13609
3.02775
2.91428
2.80198
2.68353
2.56254
2.43369
2.30424
2.17119
2.04109
1.91008
1.78263
1.65367
1.52623
1.39571
1.26546
1.13296
1.00309
0.874983
0.752578
0.633875
0.519443
0.40892
0.295716
0.203145
0.0514245
0.523019
0.503046
0.899377
1.25418
1.5126
1.89869
2.14619
2.40093
2.51633
2.62026
2.63249
2.67904
2.60235
2.4203
2.24689
2.03488
1.78872
1.54733
1.3334
1.11441
0.935738
0.668277
0.253973
-0.242763
-0.719463
-1.17295
-1.6255
-2.1201
-2.59335
-3.01558
-3.37073
-3.69822
-4.00107
-4.23934
-4.37579
-4.38175
-4.25941
-4.01923
-3.72079
-3.39401
-3.05627
-2.66268
-2.2068
-1.72223
-1.2523
-0.797515
-0.378811
-0.0261547
0.387274
0.757228
1.15706
1.49326
1.83873
2.11662
2.39463
2.6244
2.86054
3.06158
3.26693
3.44331
3.60476
3.71588
3.78274
3.80124
3.79114
3.76236
3.72205
3.6749
3.61974
3.56059
3.49328
3.41961
3.33255
3.23744
3.13131
3.02283
2.90965
2.79761
2.67922
2.55792
2.42891
2.2995
2.16695
2.03748
1.90731
1.78052
1.65211
1.52486
1.39431
1.26378
1.13113
1.0013
0.873578
0.751659
0.633403
0.519317
0.407984
0.295065
0.192489
0.0608967
0.459662
0.507137
0.896968
1.24769
1.51067
1.89978
2.14321
2.39717
2.51824
2.62096
2.63284
2.68243
2.60005
2.41571
2.24836
2.03549
1.78521
1.5427
1.3276
1.11422
0.945255
0.67477
0.252397
-0.248306
-0.720858
-1.17
-1.62187
-2.12119
-2.5986
-3.02208
-3.3773
-3.70826
-4.01472
-4.25795
-4.39741
-4.40437
-4.28003
-4.0385
-3.74109
-3.41867
-3.0843
-2.68927
-2.23028
-1.74591
-1.27695
-0.82174
-0.402279
-0.0471821
0.366608
0.737467
1.13421
1.47018
1.81493
2.09476
2.37294
2.60382
2.83934
3.04126
3.24742
3.42605
3.58881
3.70144
3.76833
3.78714
3.77711
3.74864
3.70821
3.66115
3.60648
3.54823
3.48191
3.40868
3.3216
3.22608
3.11992
3.01172
2.89939
2.78804
2.67018
2.54894
2.42023
2.29127
2.1597
2.03126
1.90224
1.7763
1.64862
1.5217
1.39131
1.26063
1.12804
0.998465
0.871406
0.750213
0.632596
0.518898
0.406965
0.294088
0.185218
0.064924
0.393473
0.512562
0.891061
1.23962
1.50762
1.89926
2.13859
2.39033
2.51677
2.61819
2.63083
2.68374
2.59811
2.41244
2.24982
2.03269
1.77776
1.53605
1.32215
1.11453
0.952608
0.67622
0.245848
-0.256397
-0.722885
-1.16705
-1.61858
-2.12176
-2.60161
-3.02485
-3.38046
-3.71487
-4.02542
-4.27432
-4.41921
-4.42839
-4.30209
-4.05996
-3.76598
-3.45004
-3.12005
-2.72411
-2.26335
-1.78008
-1.31167
-0.854048
-0.433493
-0.0771212
0.336746
0.707283
1.10177
1.43851
1.78454
2.06694
2.34558
2.57676
2.81146
3.01411
3.22157
3.40284
3.568
3.68263
3.75005
3.76914
3.75926
3.73116
3.69067
3.64364
3.58962
3.53264
3.46779
3.39547
3.30878
3.21326
3.10741
2.99988
2.88873
2.77838
2.66126
2.54037
2.41224
2.28406
2.15367
2.02648
1.89865
1.77351
1.64647
1.51984
1.38952
1.2587
1.12616
0.996934
0.87059
0.750175
0.633163
0.519778
0.407377
0.294391
0.181581
0.0669457
0.339938
0.524816
0.886581
1.2339
1.505
1.8968
2.13199
2.38
2.509
2.60683
2.62091
2.67592
2.58881
2.40381
2.24623
2.02241
1.76247
1.52513
1.31528
1.1144
0.959199
0.678009
0.240005
-0.263374
-0.724725
-1.1649
-1.6178
-2.12535
-2.60777
-3.03005
-3.38555
-3.72218
-4.03582
-4.29015
-4.44154
-4.45381
-4.32393
-4.0795
-3.78849
-3.47952
-3.15479
-2.75911
-2.29837
-1.81735
-1.34943
-0.887778
-0.465331
-0.108838
0.30317
0.671546
1.06344
1.40094
1.749
2.03455
2.3144
2.54548
2.77867
2.98163
3.19041
3.37443
3.54249
3.6595
3.72858
3.7482
3.73817
3.71011
3.66966
3.62257
3.56941
3.51402
3.45112
3.38001
3.29405
3.19885
3.09368
2.98715
2.87747
2.76825
2.65191
2.53144
2.40406
2.27686
2.14778
2.02186
1.89518
1.77069
1.64407
1.51754
1.38711
1.25605
1.12361
0.994834
0.869273
0.74963
0.633165
0.519991
0.407211
0.294003
0.179014
0.0666687
0.307219
0.541703
0.885967
1.23193
1.502
1.89034
2.12117
2.36599
2.49463
2.5873
2.60467
2.66158
2.57435
2.39209
2.23932
2.00766
1.74182
1.50928
1.30352
1.10885
0.960075
0.674879
0.230851
-0.273083
-0.729896
-1.16658
-1.62108
-2.13165
-2.61583
-3.03633
-3.39126
-3.72859
-4.04439
-4.30436
-4.46173
-4.47723
-4.34343
-4.09565
-3.80719
-3.50516
-3.18545
-2.79096
-2.3324
-1.85484
-1.38751
-0.921727
-0.49664
-0.140308
0.268089
0.632887
1.02207
1.36002
1.70996
1.99858
2.28039
2.51193
2.74343
2.94637
3.15643
3.34312
3.51416
3.63364
3.70544
3.72641
3.71602
3.6876
3.64711
3.6
3.54776
3.49416
3.43345
3.36375
3.2786
3.18397
3.07968
2.97443
2.86645
2.75844
2.64276
2.52271
2.39625
2.27031
2.14269
2.0181
1.89243
1.76843
1.64196
1.5153
1.38458
1.25328
1.12107
0.992944
0.868251
0.749348
0.633313
0.520229
0.407095
0.293669
0.177621
0.0658221
0.293088
0.551491
0.885839
1.23184
1.49736
1.87943
2.10557
2.34998
2.47835
2.56397
2.58355
2.64312
2.55644
2.37667
2.22654
1.98646
1.71637
1.48853
1.28552
1.09756
0.956546
0.669169
0.221614
-0.281651
-0.73484
-1.16905
-1.62488
-2.13726
-2.62293
-3.041
-3.39644
-3.73324
-4.04949
-4.31546
-4.47816
-4.49661
-4.36042
-4.10816
-3.82163
-3.52619
-3.2101
-2.81725
-2.363
-1.89012
-1.42337
-0.954052
-0.526224
-0.169738
0.233295
0.592865
0.97875
1.31616
1.66742
1.95881
2.24291
2.47591
2.70662
2.90903
3.11976
3.30855
3.48236
3.60456
3.67999
3.70304
3.69227
3.66281
3.62195
3.57477
3.5235
3.47174
3.41331
3.34513
3.26096
3.16711
3.06397
2.96032
2.85433
2.74767
2.63268
2.51317
2.38788
2.26349
2.13749
2.01426
1.88944
1.76571
1.63915
1.51214
1.38104
1.24963
1.11789
0.990626
0.866886
0.748644
0.63293
0.519847
0.406439
0.292883
0.176472
0.0646531
0.295548
0.542829
0.88237
1.23264
1.49275
1.86799
2.09021
2.33421
2.46232
2.53955
2.55948
2.62175
2.53607
2.35874
2.20905
1.96107
1.68912
1.46587
1.26423
1.08365
0.950956
0.661375
0.21142
-0.290611
-0.741383
-1.17425
-1.63059
-2.14303
-2.62969
-3.04527
-3.40248
-3.73802
-4.05349
-4.32487
-4.49192
-4.51243
-4.37611
-4.1192
-3.83425
-3.54492
-3.23095
-2.83958
-2.39084
-1.92322
-1.45679
-0.984359
-0.554382
-0.19708
0.200227
0.553645
0.935804
1.27186
1.62393
1.91775
2.2039
2.43876
2.66984
2.87164
3.08222
3.27234
3.44837
3.57357
3.65306
3.67857
3.66755
3.63678
3.5953
3.5481
3.49786
3.44798
3.39176
3.32513
3.24204
3.14914
3.04737
2.94562
2.84179
2.73654
2.62228
2.50352
2.37962
2.25696
2.13266
2.01073
1.88659
1.76294
1.6361
1.50863
1.3772
1.2459
1.11486
0.988586
0.865778
0.748051
0.632521
0.519378
0.405765
0.292185
0.175766
0.0637178
0.330091
0.536668
0.884794
1.2381
1.49005
1.85594
2.07486
2.31589
2.44388
2.51295
2.53251
2.59725
2.51204
2.33793
2.18666
1.93183
1.66039
1.44259
1.24057
1.06812
0.944628
0.653162
0.202222
-0.297727
-0.747427
-1.18047
-1.63664
-2.14704
-2.63327
-3.0479
-3.40739
-3.74086
-4.05522
-4.33035
-4.5004
-4.52305
-4.38855
-4.1273
-3.84349
-3.55922
-3.24636
-2.85607
-2.4134
-1.95178
-1.486
-1.01105
-0.579812
-0.221818
0.169648
0.516072
0.893296
1.22714
1.57949
1.87496
2.16278
2.39934
2.6318
2.833
3.04231
3.23268
3.41046
3.5391
3.62301
3.65136
3.64032
3.60815
3.5659
3.51883
3.46976
3.42185
3.36774
3.30272
3.22092
3.12925
3.0292
2.92964
2.82811
2.7243
2.61095
2.49333
2.37107
2.25024
2.12765
2.00692
1.88333
1.75959
1.63236
1.50443
1.37284
1.24189
1.11169
0.986433
0.864452
0.747086
0.631633
0.518405
0.404687
0.291212
0.175043
0.0627945
0.366328
0.524415
0.884829
1.24095
1.48609
1.84191
2.06017
2.29549
2.4234
2.48683
2.5063
2.57218
2.48629
2.31576
2.16128
1.901
1.63139
1.41944
1.21594
1.05245
0.938342
0.64376
0.193191
-0.304567
-0.754832
-1.18878
-1.64433
-2.15073
-2.63395
-3.05027
-3.41213
-3.74398
-4.05763
-4.3343
-4.50523
-4.52983
-4.39802
-4.13395
-3.85108
-3.57053
-3.25841
-2.86884
-2.4321
-1.97654
-1.51176
-1.03508
-0.602836
-0.244342
0.141724
0.481366
0.852567
1.18448
1.53678
1.83273
2.12136
2.35929
2.59323
2.79403
3.00133
3.19128
3.37054
3.50301
3.59133
3.62272
3.61204
3.57862
3.53558
3.48877
3.441
3.395
3.34281
3.27937
3.19901
3.10881
3.01077
2.91352
2.8142
2.71179
2.59945
2.48335
2.36291
2.24384
2.12285
2.00317
1.88002
1.75606
1.62837
1.50006
1.36851
1.23809
1.10879
0.984461
0.863117
0.745974
0.630511
0.517192
0.403445
0.29017
0.174365
0.0619236
0.393093
0.509931
0.885688
1.24405
1.48295
1.82715
2.04582
2.27449
2.39996
2.45897
2.47778
2.54431
2.45676
2.28983
2.13143
1.86767
1.60156
1.39633
1.18996
1.03671
0.932584
0.634255
0.187232
-0.308636
-0.761606
-1.1968
-1.65142
-2.1532
-2.63058
-3.04978
-3.41438
-3.74625
-4.05913
-4.33518
-4.50535
-4.53036
-4.40171
-4.13727
-3.85506
-3.5766
-3.26485
-2.87635
-2.44444
-1.99472
-1.53229
-1.05528
-0.622006
-0.262984
0.117625
0.449812
0.813429
1.14376
1.49511
1.78982
2.07834
2.31736
2.55265
2.75334
2.958
3.14693
3.3275
3.46406
3.5567
3.59135
3.58149
3.54698
3.50302
3.45654
3.41021
3.36608
3.31569
3.2539
3.17528
3.08691
2.99123
2.8964
2.79932
2.69836
2.58724
2.47304
2.35461
2.23721
2.1176
1.99881
1.87599
1.75173
1.62361
1.49511
1.36384
1.23406
1.10567
0.982181
0.861323
0.74432
0.628835
0.515472
0.401809
0.288825
0.173479
0.0609781
0.407471
0.491619
0.884446
1.24581
1.4803
1.81164
2.03035
2.25456
2.37504
2.43124
2.44929
2.51579
2.42555
2.26117
2.09904
1.8343
1.5728
1.37384
1.16417
1.02228
0.926929
0.623351
0.183195
-0.312253
-0.769528
-1.20602
-1.65952
-2.15605
-2.62632
-3.04806
-3.41566
-3.74915
-4.06158
-4.33488
-4.50344
-4.52737
-4.40069
-4.13861
-3.85732
-3.57971
-3.26784
-2.88163
-2.45331
-2.00831
-1.54947
-1.07327
-0.637989
-0.277778
0.0976984
0.421649
0.777907
1.10702
1.45585
1.74793
2.03545
2.27532
2.5115
2.71249
2.91464
3.1022
3.28388
3.42439
3.52113
3.55908
3.5504
3.51504
3.47015
3.42398
3.37915
3.33676
3.28805
3.22791
3.15115
3.06494
2.97176
2.87941
2.78442
2.68475
2.57516
2.46319
2.34689
2.23092
2.1124
1.9943
1.87165
1.74703
1.61849
1.49004
1.35922
1.23013
1.1026
0.979833
0.859329
0.742425
0.626926
0.513567
0.400066
0.287417
0.17254
0.0600708
0.41159
0.470068
0.881268
1.24719
1.4777
1.79546
2.01216
2.23483
2.3478
2.40176
2.41805
2.48427
2.38977
2.2266
2.06152
1.79892
1.54408
1.35147
1.13774
1.01002
0.920231
0.612722
0.182736
-0.314151
-0.77604
-1.21459
-1.66729
-2.15712
-2.61971
-3.04313
-3.41372
-3.74938
-4.06254
-4.33106
-4.497
-4.51981
-4.39344
-4.13565
-3.85551
-3.5778
-3.26507
-2.88258
-2.45669
-2.01548
-1.56166
-1.08686
-0.648392
-0.286661
0.0828595
0.396567
0.746768
1.07346
1.41752
1.70563
1.99148
2.23181
2.46852
2.66994
2.86997
3.05574
3.23824
3.38249
3.48328
3.52462
3.51735
3.48127
3.43551
3.38962
3.34628
3.30554
3.25858
3.20024
3.12553
3.04193
2.95129
2.86171
2.76867
2.67009
2.56256
2.45309
2.33903
2.22434
2.10671
1.98922
1.86654
1.7414
1.61254
1.48431
1.35404
1.22568
1.09896
0.976842
0.856663
0.739898
0.624483
0.511238
0.39802
0.285776
0.171408
0.0592203
0.412172
0.447062
0.876258
1.24864
1.47483
1.77986
1.99337
2.21558
2.32065
2.37338
2.38748
2.45278
2.35224
2.18927
2.02164
1.76291
1.51741
1.32981
1.11162
1.0022
0.911614
0.60208
0.183064
-0.316931
-0.783756
-1.22436
-1.67671
-2.15798
-2.6128
-3.03717
-3.41094
-3.74858
-4.0643
-4.32697
-4.4885
-4.50938
-4.3834
-4.13082
-3.85187
-3.57326
-3.25964
-2.88196
-2.45791
-2.02
-1.57188
-1.0974
-0.65397
-0.290785
0.0716306
0.37499
0.721243
1.04396
1.38153
1.66485
1.94847
2.1888
2.4257
2.62748
2.826
3.0099
3.19304
3.34067
3.44536
3.49002
3.48427
3.44756
3.40107
3.35549
3.31347
3.27425
3.22902
3.17255
3.10007
3.01934
2.93105
2.84441
2.75309
2.65544
2.55032
2.44329
2.33131
2.2178
2.10107
1.98421
1.8613
1.73548
1.6064
1.47844
1.34872
1.22102
1.09502
0.973483
0.853628
0.73708
0.621859
0.508858
0.396021
0.284205
0.170326
0.0585961
0.408742
0.422236
0.869766
1.24976
1.47008
1.76368
1.97378
2.19546
2.29253
2.3428
2.35452
2.41821
2.30975
2.14594
1.97652
1.72136
1.49214
1.30777
1.08489
0.99855
0.900817
0.592952
0.184133
-0.317195
-0.789896
-1.23243
-1.68468
-2.15705
-2.60422
-3.02809
-3.40524
-3.74494
-4.06383
-4.32166
-4.47677
-4.4926
-4.36875
-4.12225
-3.84447
-3.56365
-3.2499
-2.87761
-2.45544
-2.02041
-1.5778
-1.10158
-0.652776
-0.289728
0.063752
0.358907
0.701581
1.01815
1.34729
1.62452
1.90527
2.14499
2.38177
2.58382
2.7813
2.9632
3.14678
3.29742
3.40592
3.45383
3.44967
3.41237
3.36521
3.32001
3.2792
3.24143
3.19801
3.14355
3.07372
2.99605
2.9101
2.82642
2.73673
2.64042
2.53798
2.4331
2.3229
2.21039
2.09463
1.97849
1.8553
1.72876
1.59955
1.4719
1.3427
1.21553
1.09018
0.969219
0.849775
0.7336
0.618765
0.50622
0.393925
0.282586
0.169199
0.0581781
0.401941
0.396262
0.861294
1.24972
1.46519
1.74769
1.95519
2.17597
2.2655
2.31162
2.3231
2.38406
2.26647
2.10076
1.93035
1.67626
1.47006
1.2852
1.05986
0.998481
0.887176
0.583736
0.183901
-0.316753
-0.79656
-1.24126
-1.69239
-2.15652
-2.59644
-3.01823
-3.39874
-3.74216
-4.06201
-4.31636
-4.4644
-4.47391
-4.35199
-4.11163
-3.83525
-3.55211
-3.24008
-2.87294
-2.45438
-2.02186
-1.58164
-1.1015
-0.64792
-0.286708
0.058825
0.350007
0.687953
0.99687
1.31613
1.5864
1.86377
2.10235
2.33868
2.54091
2.73798
2.91797
3.10193
3.25517
3.36719
3.41816
3.41547
3.37764
3.32993
3.28518
3.24542
3.20902
3.16737
3.11493
3.04807
2.97329
2.88991
2.80881
2.72039
2.62624
2.52635
2.42326
2.31456
2.20286
2.08796
1.97243
1.84902
1.72191
1.59259
1.46522
1.33643
1.20968
1.08493
0.964525
0.845574
0.729924
0.615648
0.503735
0.392066
0.281213
0.168272
0.0580328
0.390267
0.371115
0.851913
1.24854
1.45927
1.72944
1.93572
2.15609
2.23769
2.27751
2.2897
2.34615
2.2189
2.05015
1.8809
1.62855
1.44784
1.25929
1.03695
0.999047
0.869958
0.575924
0.184733
-0.314428
-0.801178
-1.24891
-1.69653
-2.15323
-2.58718
-3.00546
-3.38833
-3.73871
-4.05696
-4.30674
-4.44874
-4.45236
-4.33088
-4.09666
-3.82096
-3.53674
-3.22788
-2.86623
-2.45228
-2.02084
-1.57973
-1.09592
-0.639143
-0.279982
0.0606995
0.350014
0.680676
0.979765
1.28729
1.54935
1.82251
2.05915
2.29485
2.49729
2.69452
2.87267
3.05684
3.2123
3.32756
3.38137
3.38
3.3417
3.29353
3.24929
3.21054
3.17557
3.13577
3.08543
3.02188
2.94986
2.86953
2.7906
2.7033
2.61199
2.51423
2.41291
2.30569
2.19471
2.08042
1.96529
1.84168
1.71425
1.58488
1.45769
1.32916
1.20283
1.07872
0.958967
0.840692
0.725773
0.612308
0.501232
0.390249
0.27993
0.16741
0.0580186
0.374069
0.348492
0.842837
1.24648
1.45287
1.71024
1.91652
2.13652
2.21046
2.24448
2.25663
2.30748
2.17292
2.00068
1.83351
1.58688
1.42644
1.2324
1.0169
0.998725
0.849196
0.566793
0.183842
-0.31412
-0.807159
-1.25746
-1.69994
-2.14986
-2.57809
-2.99286
-3.37778
-3.736
-4.05274
-4.29714
-4.43185
-4.43029
-4.30874
-4.08035
-3.80467
-3.52145
-3.21573
-2.8601
-2.45087
-2.0178
-1.57565
-1.0888
-0.628252
-0.269211
0.069901
0.356568
0.678063
0.966108
1.26118
1.51457
1.783
2.017
2.25207
2.45496
2.65301
2.82972
3.01381
3.17109
3.28915
3.34546
3.3452
3.30656
3.25807
3.21435
3.17652
3.14303
3.10505
3.05685
2.9966
2.92717
2.85005
2.77298
2.68711
2.59835
2.50224
2.40275
2.29698
2.18661
2.07274
1.95776
1.83389
1.70638
1.57704
1.44988
1.32144
1.19555
1.07215
0.953125
0.835692
0.721669
0.609194
0.499055
0.388728
0.278976
0.166789
0.0580787
0.350463
0.329351
0.836388
1.24592
1.44261
1.68849
1.89643
2.11581
2.18127
2.21034
2.21896
2.26439
2.12379
1.94755
1.77858
1.54334
1.40504
1.20535
1.00168
0.996454
0.831708
0.558852
0.181832
-0.314651
-0.812291
-1.26327
-1.7008
-2.14425
-2.56567
-2.97756
-3.36427
-3.73011
-4.04706
-4.28638
-4.41164
-4.40411
-4.28332
-4.0596
-3.78401
-3.50233
-3.19849
-2.85073
-2.44391
-2.01085
-1.56853
-1.07494
-0.61043
-0.250537
0.0873654
0.36997
0.680993
0.956154
1.23745
1.48106
1.74383
1.97432
2.20847
2.41221
2.6121
2.78785
2.97113
3.12965
3.25011
3.30855
3.30924
3.27053
3.22183
3.17863
3.14183
3.10992
3.07389
3.02795
2.97098
2.90409
2.83022
2.75492
2.67114
2.5843
2.48971
2.39197
2.28756
2.17767
2.06419
1.94916
1.82496
1.69746
1.56821
1.44093
1.31262
1.18735
1.0648
0.946661
0.830284
0.717361
0.606048
0.496906
0.387258
0.27817
0.166291
0.0581082
0.320297
0.311692
0.831449
1.24894
1.43043
1.66661
1.8778
2.09406
2.15139
2.17694
2.18015
2.22078
2.07381
1.89655
1.72516
1.50016
1.38567
1.18051
0.99276
0.992059
0.820623
0.552016
0.177823
-0.31995
-0.819286
-1.26879
-1.7018
-2.13838
-2.55236
-2.96341
-3.35165
-3.72381
-4.04128
-4.27539
-4.39136
-4.37678
-4.25714
-4.03959
-3.76303
-3.48235
-3.17939
-2.84308
-2.43484
-2.00892
-1.56094
-1.05745
-0.588477
-0.227949
0.108329
0.386962
0.687893
0.949375
1.21628
1.44965
1.70635
1.9331
2.16605
2.37095
2.5737
2.74932
2.93103
3.09015
3.21251
3.27271
3.27414
3.23569
3.18686
3.14416
3.10843
3.07806
3.04399
3.00035
2.94643
2.88187
2.81115
2.73771
2.65609
2.57067
2.4775
2.38126
2.27808
2.16867
2.05563
1.94035
1.81572
1.68825
1.55898
1.43145
1.30338
1.17894
1.05735
0.940243
0.825022
0.713334
0.603205
0.494956
0.385959
0.27756
0.165946
0.058274
0.282285
0.292216
0.828479
1.25408
1.41436
1.64284
1.86027
2.07143
2.1186
2.14072
2.13745
2.16926
2.01757
1.84195
1.6719
1.45769
1.36312
1.15638
0.989313
0.986895
0.811644
0.546652
0.174196
-0.328281
-0.825442
-1.27211
-1.69921
-2.12845
-2.53556
-2.94718
-3.33646
-3.71477
-4.03331
-4.2602
-4.36872
-4.34642
-4.22769
-4.01671
-3.7389
-3.45648
-3.15638
-2.83213
-2.4257
-2.00746
-1.54752
-1.03274
-0.559224
-0.19912
0.136053
0.410673
0.700679
0.946348
1.19727
1.41932
1.66914
1.89176
2.12319
2.32955
2.53595
2.71225
2.89176
3.0508
3.17449
3.23605
3.23812
3.20028
3.1515
3.10928
3.07472
3.0459
3.01391
2.97267
2.92169
2.85928
2.79161
2.72046
2.64079
2.55662
2.4646
2.36961
2.26751
2.15872
2.04624
1.93055
1.80534
1.6779
1.54851
1.4208
1.29321
1.16983
1.04941
0.933531
0.819585
0.709284
0.600318
0.49284
0.384517
0.276821
0.16539
0.058617
0.239299
0.270269
0.827431
1.25946
1.39749
1.61935
1.84453
2.05076
2.08547
2.1036
2.09618
2.11315
1.9614
1.79023
1.62271
1.42083
1.33673
1.13365
0.990482
0.981794
0.799714
0.540232
0.168294
-0.338483
-0.83325
-1.2768
-1.69595
-2.11759
-2.51928
-2.93155
-3.32237
-3.70641
-4.02468
-4.24374
-4.34656
-4.31632
-4.19798
-3.99174
-3.71506
-3.42767
-3.14126
-2.82259
-2.42383
-2.00833
-1.53232
-1.00467
-0.526077
-0.167097
0.167648
0.438606
0.71698
0.945712
1.18012
1.39084
1.6336
1.85207
2.08223
2.29037
2.50075
2.67835
2.85527
3.01367
3.13808
3.20052
3.20318
3.16629
3.11775
3.07595
3.04251
3.01517
2.98518
2.94638
2.89796
2.83779
2.77277
2.70402
2.62635
2.54336
2.45212
2.35792
2.25658
2.14846
2.03665
1.92043
1.79463
1.66715
1.53754
1.40987
1.28301
1.16085
1.0417
0.927126
0.814508
0.70559
0.597562
0.490753
0.383086
0.276024
0.164652
0.059157
0.189794
0.24471
0.826462
1.26149
1.37842
1.59465
1.82854
2.03067
2.05112
2.06322
2.05237
2.05102
1.90047
1.73584
1.57212
1.38643
1.30575
1.11143
0.994564
0.976109
0.787661
0.533136
0.163864
-0.345674
-0.840249
-1.27911
-1.68874
-2.10374
-2.50071
-2.91198
-3.30552
-3.69557
-4.01204
-4.22525
-4.32208
-4.28477
-4.16637
-3.96114
-3.6887
-3.3925
-3.13055
-2.81266
-2.42258
-2.00343
-1.50884
-0.968192
-0.485652
-0.127819
0.207258
0.473819
0.738196
0.947837
1.16445
1.36344
1.59848
1.81247
2.04156
2.2516
2.46654
2.646
2.81991
2.97683
3.1012
3.16401
3.16737
3.1319
3.0839
3.0425
3.01019
2.98426
2.95618
2.91998
2.87389
2.81643
2.75371
2.68691
2.61134
2.52979
2.43925
2.34554
2.2448
2.13714
2.02579
1.90891
1.78263
1.655
1.5252
1.39799
1.27226
1.15152
1.03379
0.920602
0.809449
0.701795
0.594496
0.488407
0.381453
0.274952
0.163767
0.0599397
0.138054
0.217409
0.8264
1.26094
1.36055
1.57088
1.81288
2.00963
2.02013
2.02525
2.01072
1.99091
1.84276
1.68365
1.52426
1.35707
1.27708
1.09637
1.00045
0.966482
0.774037
0.52652
0.158919
-0.354743
-0.849191
-1.28183
-1.68164
-2.08999
-2.48407
-2.89351
-3.29021
-3.68419
-3.99885
-4.20728
-4.29799
-4.25599
-4.1361
-3.92884
-3.66725
-3.3646
-3.12563
-2.807
-2.42241
-1.99623
-1.48237
-0.929362
-0.443307
-0.0844961
0.251019
0.512677
0.761321
0.950987
1.14981
1.33758
1.56513
1.77508
2.00363
2.2155
2.43498
2.61683
2.78752
2.94213
3.0658
3.1285
3.13258
3.09891
3.05177
3.0108
2.97952
2.95483
2.92838
2.89478
2.85084
2.79634
2.73555
2.6705
2.59655
2.51626
2.42663
2.33355
2.23313
2.12618
2.01467
1.89681
1.77022
1.64234
1.51251
1.38613
1.26177
1.14254
1.02626
0.914434
0.80471
0.697992
0.591354
0.485988
0.37974
0.273782
0.162854
0.0609269
0.0808892
0.187312
0.825914
1.25529
1.3421
1.54658
1.79651
1.98598
1.98842
1.98689
1.96731
1.92951
1.78237
1.6258
1.4743
1.32833
1.24725
1.09099
1.00726
0.953214
0.760631
0.523543
0.156814
-0.361919
-0.855923
-1.28246
-1.67227
-2.07296
-2.46507
-2.87272
-3.27262
-3.66904
-3.9817
-4.18532
-4.27138
-4.22696
-4.10033
-3.89025
-3.64048
-3.34361
-3.11674
-2.79927
-2.41792
-1.98165
-1.4472
-0.882737
-0.39522
-0.0325084
0.302763
0.558062
0.787783
0.955558
1.13601
1.3125
1.53232
1.73851
1.96673
2.18046
2.4042
2.58891
2.7565
2.90761
3.03
3.09221
3.09696
3.0654
3.01951
2.97918
2.94889
2.9253
2.90038
2.86931
2.82753
2.77604
2.71729
2.65379
2.5811
2.50184
2.41296
2.3207
2.22022
2.11466
2.00247
1.88335
1.75643
1.62834
1.49888
1.37365
1.25086
1.13334
1.01864
0.908206
0.799704
0.69371
0.587917
0.483293
0.377719
0.272411
0.162044
0.0618319
0.0194147
0.155645
0.825248
1.24741
1.32488
1.5252
1.78175
1.96124
1.95734
1.95064
1.92034
1.87256
1.72269
1.56474
1.42412
1.30048
1.21605
1.08978
1.0132
0.937375
0.746294
0.518592
0.152146
-0.371387
-0.863484
-1.28451
-1.66462
-2.05715
-2.44722
-2.85377
-3.25613
-3.65383
-3.96376
-4.16285
-4.24457
-4.19876
-4.06314
-3.85485
-3.61034
-3.33437
-3.10638
-2.7936
-2.41529
-1.96382
-1.40995
-0.835651
-0.347233
0.0230387
0.357507
0.605254
0.813905
0.959459
1.12243
1.28859
1.50142
1.70472
1.93277
2.14892
2.37587
2.56307
2.72812
2.87498
2.99576
3.05736
3.06279
3.03318
2.9888
2.94932
2.91995
2.89728
2.87376
2.84493
2.80516
2.75668
2.70008
2.63798
2.56619
2.48759
2.39939
2.30774
2.20754
2.10288
1.98999
1.86975
1.74237
1.61416
1.48542
1.3615
1.24035
1.12459
1.01145
0.902278
0.794651
0.689309
0.58439
0.48048
0.375655
0.270739
0.161334
0.0618824
-0.0489996
0.121442
0.823117
1.23368
1.30505
1.50611
1.76622
1.93311
1.91978
1.90915
1.86127
1.81212
1.65644
1.49367
1.37164
1.26888
1.18319
1.08406
1.01895
0.922596
0.733864
0.512777
0.148253
-0.379555
-0.869333
-1.28374
-1.65453
-2.03847
-2.42594
-2.83167
-3.23615
-3.63595
-3.94291
-4.13796
-4.21553
-4.16684
-4.02271
-3.81875
-3.57092
-3.32973
-3.09561
-2.78428
-2.41019
-1.9345
-1.3651
-0.785521
-0.294669
0.0863805
0.420314
0.656195
0.840853
0.963506
1.10943
1.2656
1.47195
1.67222
1.89988
2.11899
2.3486
2.53734
2.70019
2.84249
2.96115
3.02198
3.02857
3.00066
2.95788
2.91944
2.89104
2.86914
2.84709
2.82026
2.7825
2.73698
2.68265
2.62176
2.55063
2.47253
2.385
2.29371
2.19408
2.08967
1.97601
1.85493
1.72709
1.59903
1.47138
1.34902
1.2297
1.11574
1.00404
0.896014
0.789203
0.684631
0.580636
0.477585
0.37364
0.268808
0.160862
0.0608773
-0.121088
0.0864926
0.819475
1.21859
1.28584
1.48986
1.74951
1.90283
1.88049
1.86446
1.80074
1.74919
1.59174
1.42398
1.32478
1.23339
1.15521
1.07279
1.02541
0.908869
0.72291
0.50327
0.142927
-0.391793
-0.877675
-1.2835
-1.6455
-2.02123
-2.40597
-2.81104
-3.2167
-3.61844
-3.92234
-4.11418
-4.18863
-4.13477
-3.98473
-3.78467
-3.54309
-3.33137
-3.09154
-2.77968
-2.40511
-1.89789
-1.31999
-0.739453
-0.242695
0.150907
0.486251
0.70551
0.865217
0.966255
1.0969
1.24436
1.44529
1.64279
1.87059
2.09257
2.32395
2.51323
2.67397
2.81182
2.92808
2.98806
2.99629
2.96978
2.92847
2.89111
2.86364
2.8424
2.82187
2.79677
2.76089
2.7182
2.666
2.60611
2.53561
2.45775
2.37082
2.27989
2.18087
2.07638
1.96158
1.83985
1.71177
1.58421
1.45781
1.33711
1.21962
1.10728
0.996836
0.889809
0.783723
0.679995
0.576945
0.474826
0.371739
0.267069
0.160258
0.0582066
-0.196594
0.0500137
0.811723
1.19798
1.26704
1.47414
1.73044
1.86751
1.83558
1.81091
1.73967
1.67634
1.52512
1.36053
1.28023
1.19003
1.12535
1.05918
1.02949
0.895558
0.71465
0.491793
0.138122
-0.407957
-0.886736
-1.28088
-1.63415
-2.00213
-2.38251
-2.78715
-3.19422
-3.5972
-3.899
-4.08813
-4.16245
-4.10041
-3.9437
-3.74673
-3.52246
-3.33196
-3.0894
-2.77502
-2.39312
-1.84693
-1.26891
-0.692405
-0.185887
0.221791
0.557349
0.754861
0.888862
0.969268
1.08565
1.22506
1.42053
1.61519
1.84355
2.0678
2.30035
2.48933
2.6478
2.78125
2.89499
2.95418
2.96384
2.93874
2.89888
2.86261
2.8361
2.81553
2.79656
2.7732
2.73924
2.69902
2.64881
2.5897
2.51991
2.44226
2.35574
2.26528
2.16689
2.06184
1.94558
1.82346
1.69553
1.56884
1.44394
1.32499
1.2093
1.0985
0.989301
0.883194
0.777931
0.67532
0.573395
0.472208
0.369879
0.265148
0.159015
0.0513113
-0.271709
0.0138195
0.798227
1.17704
1.2509
1.45915
1.71163
1.8296
1.7907
1.75417
1.68257
1.60032
1.46184
1.3057
1.23346
1.15066
1.09815
1.04882
1.02876
0.882363
0.706436
0.476136
0.127162
-0.429995
-0.899391
-1.27912
-1.62396
-1.98613
-2.36103
-2.7651
-3.17307
-3.57541
-3.87611
-4.0627
-4.13883
-4.06735
-3.90226
-3.71202
-3.50858
-3.33458
-3.08836
-2.77165
-2.37641
-1.79428
-1.22088
-0.648477
-0.129354
0.294906
0.6254
0.798959
0.908901
0.971306
1.07539
1.20795
1.39871
1.59134
1.82041
2.04649
2.2792
2.46713
2.62324
2.75243
2.86371
2.92228
2.93294
2.90917
2.87072
2.83559
2.80993
2.79015
2.7725
2.75086
2.71889
2.68062
2.63221
2.57395
2.50444
2.42709
2.34102
2.25104
2.15262
2.04698
1.92961
1.80717
1.67958
1.55397
1.43061
1.31336
1.19932
1.08988
0.981739
0.876512
0.77231
0.670928
0.570137
0.469692
0.367898
0.263036
0.15697
0.0451501
-0.349202
-0.0226969
0.779111
1.15104
1.23347
1.44283
1.69188
1.78684
1.73977
1.68742
1.62284
1.51906
1.39556
1.25109
1.18131
1.11437
1.07139
1.04072
1.02296
0.870621
0.697446
0.458024
0.110046
-0.454112
-0.911076
-1.27428
-1.61104
-1.96888
-2.33664
-2.73983
-3.14922
-3.54977
-3.85059
-4.03523
-4.11363
-4.03164
-3.855
-3.67652
-3.49591
-3.33578
-3.08162
-2.76227
-2.34677
-1.73493
-1.17144
-0.602412
-0.066307
0.373416
0.691025
0.840203
0.928623
0.974429
1.06693
1.19304
1.37944
1.57043
1.79936
2.02696
2.25908
2.44512
2.59883
2.72392
2.83254
2.89042
2.90189
2.87938
2.84234
2.80842
2.78351
2.76477
2.74828
2.72827
2.69847
2.66179
2.61499
2.55754
2.48807
2.41113
2.32545
2.23589
2.13667
2.03073
1.9126
1.78988
1.66295
1.53868
1.41693
1.30135
1.18894
1.08065
0.973502
0.869494
0.766736
0.666676
0.566873
0.466978
0.365549
0.262105
0.156101
0.0492771
-0.425492
-0.0576704
0.760476
1.12356
1.21482
1.42537
1.67319
1.74316
1.6901
1.61881
1.56268
1.43987
1.33014
1.19785
1.1318
1.08216
1.04774
1.03302
1.01367
0.859569
0.684751
0.43529
0.0842031
-0.481064
-0.923345
-1.26875
-1.59916
-1.95399
-2.31497
-2.71732
-3.12707
-3.52444
-3.82629
-4.00871
-4.08694
-3.99774
-3.81348
-3.64731
-3.48867
-3.33634
-3.07037
-2.75063
-2.30957
-1.67779
-1.12678
-0.557585
-0.000549183
0.44839
0.747961
0.875332
0.946297
0.977636
1.05997
1.18065
1.36401
1.55368
1.78218
2.01069
2.24113
2.42463
2.5759
2.69727
2.80319
2.86032
2.87242
2.85109
2.81535
2.7826
2.75843
2.74088
2.72535
2.70667
2.67905
2.64391