/*--------------------------------*- C++ -*----------------------------------*\
| =========                 |                                                 |
| \\      /  F ield         | OpenFOAM: The Open Source CFD Toolbox           |
|  \\    /   O peration     | Version:  4.1                                   |
|   \\  /    A nd           | Web:      www.OpenFOAM.org                      |
|    \\/     M anipulation  |                                                 |
\*---------------------------------------------------------------------------*/
FoamFile
{
    version     2.0;
    format      ascii;
    class       surfaceScalarField;
    location    "8";
    object      phi;
}
// * * * * * * * * * * * * * * * * * * * * * * * * * * * * * * * * * * * * * //

dimensions      [0 3 -1 0 0 0 0];

internalField   nonuniform List<scalar> 
52920
(
1776.87
-82.6821
1845.41
-70.211
1913.04
-66.4933
1979.23
-66.0246
2047.72
-66.1964
2119.23
-68.302
2191.22
-69.908
2266.02
-72.2995
2339.78
-74.9557
2420.81
-78.5265
2499.68
-84.8245
2593.28
-92.4551
2688.51
-98.4749
2784.01
-99.5307
2876.71
-96.848
2966.62
-92.3849
3050.2
-88.3793
3134.88
-85.7725
3216.82
-85.5469
3301.45
-86.3653
3386.54
-87.44
3471.57
-87.9036
3556.85
-87.3228
3640.43
-86.1919
3723.68
-84.7653
3805.22
-83.2049
3886.42
-81.6407
3965.61
-79.6787
4043.78
-77.0265
4116.67
-73.0709
4186.94
-68.3909
4251.07
-63.4344
4312.51
-58.5145
4368.93
-53.8128
4423.07
-49.7836
4473.58
-46.6192
4522.89
-43.9882
4569.36
-41.0902
4613.54
-37.7838
4654.55
-34.9505
4694.84
-33.4028
4735.29
-33.5593
4778.18
-35.5656
4824.39
-39.4248
4876.42
-44.9472
4935.45
-51.2135
5002.25
-57.398
5072.69
-63.7698
5153.61
-70.5468
5234.1
-76.373
5326.67
-82.1602
5416.02
-86.988
5517.92
-91.745
5614.11
-95.4704
5721.3
-98.9748
5821.38
-101.304
5931.87
-103.154
6034.65
-104.532
6145.92
-106.044
6250.59
-107.375
6362.91
-108.458
6469.39
-108.831
6580
-108.733
6685.19
-107.591
6792.6
-106.409
6895.63
-105.245
7000.32
-104.433
7101.77
-103.698
7204.67
-103.069
7304.84
-102.189
7405.29
-101.086
7503.07
-99.638
7600.23
-98.0134
7694.93
-96.2722
7788.52
-94.5923
7880.23
-93.0512
7970.91
-91.7067
8060.37
-90.5662
8148.96
-89.6003
8236.85
-88.8075
8324.04
-88.1484
8410.92
-87.6317
8497.24
-87.1937
8583.46
-86.8244
8669.13
-86.4485
8754.73
-86.0762
8839.72
-85.6642
8924.62
-85.2624
9008.91
-84.8588
9093.16
-84.5101
9176.9
-84.2008
9260.68
-83.9658
9344.09
-83.7831
9427.64
-83.657
9510.92
-83.5631
9594.37
-83.4935
9677.67
-83.4871
9760.65
-82.9779
9848.17
-87.6367
-87.0564
1913.42
-175.781
1989.58
-149.505
2065.06
-142.544
2139.36
-142.541
2218.4
-144.442
2301.19
-149.065
2385.4
-153.017
2472.85
-158.99
2559.53
-164.585
2655
-173.31
2748.17
-185.92
2857.9
-201.517
2968.21
-212.383
3077.76
-213.539
3183.06
-206.981
3284.75
-197.424
3379.4
-189.131
3475.84
-184.588
3569.93
-184.626
3667.74
-187.205
3766.28
-189.419
3864.86
-190.268
3963.85
-189.024
4061.51
-186.862
4159.4
-184.295
4256.18
-181.55
4353.12
-178.727
4448.52
-175.194
4543.25
-170.105
4632.96
-162.402
4720.29
-153.219
4801.77
-143.419
4881.01
-133.997
4955.82
-125.086
5028.93
-117.529
5098.88
-111.409
5167.83
-106.015
5233.91
-99.9011
5297.33
-92.9162
5356.85
-86.5388
5414.33
-82.3321
5470.07
-80.9177
5525.78
-82.6701
5581.75
-87.558
5639.91
-95.1428
5700.87
-103.499
5765
-110.898
5828.55
-119.383
5897.67
-127.949
5962.22
-135.511
6033.97
-142.163
6098.64
-148.128
6171.51
-153.197
6235.47
-157.737
6307.16
-161.395
6369.5
-164.171
6440.04
-165.55
6501.31
-167.056
6569.42
-168.161
6629.47
-169.533
6695.71
-169.809
6754.96
-169.726
6817.76
-168.723
6875.05
-167.052
6935.23
-165.398
6992.13
-164.67
7052.31
-164.537
7110.98
-165.147
7173.12
-165.728
7234.43
-166.141
7298.04
-165.843
7360.84
-164.986
7424.91
-163.549
7488.25
-161.869
7552.13
-160.147
7615.64
-158.582
7679.52
-157.296
7743.44
-156.246
7807.63
-155.451
7872.09
-154.787
7936.67
-154.289
8001.59
-153.839
8066.42
-153.446
8131.48
-152.96
8196.13
-152.372
8260.76
-151.57
8324.6
-150.6
8388.09
-149.436
8450.49
-148.18
8512.29
-146.837
8572.83
-145.497
8632.63
-144.147
8691.11
-142.846
8748.75
-141.559
8805.03
-140.272
8860.45
-139.042
8914.44
-137.75
8967.04
-135.615
9015.81
-136.555
-144.658
2069.24
-276.193
2157.95
-239.257
2247.5
-230.093
2336.72
-230.802
2430.4
-235.343
2527.4
-242.47
2625.45
-248.683
2726.05
-256.505
2825.41
-264.331
2931.92
-276.662
3035.49
-294.171
3152.58
-317.149
3268.85
-331.381
3383.32
-331.341
3493.26
-320.292
3599.63
-305.524
3699.75
-293.014
3801.84
-287.007
3902.25
-287.65
4006.4
-292.254
4111.48
-296.104
4216.75
-297.63
4322.41
-296.159
4426.82
-293.331
4531.17
-289.832
4634.04
-285.845
4736.34
-281.421
4836.36
-275.747
4934.74
-267.559
5027.37
-255.337
5116.42
-240.73
5198.55
-225.171
5276.85
-209.867
5348.86
-195.039
5416.51
-181.48
5477.77
-169.481
5534.13
-157.892
5583.17
-144.481
5624.27
-128.538
5655.33
-112.346
5677.52
-98.2712
5690.85
-87.8237
5696.86
-81.5445
5695.66
-79.5228
5689.22
-81.2894
5678.74
-84.6313
5664.72
-86.283
5643.27
-90.451
5621.45
-93.5309
5588.24
-97.5944
5557.39
-97.4932
5512.82
-100.841
5473.37
-98.9723
5419.15
-103.062
5371.77
-100.928
5310.63
-105.743
5258.87
-100.951
5193.77
-105.814
5136.67
-101.118
5067.22
-106.105
5005.29
-100.012
4933.35
-103.435
4867.78
-99.0985
4796.84
-101.85
4733.91
-100.337
4671.03
-106.946
4618.71
-111.553
4570.78
-122.263
4535.21
-130.364
4506.23
-141.532
4488.79
-149.593
4478.54
-158.611
4478.54
-165.214
4485.78
-172.281
4501.86
-178.166
4525.06
-184.402
4555.99
-190.207
4593.7
-196.065
4637.94
-201.602
4688.14
-206.701
4743.45
-211.381
4803.57
-215.327
4867.26
-218.752
4934.4
-221.182
5003.52
-222.924
5074.61
-223.505
5146.15
-223.364
5218.24
-222.155
5289.44
-220.41
5360.01
-217.858
5428.67
-214.995
5495.78
-211.56
5560.23
-207.956
5622.44
-203.948
5681.43
-199.755
5737.66
-195.34
5790.11
-190.535
5840.09
-185.582
5878
-174.669
-182.17
2221.26
-381.699
2319.63
-340.436
2418.64
-329.775
2516.23
-330.66
2616.26
-334.986
2717.49
-342.119
2817.67
-348.124
2918
-356.376
3014.63
-363.804
3114.8
-376.49
3208.86
-395.592
3312.69
-420.732
3414.34
-436.808
3514.51
-435.696
3611.63
-422.151
3706.7
-404.013
3796.67
-388.831
3888.46
-381.435
3978.09
-382.293
4070.85
-388.289
4164.59
-393.566
4258.91
-395.894
4353.88
-394.162
4447.59
-390.258
4540.82
-385.028
4632
-378.864
4721.9
-371.748
4808.99
-363.137
4894.02
-351.039
4972.77
-333.676
5047.12
-312.437
5113.48
-289.783
5174.93
-267.151
5228.6
-244.672
5275.83
-222.558
5313.85
-201.407
5343.73
-179.365
5362.35
-153.928
5368.25
-123.762
5358.26
-91.7924
5333.11
-61.5669
5292.85
-35.9406
5239.56
-16.0974
5173.58
-2.13947
5097.61
6.50298
5014.92
11.2473
4926.28
18.474
4826.27
22.128
4724.44
27.2263
4606.21
29.9005
4490.54
38.6085
4354.09
42.1786
4224.95
51.7463
4072.49
52.6657
3931.64
59.0155
3768.59
55.7773
3624.07
61.885
3457.69
56.6795
3308.99
62.0751
3141.05
55.0021
2993.53
60.549
2832.34
52.2368
2690.14
51.1802
2541.84
39.7555
2412.15
32.2788
2282.68
14.4402
2172.61
-2.03303
2069.11
-27.4641
1987.84
-51.3186
1917.84
-79.6037
1868.61
-104.201
1831.88
-129.387
1813.01
-150.873
1806.19
-171.951
1813.9
-190.697
1832.74
-208.871
1863.51
-225.674
1904.3
-241.604
1954.63
-256.299
2013.49
-269.54
2079.61
-281.432
2152.57
-291.576
2230.63
-300.247
2313.67
-306.892
2399.65
-311.874
2488.7
-314.698
2578.73
-315.885
2670.05
-315.157
2760.74
-313.152
2851.27
-309.69
2939.98
-305.335
3027.4
-299.919
3112.06
-293.855
3194.48
-287.001
3273.42
-279.579
3349.31
-271.577
3420.95
-262.737
3489.85
-254.61
3550.67
-235.767
-231.052
2338.77
-487.016
2437.02
-439.192
2532.8
-423.033
2624.2
-420.644
2714.75
-422.642
2803.01
-426.726
2886.22
-428.869
2964.97
-431.847
3034.74
-433.77
3101.33
-439.62
3154.83
-453.702
3212.66
-476.942
3266.76
-493.818
3321.53
-493.922
3377.46
-481.641
3435.4
-463.7
3490.88
-448.21
3549.34
-440.114
3606.01
-441.66
3667.03
-450.148
3731.63
-459.863
3800.5
-466.959
3873.92
-469.196
3949.65
-468.292
4028.08
-464.879
4107.25
-459.754
4187.89
-452.991
4268.51
-444.524
4349.94
-431.594
4427.27
-411.549
4501.92
-385.511
4569.82
-357.438
4634.41
-329.136
4692.43
-300.529
4745
-271.004
4788.97
-241.846
4824.05
-209.404
4845.42
-170.306
4852.02
-124.146
4840.72
-74.438
4812.29
-25.7248
4767.23
16.9269
4708.43
51.6358
4635.88
79.1941
4552.28
99.9036
4461.79
113.139
4368.22
126.047
4264.64
135.888
4162.62
146.254
4045.61
153.708
3936.32
166.917
3807.16
175.832
3691.26
188.209
3553.18
192.19
3432.18
198.339
3288.74
196.319
3168.76
200.093
3024.44
196.211
2902.16
198.781
2756.48
191.907
2636.55
192.948
2495.72
183.5
2371.45
181.684
2230.68
170.063
2106.47
159.04
1974.86
136.584
1858.96
114.01
1741.51
80.6126
1643.32
45.5879
1551.18
4.23215
1478.62
-34.5845
1415.61
-73.8756
1369.87
-108.837
1334.14
-142.485
1312.11
-172.766
1299.64
-201.654
1298.25
-228.335
1305.91
-253.524
1322.59
-276.79
1347.53
-297.954
1379.76
-317.148
1419.32
-333.909
1464.54
-348.561
1515.79
-360.346
1570.98
-369.766
1630.7
-376.12
1692.71
-380.167
1757.76
-381.479
1823.73
-381.002
1891.5
-378.394
1959.18
-374.502
2027.6
-368.979
2095.07
-362.479
2162.35
-354.669
2227.97
-346.043
2292.52
-336.303
2354.79
-325.563
2415.87
-315.711
2474
-294.202
-281.568
2381.06
-576.942
2462.73
-523.398
2539.06
-499.65
2608.39
-491.823
2673.03
-486.652
2730.03
-481.766
2775.07
-473.01
2807.68
-463.719
2822.21
-451.549
2823.2
-440.405
2800.08
-439.512
2775.43
-452.611
2747.51
-471.245
2727.32
-479.485
2718.52
-479.475
2721.77
-472.028
2730.49
-464.922
2749
-462.755
2771
-470.732
2803.49
-487.58
2846.31
-508.226
2900.81
-527.189
2967.29
-540.35
3042.46
-548.3
3125.68
-551.391
3213.97
-551.079
3307.7
-547.932
3405.15
-542.875
3507.05
-532.003
3607.69
-511.927
3708.26
-483.008
3803.03
-450.042
3894.35
-415.293
3978.45
-379.531
4057.49
-342.231
4127
-303.558
4187.35
-259.074
4235.4
-206.436
4268.39
-143.281
4281.83
-74.0383
4276.67
-5.61553
4252.83
55.7378
4212.19
107.783
4155.03
150.921
4085.28
184.622
4007.58
206.988
3927.82
224.71
3840.34
238.185
3755.6
252.315
3656.44
263.795
3566.37
279.28
3459.72
290.254
3368.27
302.257
3258.02
306.37
3163.34
312.339
3045.26
313.354
2945.05
317.953
2820.84
316.552
2714.81
318.33
2587.86
311.56
2487.61
305.903
2371.51
292.716
2271.61
290.814
2149.55
284.386
2037.78
274.047
1915.25
249.055
1805.94
221.7
1692.05
183.059
1594.69
139.031
1500.65
87.1505
1424.27
35.7488
1355.2
-15.5501
1301.57
-62.2599
1255.48
-106.1
1220.87
-145.706
1193.2
-182.701
1174.34
-216.938
1162.27
-249.065
1157.36
-278.917
1159.13
-306.259
1166.94
-331.331
1181.21
-353.661
1200.51
-373.475
1225.65
-389.991
1254.6
-403.578
1288.39
-413.573
1324.77
-420.649
1364.89
-424.513
1406.58
-426.084
1451.09
-425.162
1496.44
-422.549
1543.84
-418.034
1591.52
-412.209
1640.57
-404.84
1689.51
-396.421
1739.21
-386.651
1788.66
-375.927
1838.41
-365.74
1889.83
-346.054
-331.222
2307.73
-644.316
2366.67
-582.427
2416.29
-546.305
2453.07
-526.766
2477.79
-507.861
2486.26
-485.644
2472.98
-456.483
2437.69
-423.95
2374.82
-388.77
2290.08
-350.454
2173.53
-329.276
2058.79
-335.075
1951.73
-367.875
1869.82
-402.326
1817.42
-431.745
1792.36
-449.017
1783.78
-461.493
1794.88
-473.538
1816.1
-495.228
1854.27
-526.344
1907.48
-563.26
1976.09
-598.38
2059.7
-625.74
2153.62
-644.956
2256.35
-655.732
2364.51
-661.233
2478.73
-662.826
2596.74
-661.782
2719.47
-653.643
2841.25
-634.432
2963.12
-603.019
3077.99
-564.77
3189.51
-523.808
3294.72
-482.349
3396.19
-439.022
3491.12
-394.65
3581.4
-344.082
3661.9
-282.062
3728.06
-203.51
3774.04
-114.48
3800.72
-25.4215
3808.26
55.3909
3798.54
125.786
3771.35
186.198
3729.25
235.811
3676.16
270.547
3620.09
293.853
3557.47
310.011
3497.17
328.267
3420.96
345.852
3351.18
366.403
3261.86
383.359
3183.1
399.63
3084.8
405.689
3002.48
411.132
2899.14
413.878
2811.68
421.361
2699.3
424.6
2601.7
428.265
2481.38
424.08
2380.15
417.453
2262.93
400.523
2168.74
390.467
2056.21
385.238
1954.58
377.552
1843.08
350.916
1746.69
318.011
1646.78
273.691
1562.98
221.467
1481.27
160.621
1415.15
98.8516
1353.94
38.0742
1305.56
-17.7449
1262.08
-69.1712
1227.62
-115.648
1197.79
-158.566
1174.8
-198.44
1156.85
-235.93
1144.58
-271.023
1137.69
-303.453
1135.75
-333.495
1139.39
-360.704
1147.33
-385.158
1160.62
-406.055
1177.3
-423.59
1198.65
-437.139
1222.39
-447.242
1249.93
-453.749
1279.01
-457.531
1311.14
-458.55
1344.28
-457.572
1379.89
-454.524
1416.19
-449.961
1454.51
-443.726
1493.37
-436.326
1533.92
-427.472
1575.19
-417.88
1617.49
-408.104
1664.1
-393.006
-378.855
2145.57
-681.791
2171.16
-610.406
2180.92
-555.686
2170.55
-517.692
2142.29
-478.08
2093.05
-432.913
2017.75
-379.318
1918.57
-323.086
1792.01
-267.264
1649.6
-207.531
1483.67
-178.44
1342.61
-194.594
1230.69
-264.709
1161.4
-343.289
1131.43
-412.996
1132.54
-458.926
1149.4
-491.328
1186.06
-517.049
1230.09
-550.286
1288.93
-592.915
1359.29
-642.067
1441.14
-688.848
1534.34
-725.997
1634.6
-752.463
1741.57
-767.88
1852.18
-776.519
1967.51
-780.438
2085.74
-781.702
2208.78
-775.319
2330.85
-756.583
2454.02
-722.773
2571.69
-680.011
2688.18
-634.256
2799.87
-588.079
2909.65
-539.599
3014.68
-490.573
3118.08
-435.283
3215.24
-365.489
3300.96
-273.268
3367.23
-164.835
3414.17
-55.3391
3442.91
43.5519
3455.85
130.124
3452.04
206.194
3433.07
271.149
3401.11
319.884
3363.21
351.451
3318.41
370.442
3276.22
392.24
3216.36
417.23
3160.24
444.822
3082.91
468.931
3013.09
491.541
2920.47
502.536
2842.37
508.064
2747.27
508.344
2670.26
515.154
2568.73
522.646
2479.35
529.902
2367.2
529.384
2271.73
523.783
2159.1
506.284
2070.46
487.222
1972.38
475.383
1889.06
464.485
1795.9
434.484
1716.93
395.182
1633.93
345.456
1564.58
286.536
1495.15
218.905
1438.25
149.321
1383.9
81.4756
1339.88
18.7859
1299.02
-38.4284
1265.62
-90.3308
1235.78
-138.03
1211.85
-182.609
1192.18
-224.563
1177.44
-264.004
1167.32
-300.602
1161.46
-334.703
1160.51
-365.934
1163.32
-394.231
1171
-418.868
1181.76
-439.812
1196.93
-456.523
1214.34
-469.314
1235.4
-478.207
1257.91
-483.92
1283.33
-486.636
1309.64
-486.997
1338.28
-485.144
1367.47
-481.522
1398.53
-476.154
1430
-469.476
1463.09
-461.348
1496.79
-452.653
1531.65
-443.312
1569.86
-431.715
-419.269
1888.42
-678.1
1867.2
-589.201
1830.49
-514.821
1776.21
-460.945
1710.08
-406.756
1630.39
-345.723
1531.71
-275.033
1418.77
-202.526
1289.28
-138.066
1163.24
-72.6072
1030.47
-55.8231
943.91
-103.238
889.391
-214.756
869.688
-330.275
877.109
-426.36
903.892
-488.137
936.321
-530.098
982.5
-562.259
1030.09
-601.479
1088.35
-651.373
1153.83
-709.279
1227.34
-765.074
1310.2
-810.609
1398.99
-844.27
1494.01
-864.622
1592.32
-877.027
1695.54
-884.429
1802.19
-889.354
1914.27
-886.186
2025.73
-869.028
2139.63
-834.719
2249.44
-789.851
2359.81
-741.415
2466.81
-692.654
2573.56
-641.388
2676.65
-589.702
2780.52
-533.675
2880.77
-461.041
2972.77
-359.784
3047.81
-235.01
3103.99
-105.351
3142.21
11.8095
3166.43
113.537
3175.96
204.16
3171.91
283.697
3155.16
346.536
3130.46
388.277
3097.48
411.726
3067.37
436.997
3019.32
470.217
2973.93
506.423
2907.14
538.831
2847.11
568.938
2763.37
586.834
2691.26
595.648
2602.26
594.374
2534.32
598.068
2443.97
608.797
2363.59
621.656
2260.56
625.232
2173.78
619.705
2071.78
599.577
1991.51
571.768
1906.29
548.916
1838.67
533.512
1760.55
503.702
1694.14
461.734
1622
409.421
1560.82
346.892
1497.79
274.835
1445.12
199.744
1393.68
126.456
1351.2
58.2543
1311.16
-3.9221
1277.88
-60.583
1247.7
-112.645
1222.87
-161.46
1201.68
-207.412
1184.69
-250.668
1171.58
-290.94
1162.08
-328.704
1156.88
-363.632
1155.01
-395.617
1157.69
-423.938
1163.35
-448.422
1173.38
-468.481
1185.77
-484.261
1201.89
-495.801
1219.55
-503.733
1240.12
-508.303
1261.53
-510.13
1285.06
-509.439
1308.89
-506.709
1334.3
-502.048
1359.81
-495.97
1386.65
-488.415
1413.81
-480.47
1442.17
-471.713
1472.04
-461.893
-451.83
1530.58
-618.75
1471.42
-532.902
1418.16
-460.136
1361.9
-405.564
1305.65
-347.164
1245.68
-278.824
1173.72
-198.919
1095.24
-120.902
1006.15
-56.6345
929.923
4.38677
847.614
5.99769
807.487
-63.7438
785.597
-203.235
785.268
-343.306
802.625
-457.718
832.915
-529.908
864.225
-577.482
906.162
-613.232
946.756
-655.752
996.39
-710.824
1051.63
-775.078
1113.51
-837.631
1183.91
-889.862
1259.72
-929.195
1341.66
-953.363
1427.06
-968.485
1517.73
-978.437
1612.14
-986.204
1712.37
-985.421
1812.38
-969.586
1915.42
-934.341
2015.05
-887.001
2116.52
-836.387
2215.4
-785.085
2315.06
-730.913
2411.93
-676.433
2511.32
-619.267
2609.13
-543.313
2701.66
-434.264
2780.44
-295.829
2841.78
-147.589
2884.83
-12.3037
2914.52
103.195
2931.64
205.247
2937.29
296.43
2932.02
370.859
2918.61
422.769
2894.52
452.644
2872.95
481.486
2834.79
520.881
2799.29
564.947
2742.32
604.839
2692.01
641.472
2618.16
665.41
2553.73
678.8
2469.85
678.153
2407.26
677.356
2325.89
687.249
2254.93
704.482
2162.26
711.659
2086.37
705.653
1996.64
682.816
1926.36
649.19
1850.78
617.176
1791.02
597.215
1720.51
565.622
1659.8
520.932
1592.21
466.365
1534.02
400.912
1473.12
324.916
1421.72
244.785
1371.16
166.25
1329.15
92.8069
1289.39
25.8133
1256.04
-35.2964
1225.4
-91.2765
1199.48
-143.627
1176.41
-192.654
1156.73
-238.701
1140.18
-281.672
1126.71
-322.281
1117.16
-360.251
1110.78
-395.465
1108.93
-427.212
1110.25
-455.186
1116.22
-478.662
1124.9
-497.591
1137.61
-511.925
1152.13
-522.166
1169.68
-528.557
1188.07
-531.687
1208.47
-531.88
1228.99
-529.67
1250.85
-525.328
1272.58
-519.448
1295.47
-512.145
1318.48
-504.604
1342.77
-496.391
1367.62
-487.253
-479.652
1131.98
-567.75
1099.46
-499.802
1080.94
-435.613
1058.8
-379.893
1035.37
-315.943
1007.56
-239.285
966.281
-149.05
918.433
-62.4545
858.662
3.32396
810.66
63.7878
749.955
56.7286
724.087
-31.5104
710.483
-192.674
715.228
-353.845
735.92
-482.904
767.566
-562.597
798.201
-613.049
837.513
-649.908
873.681
-694.019
917.624
-753.445
965.61
-823.475
1018.71
-892.367
1079.48
-951.4
1145.27
-997.195
1217.06
-1026.18
1292.44
-1045.5
1373.43
-1059.8
1458.49
-1071.97
1549.41
-1074.87
1640.13
-1061.24
1734.21
-1026.32
1825.39
-978.291
1919.34
-927.015
2010.96
-874.281
2103.59
-818.424
2193.93
-762.797
2287.49
-707.059
2380.79
-632.096
2470.72
-519.169
2549.84
-370.858
2613.97
-206.413
2660
-52.7606
2692.18
77.8022
2713.36
190.718
2725.4
292.017
2728.66
376.483
2724.26
438.441
2707.17
477.122
2692.04
510.381
2661.93
554.987
2635.47
606.65
2587.96
654.718
2546.91
698.823
2482.22
730.109
2426.24
749.307
2348.44
752.728
2289.8
750.208
2215.46
757.3
2153.77
776.997
2071.62
786.938
2006.14
779.804
1926.45
754.206
1864.01
715.588
1794.08
675.89
1737.62
654.911
1670.2
624.26
1611.64
579.852
1545.7
524.511
1488.85
457.382
1429.16
377.976
1379.03
293.219
1329.77
209.582
1289.06
131.068
1250.42
59.4388
1217.88
-5.74646
1187.45
-65.1429
1161
-120.363
1136.54
-171.802
1114.72
-220.116
1095.47
-265.509
1078.99
-308.956
1066.25
-350.119
1056.69
-388.886
1051.82
-424.482
1050.39
-456.491
1053.97
-483.947
1060.6
-506.598
1071.59
-524.204
1084.57
-537.153
1100.66
-545.587
1117.5
-550.144
1136.18
-551.209
1154.75
-549.503
1174.44
-545.416
1193.8
-539.753
1214.22
-532.734
1234.68
-525.694
1256.46
-518.173
1278.58
-509.675
-504.765
917.65
-530.695
899.007
-484.884
894.116
-428.403
883.635
-370.134
871.56
-298.802
856.221
-213.638
828.295
-114.791
795.618
-25.9648
751.403
38.8014
716.826
99.1419
663.928
88.1742
642.725
-10.574
634.273
-194.368
645.059
-379.076
671.3
-523.981
706.414
-610.252
738.186
-661.992
776.213
-698.001
809.01
-741.583
847.993
-803.234
889.274
-876.319
934.45
-949.102
986.996
-1013.61
1044.61
-1064.85
1108.36
-1097.68
1175.91
-1119.89
1249.39
-1137.29
1327.4
-1152.86
1411.26
-1158.07
1494.49
-1145.44
1580.85
-1109.48
1664.35
-1059.42
1751.14
-1007.21
1836.13
-952.719
1922.31
-894.037
2006.33
-836.123
2093.3
-779.015
2182.04
-703.843
2268.7
-586.268
2346.46
-429.342
2411.89
-251.502
2460.03
-80.7762
2493.54
64.921
2516.84
186.995
2533.21
295.448
2542.47
387.688
2544.87
458.339
2534.38
505.689
2525.05
543.931
2501.09
592.578
2482.24
649.527
2443.3
703.676
2410.78
754.025
2354.47
791.801
2306.51
816.156
2235.69
824.042
2182
820.694
2113.64
823.331
2059.92
842.641
1986.82
854.303
1929.22
847.304
1856.08
821.11
1797.99
780.64
1730.36
736.377
1675.65
714.02
1610.37
681.444
1553.79
635.257
1490.04
577.666
1435.55
507.726
1378.3
424.208
1330.76
334.234
1284.07
245.153
1245.91
161.498
1209.47
85.4343
1178.64
16.6604
1149.16
-45.3759
1122.86
-102.555
1097.74
-155.433
1074.69
-205.166
1053.79
-252.29
1035.44
-297.969
1020.68
-341.817
1009.06
-383.731
1002.24
-422.977
999.11
-458.982
1001.32
-490.505
1006.9
-516.976
1017.08
-537.916
1029.37
-553.484
1044.73
-563.753
1060.67
-569.37
1078.24
-570.91
1095.46
-569.268
1113.62
-565.088
1131.38
-559.345
1150.2
-552.454
1169.09
-545.775
1189.37
-538.882
1210.06
-530.911
-528.402
769.059
-503.598
758.729
-473.261
759.921
-421.751
753.859
-359.685
747.201
-282.26
739.724
-190.922
721.638
-85.9079
700.492
7.66709
666.59
73.6954
638.677
140.21
587.526
130.223
569.103
15.5563
567.404
-194.265
586.3
-402.867
618.995
-559.848
657.455
-648.489
689.82
-697.907
725.879
-730.008
754.516
-770.983
787.684
-833.786
821.598
-909.465
858.95
-987.027
904.219
-1058.67
955.195
-1117.21
1012.71
-1155.52
1074.34
-1182.55
1142.09
-1205.05
1214.6
-1225.77
1292.9
-1234.73
1370.03
-1223.48
1450.04
-1187.34
1526.97
-1136.51
1607.23
-1084.1
1686.2
-1029.36
1766.91
-969.61
1845.46
-910.786
1926.34
-854.05
2010.89
-783.792
2093.19
-663.917
2167.42
-500.283
2231.65
-311.325
2280.46
-124.992
2314.52
36.7794
2338.5
168.894
2357.51
283.412
2370.96
382.533
2378.48
461.289
2373.92
516.673
2370.34
560.321
2352.05
613.856
2339.6
676.235
2307.83
737.025
2282.56
794.606
2233.68
840.095
2192.88
870.62
2129.55
883.773
2082.14
881.552
2019.23
881.705
1971.75
900.506
1904.93
914.292
1851.99
908.719
1782.45
882.502
1726.94
840.105
1660.74
791.49
1609.41
766.447
1548.04
733.647
1494.73
689.013
1433.99
630.655
1382.7
558.953
1328.59
471.913
1284.29
377.242
1240.67
283.123
1205.4
194.742
1171.35
114.757
1142.34
43.0369
1113.86
-20.9531
1087.89
-79.4705
1062.45
-133.4
1038.71
-184.426
1016.83
-233.331
997.227
-281.342
980.98
-328.012
967.807
-373.386
959.617
-416.772
955.46
-457.416
957.048
-493.641
962.356
-524.52
972.515
-549.213
984.834
-567.671
1000.12
-579.847
1015.79
-586.542
1032.87
-588.524
1049.44
-587.012
1066.89
-582.86
1083.97
-577.298
1102.2
-570.802
1120.56
-564.742
1140.27
-558.572
1160.25
-551.179
-550.761
672.066
-488.609
667.017
-472.752
669.833
-421.752
663.81
-354.398
658.446
-270.541
654.744
-174.111
642.87
-65.9027
628.918
25.9686
599.918
93.2905
572.663
168.605
520.307
160.548
506.143
30.0711
514.11
-212.044
542.321
-446.391
580.867
-613.854
621.315
-702.255
652.753
-747.35
685.172
-773.408
708.232
-809.726
734.46
-871.789
760.424
-947.934
790.295
-1029.16
829.403
-1108.1
875.226
-1173.87
927.995
-1216.87
985.017
-1247.09
1048.09
-1272.74
1115.77
-1296.76
1189.2
-1307.86
1261.24
-1296.95
1336.24
-1259.48
1407.63
-1205.68
1481.82
-1151.73
1555.1
-1096.1
1630.7
-1034.36
1703.92
-972.871
1778.8
-912.986
1858.99
-845.051
1936.64
-720.296
2006.67
-549.675
2068.46
-351.517
2117.2
-152.407
2151.34
24.6335
2175.15
166.287
2195.73
284.516
2212.12
388.277
2223.46
473.877
2224.15
535.388
2226.58
583.538
2213.93
641.351
2207.18
708.157
2181.51
773.813
2162.49
836.978
2120.25
888.501
2086.08
924.05
2030.17
940.838
1988.51
940.233
1930.06
938.396
1887.73
955.006
1825.32
971.423
1775.13
968.905
1708.11
943.491
1654.97
900.297
1590.35
849
1542.73
818.841
1485.51
783.086
1435.91
737.751
1378.75
677.272
1330.85
602.766
1279.87
511.672
1238.56
411.865
1197.7
312.491
1164.99
219.41
1133.05
135.777
1105.67
61.5815
1078.17
-3.71068
1052.73
-62.9825
1027.45
-117.407
1003.63
-169.173
981.363
-219.185
960.98
-268.682
943.708
-317.501
929.609
-366.003
920.889
-413.565
916.715
-459.037
918.756
-500.171
924.854
-535.553
935.953
-563.953
949.164
-585.034
965.149
-598.748
981.29
-606.064
998.643
-608.114
1015.39
-606.403
1033.04
-602.1
1050.37
-596.542
1068.86
-590.254
1087.31
-584.429
1106.73
-578.45
1125.84
-570.85
-571.676
605.656
-477.848
603.676
-467.976
606.52
-415.3
598.78
-341.355
592.794
-252.781
590.646
-153.588
582.234
-44.872
571.845
50.49
542.963
123.783
513.392
213.154
460.875
204.789
455.008
44.9876
474.935
-231.906
511.788
-486.685
554.108
-657.588
594.402
-740.709
622.988
-777.772
650.224
-794.907
666.927
-825.581
686.047
-886.727
704.47
-964.166
727.901
-1051.87
762.348
-1141.19
804.497
-1216.31
853.619
-1265.36
906.69
-1300.35
965.474
-1330.91
1028.71
-1359.88
1097.83
-1374.94
1165.81
-1365.53
1236.93
-1328.21
1303.69
-1272.46
1372.94
-1217.45
1441.5
-1162.25
1512.46
-1100.03
1580.86
-1037.36
1650.47
-976.805
1726.16
-915.997
1798.43
-788.123
1863.09
-611.641
1921.04
-405.771
1968.21
-195.812
2001.63
-3.74876
2024.81
148.084
2045.71
269.704
2063.67
377.608
2078.15
469.161
2083.69
535.267
2091.91
587.151
2084.85
650.269
2083.39
722.805
2063
794.894
2049.34
864.963
2013.14
923.437
1985.19
964.82
1935.79
986.161
1898.9
989.8
1844.11
988.264
1805.21
1003.84
1745.86
1023.84
1698.52
1024.53
1634.4
999.5
1584.21
954.452
1522.87
899.349
1479.16
863.325
1425.14
827.491
1379.4
783.907
1325.65
723.303
1280.75
647.846
1232.3
553.908
1193.39
449.853
1154.69
345.778
1124.06
248.385
1093.82
161.491
1067.87
85.2091
1041.4
18.8771
1016.8
-41.0346
992.17
-96.0378
968.802
-148.616
946.531
-199.7
925.74
-250.716
908.036
-302.091
893.953
-354.593
885.897
-407.326
882.941
-458.504
886.578
-505.175
894.453
-545.487
907.323
-577.78
922.121
-601.523
939.425
-616.699
956.647
-624.631
974.918
-626.796
992.523
-625.069
1010.99
-620.799
1029.04
-615.389
1047.93
-609.214
1066.21
-603.267
1084.71
-596.91
1101.95
-588.348
-590.273
556.606
-484.697
559.341
-475.885
561.687
-414.437
551.376
-331.83
543.407
-237.608
541.152
-136.077
534.434
-28.5021
525.192
64.9997
493.999
145.002
461.379
247.939
411.874
232.368
417.39
40.7302
449.045
-272.595
492.098
-545.25
535.555
-716.495
573.692
-792.272
597.895
-820.172
619.013
-827.309
629.535
-852.158
642.071
-911.535
653.691
-988.718
671.742
-1082.35
702.767
-1182.68
742.115
-1266.8
787.915
-1320.1
837.008
-1357.22
891.586
-1390.43
950.835
-1422.65
1016.33
-1440.39
1080.96
-1431.97
1148.79
-1393.53
1211.41
-1333
1276.33
-1275.9
1340.63
-1220.12
1407.18
-1155.62
1470.83
-1089.63
1535.51
-1024.79
1606.58
-966.032
1673.61
-832.522
1733.17
-649.742
1786.76
-437.179
1831.22
-218.438
1863.94
-13.8492
1886.61
147.58
1906.32
272.866
1924.32
383.097
1941.44
477.395
1951.59
545.939
1965.36
600.61
1963.54
668.21
1967.15
745.573
1951.75
822.563
1943.19
897.623
1912.61
961.01
1890.18
1007
1846.02
1032.14
1813.46
1039.66
1762.17
1038.37
1725.36
1053.1
1668.74
1075.58
1624.91
1078.53
1564.41
1054.22
1517.57
1008.42
1459.77
950.163
1419.25
908.73
1367.67
871.443
1324.83
826.121
1273.78
763.86
1231.2
686.389
1184.63
589.058
1147.46
480.184
1110.38
370.964
1081.42
269
1052.7
178.775
1028.19
100.459
1003.06
33.1966
979.814
-27.2317
956.397
-82.4595
933.909
-135.144
911.955
-186.31
891.275
-238.093
874.095
-291.953
861.346
-348.771
855.293
-406.949
854.675
-463.807
860.774
-515.862
871.102
-560.832
886.262
-596.667
903.085
-622.566
922.101
-638.718
940.803
-646.777
960.351
-648.661
979.076
-646.483
998.392
-641.765
1016.86
-635.786
1035.44
-628.778
1052.5
-621.554
1068.93
-613.787
1083.33
-603.289
-606.496
526.136
-494.273
528.199
-473.72
526.764
-402.161
511.283
-310.055
499.948
-212.865
497.323
-112.66
491.743
-8.81119
482.418
90.4157
447.419
182.583
413.775
298.793
371.849
267.101
390.644
31.8646
432.069
-312.553
478.446
-593.848
520.716
-758.793
555.272
-823.695
574.261
-839.602
589.447
-835.343
594.905
-855.431
601.845
-912.913
607.521
-990.975
621.182
-1094.15
649.759
-1208.84
686.726
-1303.08
729.137
-1361.04
774.215
-1401.75
824.957
-1440.06
880.897
-1478.03
943.305
-1500.45
1004.87
-1493.87
1069.58
-1455.62
1128.54
-1391.8
1189.86
-1333.53
1250.73
-1278.56
1313.49
-1213.02
1373.02
-1145.19
1433.69
-1079.45
1500.14
-1027.36
1561.66
-889.655
1615.65
-701.671
1664.16
-482.738
1705.05
-256.35
1736.97
-41.552
1758.88
129.852
1776.32
260.693
1793.56
372.54
1813.08
467.049
1827.32
536.118
1845.78
593.032
1848.66
666.003
1857.2
749.102
1846.76
832.747
1843.02
914.667
1817.27
984.747
1799.29
1036.95
1759.21
1067.59
1730.32
1080.47
1682.14
1081.18
1647.5
1097.12
1594.04
1121.93
1554.17
1126.41
1497.37
1102.92
1453.72
1056.02
1398.88
994.106
1361.4
946.706
1312.4
910.316
1272.32
866.479
1223.62
804.783
1182.96
727.405
1137.81
628.104
1101.98
515.395
1066.11
401.54
1038.54
295.23
1011.15
201.758
988.104
121.439
964.531
52.99
942.975
-8.12933
920.995
-63.639
899.512
-116.321
878.105
-167.583
858.262
-220.923
842.838
-278.657
832.736
-341.142
829.687
-405.512
832.03
-468.348
840.991
-525.965
854.091
-575.748
871.807
-615.122
890.879
-643.095
911.791
-660.09
932.079
-668.211
952.856
-669.708
972.396
-666.932
991.923
-661.43
1009.81
-654.363
1026.82
-645.801
1041.41
-636.647
1054.89
-627.187
1066.38
-615.013
-620.82
499.303
-512.045
499.273
-479.173
493.785
-392.975
474.076
-291.088
460.883
-192.029
458.954
-93.9292
454.603
6.51998
444.308
107.51
405.666
210.775
373.277
334.786
342.016
277.567
372.932
2.84796
420.822
-368.689
467.847
-656.467
507.353
-813.773
537.694
-867.605
551.438
-871.839
561.471
-857.022
563.09
-873.664
564.99
-927.721
565.209
-1004.62
575.335
-1116.88
602.177
-1246.26
636.805
-1349.11
675.611
-1409.13
716.875
-1451.07
764.357
-1492.89
817.482
-1534.95
876.936
-1560.21
935.39
-1554.55
997.043
-1515.13
1052.8
-1445.49
1111.14
-1385.48
1169.11
-1330.15
1228.62
-1261.39
1284.52
-1189.24
1341.85
-1118.79
1403.6
-1065.26
1459.81
-921.207
1508.49
-727.776
1551.77
-503.045
1588.63
-270.633
1619.1
-48.443
1639.86
132.58
1655.03
270.13
1671.25
381.526
1692.54
473.119
1710
540.999
1732.36
599.749
1739.55
676.399
1753.07
763.344
1747.64
851.713
1748.42
938.831
1726.76
1014.26
1712.46
1071.56
1675.9
1106.65
1650.28
1123.72
1605.25
1125.58
1573.47
1141.68
1523.85
1167.07
1488.13
1172.48
1435.02
1150.54
1394.26
1103.96
1342.02
1039.43
1306.76
986.849
1259.75
949.634
1221.79
903.943
1175.04
841.031
1135.93
762.469
1091.8
660.541
1056.82
543.336
1021.73
424.241
995.181
313.106
968.965
215.962
947.424
133.281
925.656
63.3575
906.051
1.54062
885.66