/*--------------------------------*- C++ -*----------------------------------*\
| =========                 |                                                 |
| \\      /  F ield         | OpenFOAM: The Open Source CFD Toolbox           |
|  \\    /   O peration     | Version:  4.1                                   |
|   \\  /    A nd           | Web:      www.OpenFOAM.org                      |
|    \\/     M anipulation  |                                                 |
\*---------------------------------------------------------------------------*/
FoamFile
{
    version     2.0;
    format      ascii;
    class       surfaceScalarField;
    location    "1";
    object      phi;
}
// * * * * * * * * * * * * * * * * * * * * * * * * * * * * * * * * * * * * * //

dimensions      [0 3 -1 0 0 0 0];

internalField   nonuniform List<scalar> 
52920
(
-78.5288
-43.6016
-35.1283
-23.0624
-6.04516
-26.2084
23.1698
-19.9237
43.27
-30.2606
70.9097
-20.4439
94.037
-25.3708
119.516
-21.5217
140.421
-22.596
160.758
-18.8104
176.621
-17.6471
190.32
-14.7412
200.426
-12.6862
209.935
-9.54892
216.981
-7.75819
223.007
-5.78048
227.208
-4.47946
230.619
-3.01262
232.645
-2.09324
234.157
-1.17206
234.661
-0.596395
234.988
-0.000838011
234.653
0.238475
234.426
0.486951
233.84
0.453262
233.594
0.496273
233.23
0.265245
233.351
0.136034
233.526
-0.190286
234.276
-0.359605
235.176
-0.703738
236.634
-0.893572
238.175
-1.23905
240.062
-1.45222
242.025
-1.70764
244.379
-1.80792
246.772
-2.00705
249.4
-2.11594
252.068
-2.26629
254.994
-2.32105
257.935
-2.44975
261.016
-2.51924
264.081
-2.61844
267.224
-2.66113
270.29
-2.75161
273.746
-2.69635
277.792
-2.44308
280.464
-2.97743
284.131
-2.55701
286.623
-2.93517
289.998
-2.53245
292.348
-2.8443
295.473
-2.46307
297.692
-2.72404
300.462
-2.42116
302.476
-2.62573
304.997
-2.32803
306.888
-2.47695
309.119
-2.2299
310.829
-2.33114
312.816
-2.09111
314.371
-2.14852
316.091
-1.93855
317.456
-1.96051
318.939
-1.75781
320.133
-1.75015
321.374
-1.56923
322.386
-1.54002
323.41
-1.3694
324.252
-1.32453
325.068
-1.1746
325.744
-1.12315
326.373
-0.987228
326.895
-0.927991
327.347
-0.806605
327.72
-0.743777
328.011
-0.634461
328.246
-0.571652
328.393
-0.477269
328.508
-0.418165
328.533
-0.337869
328.545
-0.284963
328.472
-0.220013
328.406
-0.17568
328.262
-0.125847
328.141
-0.0919542
327.956
-0.0580056
327.81
-0.0362254
327.613
-0.0181687
327.47
-0.0096583
327.295
-0.00763765
327.186
-0.0130945
327.062
-0.0268078
327.019
-0.0462899
326.98
-0.0756153
327.031
-0.106727
327.107
-0.155216
327.26
-0.177412
327.523
-0.302664
-0.0886001
-174.114
-44.1981
-121.122
-43.4488
-99.0479
-43.8547
-54.5261
-50.8577
-30.6872
-68.1104
20.8009
-61.0373
53.9371
-61.1719
92.1852
-53.7789
117.844
-50.4616
144.629
-43.4597
163.153
-38.8149
179.88
-33.184
191.657
-28.319
204.461
-22.6854
213.863
-18.4178
222.488
-14.3584
228.538
-11.1887
234.021
-8.23471
237.586
-6.01813
240.717
-4.11317
242.499
-2.74917
244.331
-1.64039
245.252
-1.02393
246.502
-0.626171
247.211
-0.597427
248.557
-0.682705
249.639
-1.06423
251.488
-1.48577
253.285
-2.06754
255.955
-2.5784
258.682
-3.18901
262.206
-3.70534
265.659
-4.28849
269.554
-4.76994
273.44
-5.21391
277.889
-5.51759
282.268
-5.82696
286.928
-6.05944
291.538
-6.27737
296.481
-6.42083
301.327
-6.5829
306.307
-6.70005
311.157
-6.80394
316.05
-6.85382
320.721
-6.90214
325.968
-6.84039
332.149
-6.65671
335.946
-6.92121
341.422
-6.66373
344.991
-6.82762
350.093
-6.58469
353.563
-6.70757
358.388
-6.45976
361.765
-6.53547
366.102
-6.30826
369.225
-6.32564
373.225
-6.06649
376.197
-6.0198
379.751
-5.75573
382.446
-5.65484
385.622
-5.36641
388.076
-5.21916
390.826
-4.92801
392.98
-4.74662
395.356
-4.44506
397.243
-4.23927
399.242
-3.94427
400.844
-3.72484
402.509
-3.43385
403.852
-3.20856
405.191
-2.93213
406.267
-2.70775
407.303
-2.44369
408.128
-2.2219
408.876
-1.97293
409.458
-1.76047
409.947
-1.53126
410.311
-1.33442
410.571
-1.1295
410.74
-0.95262
410.803
-0.773641
410.806
-0.619945
410.707
-0.469397
410.574
-0.341709
410.348
-0.221044
410.113
-0.121773
409.798
-0.0326679
409.496
0.036324
409.129
0.0929045
408.796
0.130287
408.416
0.153808
408.088
0.159187
407.733
0.14991
407.446
0.124006
407.152
0.0828262
406.938
0.0326476
406.741
-0.0494196
406.594
-0.0682136
406.636
-0.385662
0.18747
-149.429
-59.5932
-91.5299
-70.8775
-50.7988
-80.0777
0.725321
-92.7567
26.3174
-104.065
69.0419
-96.3437
98.5169
-93.162
132.576
-83.3983
156.509
-76.3341
181.152
-66.3019
198.591
-58.3712
214.252
-50.079
225.446
-42.5744
237.453
-34.6363
246.507
-28.2181
254.974
-22.4125
261.327
-17.7504
267.353
-13.6599
271.899
-10.5184
276.266
-7.96811
279.66
-6.13677
283.279
-4.78726
286.292
-4.0476
289.734
-3.69798
292.851
-3.77929
296.605
-4.10068
300.217
-4.71973
304.504
-5.45199
308.766
-6.2977
313.737
-7.10601
318.733
-7.94332
324.337
-8.70578
329.835
-9.45818
335.627
-10.1114
341.336
-10.6513
347.409
-11.0406
353.335
-11.364
359.39
-11.6108
365.305
-11.7951
371.38
-11.9074
377.27
-11.9965
383.155
-12.0446
388.821
-12.0439
394.403
-11.9842
399.688
-11.8879
405.321
-11.7053
411.58
-11.4318
415.812
-11.4286
421.268
-11.1311
425.084
-11.0664
430.019
-10.7867
433.538
-10.7002
438.043
-10.4019
441.283
-10.272
445.198
-9.96203
448.039
-9.77197
451.498
-9.41014
454.041
-9.15093
456.971
-8.75324
459.126
-8.43452
461.593
-7.99597
463.4
-7.62921
465.375
-7.17339
466.801
-6.77709
468.345
-6.30846
469.434
-5.89639
470.56
-5.43436
471.313
-5.02034
472.073
-4.56966
472.529
-4.1606
472.937
-3.7252
473.093
-3.32416
473.176
-2.90634
473.056
-2.52201
472.844
-2.13257
472.473
-1.77534
472.004
-1.4207
471.416
-1.09719
470.726
-0.782409
469.953
-0.497084
469.08
-0.224777
468.154
0.0189385
467.138
0.245987
466.094
0.445249
464.971
0.625074
463.846
0.777432
462.656
0.908228
461.485
1.01193
460.266
1.09257
459.086
1.14643
457.876
1.17649
456.723
1.18051
455.559
1.16074
454.469
1.1167
453.386
1.04943
452.391
0.966386
451.419
0.843906
450.536
0.786474
449.687
0.429073
1.0201
-109.337
-93.2488
-45.0795
-110.81
2.90479
-124.753
51.3177
-133.796
78.1868
-138.512
118.004
-129.739
146.788
-123.467
178.966
-111.595
202.462
-101.267
226.163
-88.5212
243.438
-77.5798
258.889
-66.821
270.257
-56.8506
282.144
-46.8402
291.373
-38.4712
300.046
-31.1396
306.898
-25.1902
313.52
-20.1756
318.949
-16.3064
324.338
-13.3008
329.013
-11.1683
334.012
-9.72052
338.616
-8.97093
343.704
-8.74668
348.613
-8.98996
354.144
-9.55689
359.612
-10.4021
365.684
-11.3895
371.743
-12.4352
378.386
-13.4441
385.02
-14.4156
392.117
-15.3056
399.062
-16.119
406.181
-16.8126
413.142
-17.3312
420.312
-17.6733
427.252
-17.892
434.193
-18.02
440.9
-18.052
447.622
-18.0038
454.066
-17.904
460.385
-17.7578
466.394
-17.5398
472.203
-17.2521
477.633
-16.9035
483.237
-16.4775
489.237
-15.9904
493.397
-15.6525
498.467
-15.18
502.03
-14.8258
506.428
-14.3856
509.515
-14.036
513.338
-13.5853
515.985
-13.2062
519.11
-12.7286
521.224
-12.2903
523.778
-11.7491
525.459
-11.2396
527.389
-10.6463
528.574
-10.0808
529.957
-9.44433
530.708
-8.8393
531.543
-8.18652
531.853
-7.56629
532.219
-6.91109
532.145
-6.28672
532.058
-5.63847
531.603
-5.01982
531.107
-4.38771
530.307
-3.78689
529.433
-3.1848
528.319
-2.61489
527.124
-2.05087
525.745
-1.52084
524.277
-1.00483
522.671
-0.523845
520.978
-0.0621865
519.189
0.363882
517.315
0.766662
515.38
1.13415
513.369
1.47566
511.328
1.78185
509.221
2.05981
507.112
2.30256
504.95
2.51535
502.809
2.69283
500.632
2.8391
498.497
2.95017
496.341
3.02914
494.248
3.07313
492.152
3.08483
490.135
3.06236
488.133
3.00826
486.226
2.92226
484.352
2.80626
482.586
2.66715
480.864
2.4863
479.259
2.3588
477.659
1.99417
2.42877
-63.9273
-139.962
-0.306806
-155.486
47.2344
-169.257
93.0618
-173.732
121.471
-173.595
160.062
-163.624
188.905
-154.13
220.216
-139.895
243.751
-126.216
267.134
-110.612
284.658
-96.6572
300.365
-83.3864
312.31
-71.0216
324.583
-58.9818
334.424
-48.7875
343.72
-40.025
351.382
-32.9156
358.839
-27.0772
365.258
-22.5982
371.672
-19.2345
377.495
-16.9029
383.646
-15.4355
389.488
-14.753
395.795
-14.7093
401.974
-15.1632
408.719
-16.0009
415.415
-17.0928
422.638
-18.3391
429.833
-19.5843
437.515
-20.7771
445.151
-21.8634
453.147
-22.8463
460.954
-23.6833
468.85
-24.3726
476.536
-24.8212
484.328
-25.0613
491.835
-25.1211
499.254
-25.0721
506.376
-24.8915
513.423
-24.621
520.13
-24.2688
526.63
-23.8595
532.752
-23.3512
538.593
-22.7632
543.994
-22.0949
549.451
-21.3601
555.157
-20.5857
559.13
-19.8795
563.81
-19.1353
567.058
-18.4463
570.959
-17.7519
573.602
-17.0864
576.807
-16.381
578.866
-15.6936
581.261
-14.9524
582.664
-14.212
584.38
-13.4075
585.236
-12.6024
586.246
-11.7437
586.523
-10.8935
586.92
-10.004
586.69
-9.12647
586.476
-8.22006
585.723
-7.33094
584.954
-6.42649
583.728
-5.54788
582.441
-4.67038
580.784
-3.82652
579.062
-2.99328
577.048
-2.19791
574.952
-1.42239
572.629
-0.687694
570.228
0.0215005
567.657
0.68735
565.008
1.32196
562.239
1.91173
559.399
2.4667
556.483
2.97624
553.504
3.44868
550.485
3.87602
547.414
4.26488
544.337
4.60887
541.22
4.91331
538.126
5.17326
535.005
5.39291
531.932
5.56833
528.849
5.70301
525.833
5.79388
522.825
5.84381
519.903
5.85047
517.005
5.81657
514.211
5.74062
511.458
5.62542
508.823
5.471
506.245
5.28012
503.799
5.05926
501.419
4.7961
499.182
4.57031
496.964
4.18309
4.35761
-22.352
-202.954
39.9285
-203.082
85.3964
-212.167
129.994
-213.035
159.502
-208.442
197.246
-196.634
226.113
-184.086
256.767
-167.504
280.27
-150.818
303.36
-132.581
321.014
-115.894
336.882
-100.315
349.246
-85.7615
361.823
-71.8794
372.158
-60.0243
381.97
-49.9612
390.288
-41.7932
398.414
-35.1951
405.596
-30.151
412.775
-26.4406
419.418
-23.9063
426.359
-22.3871
433.018
-21.7337
440.095
-21.8063
447.046
-22.4087
454.501
-23.4338
461.894
-24.6973
469.748
-26.1093
477.553
-27.4784
485.777
-28.7683
493.928
-29.8999
502.375
-30.8957
510.612
-31.6938
518.894
-32.3054
526.938
-32.6281
535.031
-32.701
542.811
-32.5484
550.463
-32.2635
557.791
-31.8256
564.992
-31.2774
571.819
-30.6212
578.389
-29.889
584.546
-29.0409
590.376
-28.0993
595.734
-27.0657
601.076
-25.9725
606.582
-24.8501
610.428
-23.7597
614.858
-22.682
617.89
-21.6261
621.444
-20.6019
623.753
-19.5848
626.507
-18.5654
628.128
-17.5417
629.992
-16.4909
630.87
-15.4228
631.977
-14.3139
632.226
-13.1929
632.559
-12.0341
632.137
-10.8621
631.745
-9.66089
630.688
-8.46214
629.576
-7.25761
627.907
-6.0754
626.181
-4.90346
623.996
-3.76587
621.725
-2.65332
619.085
-1.58506
616.365
-0.550584
613.356
0.433955
610.26
1.37731
606.944
2.2671
603.549
3.11149
599.997
3.89993
596.371
4.63927
592.64
5.32158
588.849
5.95297
584.999
6.52735
581.1
7.05018
577.18
7.51697
573.226
7.93226
569.285
8.29244
565.326
8.60137
561.409
8.85625
557.488
9.06024
553.635
9.21111
549.796
9.3116
546.046
9.35996
542.326
9.35852
538.713
9.30602
535.148
9.20478
531.707
9.05418
528.329
8.8568
525.091
8.61348
521.932
8.32725
518.924
8.00462
516.005
7.63919
513.251
7.29339
510.544
6.85758
6.71465
16.5947
-259.897
75.5549
-249.845
120.24
-254.424
163.933
-252.171
194.104
-243.799
231.121
-230.077
259.925
-214.427
290.002
-195.237
313.375
-175.359
336.121
-154.279
353.731
-134.758
369.569
-116.77
382.091
-100.024
394.734
-84.2986
405.272
-70.8454
415.303
-59.5259
423.938
-50.3629
432.382
-43.0507
439.942
-37.4914
447.488
-33.4688
454.522
-30.765
461.818
-29.2168
468.835
-28.6158
476.225
-28.8237
483.479
-29.5936
491.186
-30.8223
498.817
-32.278
506.865
-33.8803
514.853
-35.3993
523.221
-36.8127
531.508
-38.0159
540.061
-39.0491
548.404
-39.8303
556.778
-40.3882
564.914
-40.6025
573.077
-40.5245
580.929
-40.1771
588.647
-39.6768
596.037
-38.99
603.279
-38.1656
610.138
-37.203
616.725
-36.1462
622.888
-34.9509
628.71
-33.6494
634.048
-32.2447
639.34
-30.7901
644.751
-29.3106
648.544
-27.8227
652.831
-26.3659
655.734
-24.9064
659.083
-23.5069
661.197
-22.1
663.685
-20.7169
665.046
-19.3205
666.589
-17.9118
667.146
-16.4795
667.865
-15.0113
667.69
-13.5029
667.504
-11.9551
666.527
-10.3928
665.518
-8.82246
663.833
-7.26383
662.053
-5.72127
659.708
-4.21476
657.274
-2.74225
654.374
-1.32062
651.365
0.0530229
647.984
1.36427
644.508
2.61893
640.741
3.80507
636.878
4.92861
632.798
5.98011
628.637
6.96598
624.323
7.87838
619.938
8.72329
615.457
9.49479
610.922
10.1987
606.337
10.8305
601.715
11.3958
597.084
11.8913
592.433
12.3217
587.809
12.6846
583.181
12.9842
578.611
13.2184
574.054
13.3909
569.581
13.5001
565.139
13.5492
560.803
13.5368
556.514
13.4658
552.35
13.3352
548.252
13.1478
544.294
12.9033
540.419
12.6046
536.699
12.2528
533.077
11.8517
529.623
11.4075
526.277
10.9191
523.116
10.4317
520.03
9.91607
9.41538
51.6244
-314.539
108.345
-296.259
152.389
-296.279
195.306
-290.726
225.94
-278.682
262.433
-262.681
291.218
-244.103
320.852
-222.339
344.089
-199.529
366.488
-175.771
383.96
-153.626
399.648
-133.378
412.143
-114.58
424.662
-97.1313
435.166
-82.1764
445.158
-69.6691
453.812
-59.552
462.26
-51.5349
469.852
-45.4536
477.409
-41.0859
484.455
-38.168
491.722
-36.5258
498.699
-35.9125
506.009
-36.177
513.169
-37.0437
520.744
-38.398
528.235
-39.9807
536.118
-41.7019
543.939
-43.3188
552.126
-44.8036
560.24
-46.0438
568.617
-47.0785
576.802
-47.8225
585.031
-48.3016
593.039
-48.3966
601.083
-48.1549
608.838
-47.6112
616.476
-46.8861
623.799
-45.947
630.982
-44.8387
637.792
-43.5675
644.342
-42.1782
650.475
-40.6338
656.274
-38.9675
661.6
-37.1957
666.872
-35.3719
672.235
-33.5141
676.004
-31.6165
680.22
-29.7535
683.068
-27.8857
686.318
-26.089
688.343
-24.2893
690.699
-22.526
691.931
-20.7522
693.303
-18.9678
693.658
-17.1347
694.088
-15.2481
693.59
-13.3132
693.031
-11.3531
691.668
-9.38709
690.234
-7.43096
688.11
-5.501
685.859
-3.60846
683.031
-1.76946
680.087
0.0121379
676.668
1.72314
673.12
3.3622
669.194
4.91851
665.157
6.39435
660.826
7.7813
656.39
9.08271
651.736
10.2924
646.997
11.4148
642.107
12.4454
637.147
13.3886
632.093
14.2413
626.991
15.0085
621.845
15.6883
616.669
16.2854
611.493
16.7987
606.305
17.2326
601.155
17.5864
596.012
17.8641
590.938
18.0653
585.89
18.1933
580.937
18.2482
576.029
18.2326
571.239
18.1467
566.511
17.993
561.921
17.7717
557.41
17.4853
553.053
17.1343
548.793
16.7215
544.702
16.2489
540.723
15.7202
536.927
15.1416
533.256
14.516
529.784
13.8723
526.415
13.2524
12.375
83.911
-365.375
138.778
-342.072
182.18
-337.567
224.545
-329.175
255.668
-314.141
291.863
-295.896
320.694
-274.295
349.98
-249.658
373.073
-223.638
395.128
-196.927
412.398
-171.966
427.858
-149.29
440.204
-128.354
452.477
-109.113
462.788
-92.645
472.564
-78.9337
481.03
-67.8683
489.262
-59.1472
496.642
-52.5512
503.952
-47.8446
510.738
-44.7217
517.701
-42.9957
524.353
-42.3843
531.299
-42.7271
538.078
-43.7162
545.243
-45.2293
552.316
-46.9791
559.768
-48.8717
567.166
-50.6402
574.929
-52.257
582.637
-53.595
590.622
-54.6955
598.444
-55.4628
606.338
-55.9283
614.04
-55.9613
621.805
-55.6165
629.317
-54.9341
636.743
-54.0418
643.884
-52.8966
650.907
-51.5485
657.584
-50.0064
664.026
-48.3226
670.075
-46.46
675.813
-44.4631
681.101
-42.355
686.338
-40.184
691.651
-37.9597
695.398
-35.6626
699.57
-33.3935
702.392
-31.1112
705.598
-28.9047
707.587
-26.6957
709.886
-24.5331
711.059
-22.3539
712.312
-20.1358
712.513
-17.8391
712.741
-15.485
712.029
-13.0867
711.223
-10.6736
709.599
-8.26738
707.872
-5.88743
705.443
-3.5524
702.861
-1.27494
699.691
0.926473
696.382
3.04733
692.589
5.07309
688.65
7.00296
684.325
8.82488
679.877
10.542
675.131
12.1455
670.271
13.6399
665.191
15.0187
660.022
16.2881
654.701
17.4433
649.31
18.4907
643.828
19.4275
638.298
20.26
632.73
20.987
627.136
21.6144
621.548
22.1419
615.955
22.5748
610.406
22.9135
604.873
23.1626
599.417
23.3227
593.996
23.3977
588.68
23.3884
583.418
23.2983
578.285
23.128
573.223
22.8804
568.31
22.5565
563.487
22.1589
558.829
21.6889
554.278
21.1494
549.907
20.5426
545.661
19.8728
541.608
19.1457
537.694
18.3671
533.993
17.5509
530.417
16.8016
15.5299
114.106
-416.805
166.991
-387.01
209.994
-378.595
252.214
-367.531
283.926
-349.416
319.964
-328.545
348.844
-303.934
377.819
-276.426
400.748
-247.393
422.454
-217.875
439.483
-190.274
454.669
-165.297
466.795
-142.328
478.748
-121.377
488.768
-103.447
498.219
-88.5608
506.368
-76.5461
514.241
-67.0934
521.25
-59.9404
528.146
-54.8328
534.492
-51.4361
540.967
-49.5439
547.102
-48.854
553.491
-49.1874
559.693
-50.2226
566.254
-51.8182
572.717
-53.672
579.553
-55.6727
586.343
-57.5483
593.508
-59.2584
600.64
-60.6722
608.073
-61.8201
615.379
-62.606
622.793
-63.0513
630.055
-63.0287
637.416
-62.5893
644.567
-61.7839
651.673
-60.7344
658.531
-59.3999
665.306
-57.8273
671.772
-56.0331
678.036
-54.0694
683.941
-51.9094
689.569
-49.6022
694.775
-47.1757
699.938
-44.6655
705.184
-42.0733
708.888
-39.3891
713.016
-36.7191
715.812
-34.035
718.988
-31.4258
720.96
-28.821
723.225
-26.2585
724.344
-23.6564
725.498
-20.9799
725.584
-18.2088
725.67
-15.3817
724.805
-12.5163
723.82
-9.64659
722.007
-6.79696
720.067
-3.99033
717.415
-1.24781
714.59
1.41543
711.167
3.98032
707.588
6.44019
703.518
8.78058
699.288
10.9992
694.667
13.0851
689.912
15.0402
684.855
16.8572
679.678
18.5399
674.28
20.0838
668.788
21.4944
663.145
22.7692
657.431
23.9144
651.628
24.9292
645.78
25.8199
639.896
26.5873
633.989
27.2375
628.093
27.772
622.198
28.1963
616.352
28.5124
610.529
28.7251
604.789
28.8365
599.092
28.8508
593.507
28.77
587.984
28.5976
582.597
28.3356
577.29
27.9869
572.139
27.5533
567.088
27.0376
562.209
26.4416
557.447
25.7684
552.873
25.0207
548.433
24.2026
544.197
23.3195
540.109
22.3794
536.247
21.3819
532.529
20.4874
18.8179
142.096
-461.343
193.274
-430.995
236.522
-419.906
278.876
-406.333
311.085
-385.386
346.93
-361.787
375.789
-334.026
404.457
-303.368
427.206
-271.039
448.577
-238.437
465.353
-207.976
480.254
-180.502
492.13
-155.376
503.735
-132.61
513.419
-113.169
522.491
-97.0569
530.252
-84.0667
537.691
-73.8577
544.238
-66.1313
550.624
-60.6109
556.424
-56.9356
562.302
-54.8789
567.805
-54.1181
573.52
-54.462
579.023
-55.5699
584.86
-57.2864
590.591
-59.2918
596.689
-61.4631
602.75
-63.5114
609.198
-65.3891
615.639
-66.955
622.408
-68.2313
629.087
-69.1145
635.918
-69.623
642.635
-69.6209
649.495
-69.1661
656.192
-68.3149
662.89
-67.1847
669.382
-65.7273
675.832
-63.9935
682.012
-62.0043
688.032
-59.8178
693.734
-57.4124
699.196
-54.8456
704.265
-52.1427
709.311
-49.3275
714.453
-46.3983
718.081
-43.3525
722.141
-40.2985
724.887
-37.2213
728.023
-34.2125
729.966
-31.2089
732.188
-28.2266
733.245
-25.1626
734.307
-21.9899
734.298
-18.7184
734.267
-15.3881
733.28
-12.0272
732.154
-8.66909
730.193
-5.34754
728.087
-2.08399
725.262
1.09283
722.249
4.17017
718.632
7.12269
714.847
9.9463
710.565
12.6221
706.114
15.1506
701.268
17.5176
696.281
19.7278
690.99
21.7717
685.575
23.656
679.937
25.3748
674.204
26.936
668.321
28.3369
662.366
29.5859
656.325
30.6821
650.24
31.634
644.122
32.4427
637.986
33.116
631.863
33.656
625.746
34.0697
619.684
34.3598
613.649
34.5323
607.703
34.59
601.806
34.5382
596.026
34.3795
590.316
34.1184
584.747
33.7573
579.265
33.2998
573.946
32.7484
568.732
32.1061
563.698
31.3756
558.788
30.5595
554.073
29.6613
549.499
28.6849
545.137
27.6354
540.932
26.5216
536.962
25.331
533.151
24.2733
22.198
167.448
-507.428
218.689
-475.767
262.299
-461.673
304.591
-445.068
337.066
-420.92
372.692
-394.364
401.535
-363.528
429.959
-329.815
452.567
-294.389
473.646
-258.863
490.19
-225.704
504.818
-195.858
516.441
-168.665
527.695
-144.154
537.026
-123.23
545.697
-105.903
553.039
-91.9147
560.004
-80.9045
566.044
-72.5445
571.869
-66.5351
577.067
-62.4973
582.287
-60.1825
587.091
-59.2586
592.063
-59.5166
596.795
-60.6116
601.833
-62.3667
606.754
-64.4533
612.036
-66.7268
617.288
-68.8977
622.94
-70.902
628.608
-72.5947
634.634
-73.9805
640.609
-74.9543
646.777
-75.5201
652.876
-75.5448
659.161
-75.085
665.332
-74.2053
671.554
-73.0083
677.614
-71.4475
683.675
-69.5724
689.51
-67.4113
695.229
-65.023
700.673
-62.3991
705.919
-59.5991
710.804
-56.6421
715.688
-53.5342
720.691
-50.2821
724.203
-46.8904
728.164
-43.4724
730.832
-40.0243
733.905
-36.6372
735.791
-33.245
737.938
-29.8393
738.909
-26.3094
739.872
-22.6496
739.762
-18.885
739.616
-15.0604
738.512
-11.2114
737.254
-7.37495
735.158
-3.58915
732.905
0.121407
729.931
3.72479
726.757
7.20565
722.978
10.5377
719.021
13.7148
714.568
16.7177
709.938
19.5458
704.912
22.1855
699.742
24.6406
694.269
26.9031
688.668
28.9791
682.847
30.8644
676.93
32.5669
670.866
34.0859
664.731
35.4297
658.512
36.5997
652.253
37.6044
645.964
38.4471
639.661
39.1359
633.376
39.6746
627.1
40.0707
620.883
40.3285
614.7
40.4545
608.61
40.4529
602.574
40.3293
596.66
40.0878
590.821
39.7329
585.129
39.2683
579.53
38.6978
574.098
38.0247
568.778
37.2521
563.643
36.3833
558.637
35.4211
553.832
34.3691
549.175
33.2312
544.735
32.0113
540.461
30.7198
536.428
29.3318
532.566
28.1026
25.626
192.222
-553.233
243.433
-521.027
287.038
-503.475
329.1
-483.809
361.795
-456.912
397.312
-427.531
426.219
-393.552
454.486
-356.522
476.994
-317.69
497.822
-278.942
514.15
-242.839
528.521
-210.408
539.895
-181.004
550.809
-154.626
559.788
-132.152
568.058
-113.543
574.973
-98.5153
581.456
-86.668
586.974
-77.6472
592.22
-71.1286
596.793
-66.7154
601.33
-64.1379
605.406
-63.0525
609.603
-63.2403
613.527
-64.3447
617.728
-66.1737
621.796
-68.3857
626.216
-70.8227
630.61
-73.1808
635.414
-75.3865
640.256
-77.2836
645.484
-78.8628
650.697
-80.0094
656.146
-80.7204
661.567
-80.8539
667.219
-80.4747
672.807
-79.6492
678.494
-78.468
684.065
-76.8772
689.681
-74.9311
695.115
-72.6625
700.481
-70.1378
705.617
-67.3549
710.594
-64.3775
715.244
-61.2123
719.921
-57.8551
724.742
-54.3212
728.096
-50.6199
731.92
-46.8615
734.471
-43.0591
737.447
-39.3021
739.238
-35.5138
741.28
-31.6646
742.143
-27.648
742.991
-23.4787
742.764
-19.2001
742.494
-14.8567
741.265
-10.4973
739.874
-6.15677
737.646
-1.88489
735.253
2.29678
732.138
6.34684
728.819
10.2535
724.895
13.9829
720.79
17.5325
716.189
20.8777
711.409
24.0213
706.236
26.9458
700.917
29.6587
695.298
32.1489
689.552
34.4262
683.589
36.4846
677.532
38.3352
671.33
39.9763
665.062
41.419
658.713
42.6646
652.327
43.7239
645.917
44.6006
639.495
45.3046
633.096
45.8404
626.712
46.2169
620.391
46.4394
614.108
46.5156
607.923
46.4506
601.796
46.2509
595.797
45.9215
589.877
45.4676
584.109
44.8938
578.438
44.2042
572.939
43.403
567.556
42.4936
562.363
41.4797
557.303
40.3641
552.45
39.1509
547.749
37.8433
543.27
36.4451
538.963
34.9663
534.902
33.3722
531.021
31.9586
29.0778
216.347
-601.404
267.171
-566.43
310.513
-545.057
352.428
-522.357
385.481
-492.612
421.046
-460.283
450.084
-423.156
478.233
-382.857
500.645
-340.766
521.227
-298.948
537.34
-260.054
551.458
-225.17
562.587
-193.646
573.17
-165.476
581.808
-141.475
589.688
-121.595
596.186
-105.502
602.197
-92.7692
607.201
-83.0226
611.877
-75.9144
615.829
-71.0361
619.687
-68.0964
623.035
-66.7498
626.455
-66.7636
629.565
-67.7821
632.918
-69.5932
636.118
-71.8485
639.657
-74.3693
643.167
-76.8524
647.096
-79.2083
651.081
-81.2735
655.475
-83.0175
659.889
-84.3199
664.578
-85.1621
669.28
-85.4043
674.258
-85.1104
679.218
-84.3487
684.326
-83.1919
689.362
-81.5864
694.489
-79.5861
699.479
-77.23
704.448
-74.5898
709.231
-71.6732
713.897
-68.5404
718.267
-65.1863
722.695
-61.5999
727.294
-57.7996
730.45
-53.8083
734.101
-49.7373
736.501
-45.6083
739.341
-41.5009
741.001
-37.3269
742.902
-33.0382
743.621
-28.5443
744.322
-23.8842
743.951
-19.1077
743.532
-14.2652
742.157
-9.41235
740.616
-4.5892
738.242
0.151242
735.7
4.78303
732.441
9.26232
728.975
13.5738
724.91
17.6834
720.663
21.5858
715.925
25.2567
711.009
28.697
705.706
31.8908
700.259
34.844
694.517
37.5477
688.651
40.0105
682.574
42.2288
676.406
44.2132
670.1
45.9646
663.731
47.4938
657.288
48.8046
650.811
49.9078
644.316
50.8093
637.814
51.5194
631.341
52.0444
624.886
52.3939
618.501
52.5747
612.158
52.595
605.917
52.4613
599.74
52.1807
593.694
51.7592
587.732
51.2028
581.926
50.5166
576.222
49.7055
570.693
48.774
565.284
47.726
560.069
46.5656
554.991
45.2957
550.123
43.9202
545.412
42.4424
540.926
40.8649
536.618
39.1982
532.56
37.3973
528.688
35.7968
32.5213
239.7
-649.688
289.638
-611.352
332.827
-586.522
374.893
-561.279
408.43
-529.085
444.07
-493.772
473.188
-453.296
501.182
-409.415
523.462
-363.749
543.791
-318.574
559.688
-276.654
573.566
-239.111
584.465
-205.329
594.747
-175.247
603.073
-149.653
610.597
-128.432
616.71
-111.228
622.283
-97.5717
626.806
-87.0683
630.943
-79.3461
634.306
-73.9844
637.512
-70.6723
640.159
-69.0603
642.824
-68.9091
645.138
-69.8572
647.658
-71.6777
649.998
-74.0134
652.658
-76.6718
655.282
-79.3389
658.327
-81.9145
661.44
-84.2217
664.982
-86.2118
668.572
-87.7513
672.473
-88.8122
676.426
-89.2479
680.696
-89.1278
684.993
-88.5157
689.483
-87.4694
693.947
-85.9272
698.544
-83.9471
703.048
-81.5736
707.579
-78.8888
711.968
-75.9022
716.279
-72.6716
720.327
-69.1781
724.463
-65.4081
728.8
-61.3827
731.717
-57.1394
735.154
-52.7818
737.362
-48.348
740.022
-43.8921
741.504
-39.3262
743.225
-34.5809
743.77
-29.5956
744.294
-24.4239
743.75
-19.1318
743.159
-13.7688
741.615
-8.40494
739.907
-3.07759
737.371
2.1478
734.669
7.2488
731.257
12.1716
727.641
16.9049
723.433
21.4066
719.047
25.6755
714.178
29.6816
709.135
33.4298
703.713
36.8999
698.152
40.1017
692.304
43.0236
686.338
45.6776
680.167
48.0586
673.912
50.1804
667.526
52.043
661.083
53.6603
654.572
55.0357
648.034
56.1827
641.484
57.1073
634.932
57.8219
628.415
58.3335
621.922
58.6532
615.503
58.7887
609.131
58.7494
602.867
58.5429
596.67
58.1769
590.61
57.6588
584.637
56.9947
578.823
56.1912
573.115
55.2529
567.587
54.1858
562.182
52.9933
556.973
51.6805
551.905
50.25
547.049
48.7061
542.354
47.0512
537.888
45.2877
533.602
43.4253
529.568
41.4111
525.727
39.6145
35.9438
261.909
-695.857
310.85
-655.632
354.393
-628.345
396.78
-600.428
430.695
-565.299
466.302
-526.748
495.415
-482.89
523.223
-435.533
545.36
-386.477
565.449
-338.135
581.144
-293.368
594.805
-253.325
605.502
-217.39
615.516
-185.484
623.567
-158.328
630.774
-135.785
636.546
-117.45
641.726
-102.827
645.816
-91.506
649.464
-83.093
652.285
-77.1593
654.89
-73.3752
656.88
-71.3954
658.836
-70.9708
660.393
-71.7453
662.113
-73.4738
663.622
-75.7946
665.425
-78.4967
667.178
-81.2706
669.347
-84.0001
671.59
-86.4972
674.277
-88.6895
677.034
-90.434
680.132
-91.6862
683.316
-92.3029
686.858
-92.3514
690.467
-91.8885
694.314
-90.9519
698.175
-89.4794
702.211
-87.5288
706.197
-85.1517
710.257
-82.438
714.218
-79.4032
718.141
-76.0932
721.832
-72.4764
725.64
-68.5338
729.679
-64.3008
732.318
-59.8205
735.507
-55.2083
737.483
-50.4952
739.923
-45.7036
741.184
-40.7542
742.683
-35.5643
743.008
-30.1062
743.315
-24.4484
742.56
-18.6637
741.76
-12.8088
740.017
-6.95911
738.112
-1.1586
735.389
4.52538
732.506
10.0648
728.923
15.4048
725.143
20.5296
720.782
25.3978
716.25
30.0048
711.247
34.3219
706.077
38.3514
700.54
42.0754
694.871
45.5018
688.925
48.6215
682.87
51.4454
676.62
53.9711
670.294
56.2116
663.845
58.1698
657.346
59.8593
650.789
61.286
644.211
62.4634
637.627
63.4
631.05
64.1083
624.513
64.5974
618.006
64.8788
611.579
64.9619
605.204
64.8567
598.942
64.5719
592.752
64.1162
586.702
63.4976
580.744
62.7231
574.949
61.7998
569.263
60.7331
563.76
59.5292
558.383
58.1921
553.205
56.7269
548.17
55.1366
543.351
53.4249
538.694
51.5945
534.268
49.6463
530.026
47.5904
526.038
45.3653
522.244
43.374
39.3211
282.15
-741.644
331.575
-700.71
375.55
-670.678
417.999
-639.855
452.073
-601.987
487.576
-560.248
516.674
-512.915
544.326
-461.84
566.343
-409.11
586.223
-357.336
601.744
-309.497
615.219
-266.756
625.745
-228.537
635.532
-194.694
643.35
-165.913
650.289
-141.982
655.768
-122.474
660.608
-106.848
664.318
-94.6805
667.532
-85.5528
669.868
-79.0269
671.925
-74.7578
673.313
-72.4015
674.609
-71.7071
675.458
-72.3153
676.423
-73.9697
677.136
-76.3014
678.113
-79.0896
679.02
-82.0184
680.333
-84.9611
681.718
-87.7121
683.554
-90.1785
685.476
-92.2013
687.764
-93.7252
690.167
-94.6036
692.963
-94.9074
695.866
-94.6779
699.046
-93.9343
702.277
-92.608
705.723
-90.7612
709.161
-88.4519
712.717
-85.7812
716.218
-82.7648
719.719
-79.4341
723.015
-75.7389
726.457
-71.669
730.159
-67.2703
732.481
-62.596
735.382
-57.7551
737.085
-52.783
739.266
-47.6608
740.266
-42.316
741.501
-36.6616
741.569
-30.7157
741.621
-24.5516
740.62
-18.2587
739.579
-11.8928
737.605
-5.54358
735.478
0.747938
732.546
6.902
729.461
12.8945
725.691
18.6606
721.734
24.1887
717.21
29.4299
712.525
34.3838
707.384
39.016
702.087
43.3332
696.435
47.3132
690.663
50.9682
684.626
54.2861
678.49
57.2819
672.171
59.9514
665.785
62.3109
659.288
64.3627
652.749
66.1232
646.161
67.5983
639.561
68.804
632.963
69.749
626.379
70.4479
619.842
70.9105
613.341
71.1498
606.926
71.1761
600.569
71.0006
594.33
70.633
588.168
70.0827
582.15
69.3588
576.228
68.4688
570.471
67.4208
564.828
66.2203
559.369
64.8744
554.04
63.3871
548.911
61.7642
543.929
60.0081
539.163
58.1233
534.562
56.1112
530.194
53.9726
526.011
51.7167
522.082
49.2755
518.35
47.0826
42.6482
302.277
-789.301
351.945
-746.287
395.931
-712.962
438.244
-679.014
472.465
-638.195
507.952
-593.236
537.1
-542.457
564.637
-487.773
586.545
-431.532
606.219
-376.512
621.567
-325.78
634.862
-280.513
645.228
-240.128
654.81
-204.45
662.423
-174.09
669.129
-148.803
674.356
-128.113
678.904
-111.454
682.288
-98.3892
685.125
-88.479
687.035
-81.279
688.607
-76.4298
689.456
-73.5967
690.156
-72.523
690.357
-72.8573
690.622
-74.3283
690.593
-76.564
690.789
-79.3304
690.889
-82.3221
691.378
-85.3969
691.931
-88.3316
692.935
-91.0096
694.033
-93.2598
695.515
-95.0101
697.135
-96.1227
699.183
-96.6648
701.37
-96.6548
703.87
-96.0897
706.455
-94.9032
709.29
-93.1588
712.158
-90.9241
715.189
-88.3057
718.204
-85.32
721.251
-81.9762
724.119
-78.2105
727.163
-74.0251
730.496
-69.4739
732.468
-64.6239
735.053
-59.5905
736.443
-54.3693
738.322
-48.9312
739.011
-43.1928
739.937
-37.0907
739.7
-30.6796
739.453
-24.0413
738.164
-17.2702
736.843
-10.4302
734.605
-3.61464
732.222
3.1279
729.051
9.71721
725.74
16.1229
721.762
22.2804
717.609
28.1731
712.907
33.7538
708.058
39.0182
702.769
43.9342
697.339
48.5056
691.57
52.713
685.694
56.5666