/*--------------------------------*- C++ -*----------------------------------*\
| =========                 |                                                 |
| \\      /  F ield         | OpenFOAM: The Open Source CFD Toolbox           |
|  \\    /   O peration     | Version:  4.1                                   |
|   \\  /    A nd           | Web:      www.OpenFOAM.org                      |
|    \\/     M anipulation  |                                                 |
\*---------------------------------------------------------------------------*/
FoamFile
{
    version     2.0;
    format      ascii;
    class       volScalarField;
    location    "9";
    object      p;
}
// * * * * * * * * * * * * * * * * * * * * * * * * * * * * * * * * * * * * * //

dimensions      [0 2 -2 0 0 0 0];

internalField   nonuniform List<scalar> 
26785
(
3.52874
3.43085
3.26575
2.82447
2.33137
1.78666
1.3867
0.990315
0.723562
0.503655
0.337455
0.229592
0.141054
0.152274
0.228897
0.40684
0.700591
1.14203
1.6632
2.32239
2.95848
3.55666
3.91265
4.05866
4.00046
3.7874
3.43044
3.05817
2.76907
2.61063
2.54878
2.48806
2.37072
2.19976
1.99866
1.78061
1.55381
1.3172
1.07428
0.837593
0.649123
0.523949
0.43002
0.330137
0.219159
0.125903
0.071717
0.0471252
0.0580816
0.0540938
0.0678178
0.0779552
0.120107
0.169844
0.251792
0.337048
0.445902
0.554981
0.689975
0.827615
0.987507
1.14582
1.32075
1.4829
1.64689
1.78826
1.92928
2.05169
2.17718
2.28951
2.40582
2.51041
2.6121
2.69477
2.76255
2.80441
2.82391
2.81758
2.78945
2.74113
2.67662
2.59919
2.51015
2.41225
2.30532
2.19301
2.07487
1.95474
1.83151
1.708
1.58173
1.45383
1.32054
1.18166
1.03319
0.87451
0.705016
0.519664
0.330643
0.0978519
3.51257
3.43103
3.26767
2.82322
2.33008
1.78574
1.38456
0.988029
0.721747
0.502096
0.335141
0.227131
0.137503
0.148819
0.225103
0.402509
0.6952
1.13706
1.65908
2.32016
2.95945
3.56122
3.91825
4.06525
4.00662
3.79106
3.42939
3.05362
2.76414
2.60826
2.54968
2.49043
2.37269
2.20129
1.99962
1.78107
1.5544
1.31798
1.07432
0.835903
0.647336
0.52475
0.433189
0.332613
0.219304
0.124875
0.071088
0.0477409
0.0592335
0.0546996
0.0674011
0.0764747
0.117973
0.16758
0.249573
0.334569
0.442969
0.551902
0.687068
0.824709
0.984649
1.14343
1.31925
1.4819
1.64605
1.78731
1.92829
2.05049
2.17599
2.28842
2.40509
2.51022
2.61259
2.69612
2.76466
2.80721
2.82699
2.82089
2.79267
2.74436
2.67968
2.60228
2.51306
2.41512
2.30795
2.1956
2.0773
1.95725
1.83404
1.71073
1.58458
1.45698
1.32392
1.18539
1.03713
0.878533
0.70949
0.522257
0.351057
0.0856462
3.48405
3.43383
3.2718
2.82099
2.32814
1.78442
1.38129
0.983963
0.71918
0.499898
0.331345
0.222422
0.130341
0.141606
0.217466
0.393901
0.684865
1.12748
1.65185
2.31671
2.96265
3.57127
3.93004
4.07855
4.01919
3.7983
3.4273
3.04423
2.75389
2.6033
2.55207
2.49634
2.37814
2.20569
2.00269
1.78259
1.55561
1.31916
1.07388
0.831737
0.64257
0.524891
0.438384
0.337222
0.220088
0.123799
0.0713924
0.0505452
0.0629661
0.057835
0.0689287
0.0766747
0.11698
0.166477
0.247955
0.332353
0.439427
0.548131
0.683075
0.820694
0.980285
1.14008
1.31712
1.48078
1.64484
1.78607
1.92667
2.04878
2.17414
2.28707
2.4042
2.51032
2.61355
2.69842
2.76797
2.81155
2.83173
2.82604
2.79784
2.74973
2.68506
2.60788
2.51858
2.42058
2.31304
2.20046
2.08178
1.96157
1.83814
1.7148
1.58855
1.46104
1.32802
1.18966
1.04145
0.88279
0.713742
0.525262
0.354858
0.0984323
3.44715
3.44191
3.27797
2.81712
2.32508
1.78209
1.37593
0.977399
0.715542
0.497014
0.32652
0.216496
0.120784
0.131911
0.207417
0.381754
0.669652
1.11267
1.64025
2.30995
2.96567
3.5833
3.94384
4.094
4.03488
3.80793
3.42553
3.0331
2.74258
2.5999
2.55959
2.50866
2.38959
2.21515
2.01
1.78751
1.56001
1.32327
1.07572
0.828182
0.637272
0.524082
0.442329
0.339871
0.218842
0.121328
0.071468
0.0558875
0.0684652
0.0647478
0.0735031
0.0820012
0.120316
0.17103
0.250408
0.334432
0.438114
0.546725
0.679637
0.817081
0.974541
1.13545
1.31234
1.47677
1.639
1.77991
1.91883
2.04091
2.16533
2.27906
2.39595
2.50311
2.6063
2.6923
2.76199
2.80641
2.82649
2.82134
2.79325
2.74589
2.68169
2.60536
2.51645
2.41877
2.3112
2.19858
2.07985
1.95967
1.83637
1.7132
1.58722
1.45992
1.32721
1.18909
1.04117
0.882854
0.713415
0.526512
0.342033
0.1155
3.40631
3.45915
3.28672
2.81275
2.32182
1.77939
1.36933
0.968804
0.711323
0.493722
0.321178
0.209533
0.109999
0.121162
0.197127
0.368625
0.652791
1.09464
1.62553
2.29924
2.96467
3.59005
3.95215
4.10424
4.04627
3.81374
3.42231
3.02319
2.73524
2.60145
2.57193
2.52513
2.4051
2.22834
2.02122
1.79663
1.56879
1.33126
1.08111
0.828042
0.634581
0.523118
0.442485
0.336812
0.212326
0.114934
0.0686894
0.058896
0.0715945
0.0696306
0.0765695
0.0862641
0.123021
0.174677
0.251739
0.334543
0.434466
0.542069
0.67255
0.808968
0.964245
1.12592
1.30286
1.4675
1.62789
1.76806
1.90557
2.02766
2.15185
2.26659
2.38374
2.49185
2.59534
2.68235
2.75248
2.79762
2.81797
2.81352
2.7861
2.73977
2.67661
2.60139
2.51332
2.4161
2.30865
2.19592
2.07708
1.95677
1.8335
1.7104
1.58467
1.45758
1.32513
1.18716
1.03943
0.881437
0.711534
0.526024
0.33253
0.122918
3.36354
3.48617
3.29779
2.80856
2.3189
1.77635
1.36111
0.957361
0.70526
0.488493
0.314898
0.20272
0.10109
0.112927
0.190421
0.358112
0.637746
1.07607
1.60813
2.28203
2.95378
3.58191
3.94341
4.09598
4.03908
3.80234
3.40638
3.00513
2.7229
2.59762
2.57691
2.5331
2.41327
2.23641
2.02935
1.80452
1.57758
1.33959
1.08694
0.82878
0.633434
0.523992
0.443573
0.333967
0.206252
0.110694
0.0700179
0.0661806
0.0808502
0.0798742
0.0858809
0.0952639
0.130248
0.180902
0.255128
0.335082
0.430952
0.536389
0.664227
0.798413
0.951109
1.11256
1.28939
1.45348
1.61197
1.75117
1.88757
2.0096
2.13396
2.2497
2.36712
2.47581
2.57948
2.66727
2.73796
2.78375
2.80441
2.80066
2.7742
2.72908
2.66722
2.59315
2.50603
2.4093
2.30205
2.18914
2.07016
1.94958
1.82625
1.70305
1.57758
1.45072
1.31865
1.18091
1.03349
0.875845
0.705699
0.521401
0.323349
0.122303
3.32154
3.51805
3.30784
2.80496
2.31751
1.77462
1.35364
0.944507
0.69672
0.480087
0.305881
0.193705
0.092383
0.105511
0.184474
0.346463
0.620964
1.0539
1.58565
2.25661
2.93189
3.56047
3.92079
4.07428
4.01838
3.77858
3.38098
2.98088
2.70581
2.58873
2.57542
2.53393
2.41449
2.23904
2.03337
1.80916
1.58304
1.34437
1.08881
0.824634
0.62713
0.521402
0.442775
0.329647
0.198652
0.105846
0.0720487
0.0750746
0.0932015
0.0933136
0.0988165
0.106948
0.139438
0.18774
0.258687
0.335194
0.427198
0.530348
0.655474
0.786841
0.936728
1.09754
1.27403
1.43709
1.59364
1.73187
1.86729
1.98917
2.11362
2.22996
2.34759
2.45671
2.56053
2.64909
2.72068
2.76753
2.78884
2.78603
2.76093
2.71745
2.65725
2.58452
2.49838
2.40221
2.29527
2.1823
2.0632
1.94241
1.81901
1.69575
1.57047
1.44393
1.31234
1.17496
1.02794
0.870771
0.700716
0.517524
0.317267
0.120332
3.29418
3.55756
3.32002
2.80456
2.31927
1.7751
1.34779
0.930775
0.684286
0.466441
0.29281
0.181876
0.0832405
0.0983276
0.178375
0.332538
0.599339
1.02622
1.55653
2.22329
2.90243
3.53222
3.88758
4.04062
3.98691
3.74648
3.34831
2.94927
2.68052
2.57157
2.56614
2.52736
2.40855
2.2358
2.03265
1.80928
1.58425
1.34568
1.08752
0.817164
0.61773
0.517112
0.441963
0.326106
0.192661
0.104195
0.079025
0.0899284
0.111738
0.112664
0.117469
0.123456
0.152535
0.197603
0.265103
0.337851
0.426081
0.527189
0.649391
0.777127
0.9234
1.08301
1.25871
1.41999
1.57406
1.71105
1.84544
1.96715
2.09166
2.20797
2.32491
2.434
2.53781
2.62693
2.69964
2.74818
2.77076
2.76906
2.74545
2.7037
2.64535
2.574
2.48876
2.39299
2.28637
2.17341
2.05427
1.93333
1.80998
1.68686
1.56196
1.43598
1.30518
1.16852
1.02223
0.865879
0.696437
0.514448
0.313543
0.118427
3.28718
3.59972
3.33313
2.80705
2.32288
1.7767
1.34389
0.918272
0.670253
0.450499
0.279077
0.171017
0.0759985
0.0934263
0.173124
0.317436
0.573521
0.993215
1.5216
2.18272
2.86682
3.49937
3.84661
3.99764
3.94784
3.70891
3.31227
2.91558
2.65217
2.55
2.55185
2.51645
2.39954
2.23071
2.03086
1.80809
1.58355
1.34474
1.0834
0.807016
0.606625
0.511091
0.43958
0.321383
0.186898
0.104699
0.0898487
0.108833
0.133615
0.134661
0.13861
0.142015
0.167244
0.208521
0.272688
0.341529
0.426021
0.525352
0.644882
0.768758
0.911071
1.06935
1.24427
1.40337
1.55453
1.69009
1.82329
1.94478
2.06933
2.18546
2.30097
2.40945
2.51324
2.60298
2.67701
2.72761
2.75197
2.75152
2.72918
2.68898
2.63229
2.56217
2.47757
2.38194
2.27547
2.16258
2.04348
1.92257
1.79943
1.67673
1.55248
1.42733
1.29759
1.16201
1.01678
0.86157
0.693194
0.512562
0.312001
0.117255
3.29187
3.62733
3.33901
2.80565
2.32252
1.77507
1.33836
0.905743
0.655992
0.434114
0.266556
0.163531
0.0718067
0.0908065
0.169919
0.305778
0.548569
0.958532
1.48512
2.13891
2.82751
3.46392
3.7999
3.94495
3.90077
3.66596
3.27345
2.88054
2.62103
2.52273
2.53077
2.49899
2.3862
2.22403
2.02873
1.80642
1.58132
1.34177
1.07689
0.794612
0.595386
0.505563
0.437414
0.317112
0.183078
0.109263
0.106171
0.133111
0.159629
0.159971
0.16329
0.164094
0.185078
0.22204
0.282786
0.347376
0.427907
0.525282
0.641976
0.761505
0.89983
1.05729
1.23116
1.38718
1.53515
1.66947
1.80135
1.92253
2.04672
2.16255
2.27644
2.38369
2.48736
2.57781
2.6532
2.70574
2.73167
2.73216
2.71065
2.6716
2.61628
2.54718
2.46305
2.36749
2.26112
2.14845
2.02965
1.90907
1.78645
1.66451
1.54131
1.41731
1.28893
1.15473
1.01088
0.857168
0.690285
0.511159
0.311549
0.116465
3.30084
3.62589
3.33124
2.79742
2.31721
1.77063
1.33077
0.891254
0.639959
0.414754
0.251768
0.156024
0.0692704
0.0897635
0.168909
0.299597
0.528674
0.925496
1.45073
2.09635
2.78719
3.42726
3.75141
3.88796
3.85008
3.62104
3.23438
2.84615
2.58956
2.49239
2.50535
2.47714
2.37018
2.21686
2.02692
1.80545
1.57878
1.33756
1.06905
0.781188
0.584384
0.500165
0.43447
0.312333
0.180195
0.116474
0.125651
0.159941
0.186949
0.18598
0.189162
0.187917
0.204671
0.237159
0.294622
0.354795
0.431237
0.526631
0.64007
0.754514
0.889187
1.04721
1.21974
1.37116
1.51672
1.65049
1.78091
1.90148
2.02477
2.13981
2.25239
2.35838
2.46199
2.55309
2.62946
2.68331
2.71024
2.71126
2.69037
2.65237
2.59837
2.53036
2.44681
2.35152
2.24535
2.13305
2.01476
1.89475
1.77286
1.65189
1.52993
1.40722
1.28022
1.14744
1.00509
0.853144
0.688082
0.510625
0.311898
0.116807
3.33253
3.61449
3.3166
2.78204
2.3047
1.76005
1.31651
0.870499
0.620594
0.39312
0.23656
0.15065
0.0699508
0.092737
0.171813
0.299537
0.514677
0.895438
1.4183
2.0543
2.74486
3.38754
3.69928
3.82485
3.79416
3.57315
3.19351
2.81015
2.5557
2.45671
2.47378
2.44935
2.35055
2.20943
2.02623
1.80571
1.57598
1.33237
1.06108
0.768356
0.574642
0.496014
0.43199
0.308194
0.179491
0.127622
0.149147
0.189708
0.215956
0.213379
0.217372
0.215134
0.227611
0.255429
0.309337
0.364515
0.436909
0.530565
0.639825
0.747894
0.879607
1.03949
1.20905
1.35528
1.50029
1.63308
1.76229
1.8817
2.00348
2.11701
2.22888
2.33385
2.43695
2.52793
2.60446
2.65884
2.6862
2.68756
2.66746
2.63078
2.57831
2.5116
2.42884
2.33402
2.22814
2.1162
1.9985
1.87922
1.75827
1.63843
1.51792
1.39664
1.27114
1.13991
0.999441
0.849773
0.687019
0.511404
0.312949
0.118812
3.36384
3.58963
3.29053
2.75672
2.2845
1.7445
1.29856
0.846108
0.598911
0.37065
0.221369
0.146069
0.0714046
0.0974522
0.176763
0.302577
0.504595
0.867699
1.388
2.01362
2.70275
3.34641
3.64694
3.761
3.7373
3.52515
3.15252
2.77369
2.52127
2.4187
2.43894
2.41846
2.33008
2.20286
2.02721
1.80735
1.57262
1.32688
1.05464
0.757032
0.565105
0.491359
0.428298
0.303519
0.179819
0.140873
0.174175
0.219474
0.243946
0.239978
0.245738
0.243895
0.252384
0.275673
0.325879
0.375552
0.444427
0.536833
0.640712
0.741702
0.871982
1.03382
1.19738
1.34031
1.48691
1.61741
1.74571
1.8633
1.98288
2.0946
2.20644
2.31082
2.41234
2.50203
2.57795
2.63248
2.66032
2.66239
2.64358
2.60863
2.55793
2.49264
2.41082
2.31661
2.21107
2.09938
1.9822
1.86376
1.74386
1.62524
1.50618
1.38639
1.2624
1.13296
0.99483
0.848023
0.687831
0.513959
0.314797
0.121936
3.38406
3.55754
3.25753
2.72422
2.25836
1.72467
1.27793
0.819065
0.574905
0.346948
0.206219
0.143005
0.0745204
0.105393
0.185828
0.309987
0.49882
0.843081
1.35973
1.97261
2.65926
3.3016
3.59157
3.69317
3.67654
3.47436
3.10831
2.73312
2.48296
2.37641
2.39878
2.38227
2.30843
2.19724
2.03066
1.81035
1.5681
1.32184
1.05038
0.747027
0.55586
0.486931
0.424612
0.299884
0.182986
0.15763
0.201674
0.249725
0.271206
0.26613
0.275104
0.275187
0.280401
0.299486
0.345162
0.388599
0.455483
0.546464
0.643243
0.737069
0.868008
1.02932
1.18355
1.32662
1.47501
1.60401
1.73123
1.84707
1.96349
2.07296
2.18495
2.28848
2.38684
2.47414
2.5491
2.60391
2.63252
2.63564
2.6184
2.58539
2.53651
2.47269
2.39189
2.2984
2.19329
2.0817
1.96498
1.84748
1.7288
1.61155
1.49416
1.37612
1.25406
1.12699
0.99182
0.848106
0.690207
0.517447
0.316989
0.124812
3.39186
3.52217
3.22058
2.68815
2.22917
1.702
1.25633
0.791823
0.55003
0.323084
0.19152
0.14028
0.0776113
0.114388
0.196992
0.31936
0.495262
0.820594
1.33393
1.93257
2.61651
3.25547
3.53654
3.62603
3.6159
3.42308
3.06246
2.68989
2.44217
2.33361
2.35657
2.3446
2.28861
2.19322
2.0357
1.81311
1.56325
1.31884
1.04846
0.737987
0.54624
0.481593
0.419982
0.296245
0.188015
0.176176
0.229216
0.277946
0.29551
0.289723
0.303219
0.306177
0.309405
0.325458
0.366007
0.402991
0.470149
0.558634
0.646715
0.735119
0.86796
1.02397
1.16817
1.31442
1.46265
1.59393
1.71914
1.83344
1.9453
2.05249
2.16396
2.26593
2.36034
2.44479
2.51895
2.57444
2.60424
2.60877
2.59337
2.56249
2.51547
2.45308
2.37338
2.28074
2.17612
2.06453
1.94816
1.83172
1.71437
1.59863
1.483
1.36688
1.24701
1.12257
0.99038
0.849371
0.693168
0.520866
0.319172
0.126818
3.38643
3.48334
3.17925
2.64795
2.1962
1.67569
1.23257
0.763728
0.524208
0.298609
0.177318
0.138258
0.0812691
0.126198
0.212505
0.333107
0.494411
0.801037
1.31125
1.89305
2.57313
3.20581
3.47828
3.55515
3.55154
3.36751
3.0113
2.64011
2.39544
2.2881
2.3107
2.30387
2.26866
2.19099
2.04188
1.81417
1.55846
1.31767
1.04709
0.729393
0.537169
0.476843
0.415971
0.293924
0.196355
0.197523
0.257665
0.304912
0.317435
0.311199
0.331305
0.337786
0.34018
0.355375
0.389458
0.421157
0.490328
0.573625
0.652311
0.738495
0.871762
1.01638
1.1542
1.30431
1.45063
1.58672
1.71071
1.82205
1.92847
2.03375
2.14296
2.24195
2.3323
2.41371
2.4871
2.5436
2.57489
2.58103
2.56761
2.53891
2.49373
2.43268
2.3541
2.26251
2.15848
2.04677
1.93078
1.81559
1.69972
1.58573
1.47206
1.35812
1.24072
1.11897
0.989526
0.850823
0.695882
0.523678
0.321081
0.127991
3.37608
3.44501
3.13649
2.6076
2.16299
1.64888
1.20919
0.736717
0.498689
0.274439
0.163787
0.136015
0.0842643
0.139003
0.230104
0.34863
0.494254
0.782955
1.29138
1.85579
2.5314
3.15558
3.41998
3.48494
3.48687
3.30978
2.9572
2.5868
2.34646
2.24345
2.26538
2.26521
2.24972
2.19083
2.04766
1.81374
1.55473
1.31746
1.04598
0.721455
0.528164
0.47189
0.411575
0.29221
0.206409
0.21949
0.284557
0.328689
0.335436
0.330008
0.358469
0.368157
0.369755
0.386802
0.413434
0.443864
0.514851
0.589659
0.659813
0.747259
0.876214
1.00614
1.14364
1.29488
1.44051
1.57935
1.70541
1.81209
1.91415
2.01666
2.12175
2.21682
2.30351
2.38196
2.45467
2.51252
2.54577
2.5538
2.5425
2.51604
2.47263
2.41282
2.3354
2.24513
2.14177
2.02981
1.91411
1.80026
1.68585
1.57358
1.4617
1.34982
1.23492
1.11579
0.988972
0.852346
0.698316
0.525951
0.322671
0.128533
3.35855
3.40322
3.08958
2.56453
2.12721
1.6197
1.1845
0.709387
0.47284
0.250036
0.150922
0.133602
0.0871793
0.15454
0.251989
0.367581
0.496451
0.767332
1.27421
1.82081
2.49058
3.10212
3.35784
3.41129
3.41706
3.24621
2.89742
2.52733
2.29216
2.1975
2.2197
2.22711
2.22892
2.18998
2.05099
1.81283
1.55105
1.31552
1.04368
0.713557
0.519768
0.468263
0.40874
0.293395
0.219706
0.243078
0.310961
0.350239
0.350349
0.348339
0.386308
0.3979
0.399152
0.419667
0.438755
0.473108
0.542512
0.606621
0.671515
0.761316
0.880363
0.995625
1.13724
1.28581
1.43431
1.57148
1.70282
1.80444
1.90342
2.00041
2.0998
2.19062
2.27362
2.34903
2.4211
2.48059
2.51616
2.5262
2.51692
2.49265
2.45091
2.39211
2.31572
2.22706
2.12449
2.01204
1.89645
1.78398
1.67084
1.56025
1.45039
1.34109
1.22915
1.11284
0.988576
0.85372
0.700125
0.52737
0.323667
0.128513
3.33635
3.35987
3.04133
2.52231
2.09245
1.5908
1.16073
0.683626
0.447695
0.226638
0.139333
0.13052
0.0892654
0.171124
0.276005
0.386633
0.49926
0.753086
1.2585
1.78912
2.45278
3.04873
3.29564
3.33888
3.34562
3.17971
2.83526
2.46564
2.23544
2.15304
2.1777
2.19289
2.20964
2.18781
2.05048
1.81136
1.54595
1.3117
1.04027
0.704894
0.51081
0.464898
0.406409
0.296307
0.23471
0.266424
0.334892
0.368103
0.361747
0.366109
0.412897
0.424693
0.42778
0.450385
0.462861
0.505015
0.568178
0.622769
0.688262
0.777413
0.882065
0.985265
1.1328
1.27792
1.43042
1.56631
1.70074
1.79856
1.89349
1.98374
2.0775
2.16415
2.24336
2.31585
2.38762
2.44905
2.48732
2.49964
2.49236
2.47029
2.43009
2.37192
2.29619
2.20939
2.10743
1.99393
1.87841
1.76726
1.65476
1.54593
1.43864
1.33261
1.22382
1.11023
0.98826
0.854689
0.701077
0.527834
0.324048
0.12807
3.3078
3.31261
2.98937
2.47801
2.05616
1.55955
1.13549
0.65781
0.422432
0.203639
0.128734
0.126434
0.0905969
0.190083
0.30428
0.40814
0.503808
0.742222
1.24502
1.76085
2.41691
2.9929
3.22979
3.26319
3.26835
3.10698
2.76789
2.39922
2.17342
2.10691
2.13651
2.16051
2.19182
2.18205
2.04641
1.80832
1.53683
1.30543
1.0344
0.693898
0.501736
0.46259
0.405967
0.302635
0.252896
0.290374
0.357493
0.383684
0.371672
0.384598
0.43894
0.44938
0.458558
0.478863
0.487838
0.537312
0.590449
0.639588
0.711885
0.792862
0.881756
0.97885
1.13151
1.27392
1.42847
1.56696
1.69798
1.79321
1.88286
1.96705
2.0555
2.13738
2.21236
2.28211
2.35389
2.41733
2.45825
2.47274
2.46724
2.44743
2.40869
2.35047
2.27504
2.19053
2.08847
1.97325
1.85872
1.74829
1.6366
1.53002
1.42591
1.32387
1.21833
1.10734
0.987382
0.85462
0.700659
0.527
0.323547
0.127175
3.2762
3.26453
2.9372
2.43516
2.02181
1.5292
1.11082
0.633535
0.398069
0.182435
0.119158
0.121484
0.0911634
0.209802
0.334086
0.430481
0.508003
0.733327
1.23217
1.7363
2.38407
2.93756
3.16403
3.18868
3.18929
3.03158
2.69882
2.33167
2.10962
2.06071
2.09719
2.13284
2.17822
2.17357
2.04008
1.80224
1.52432
1.29753
1.02621
0.680057
0.491799
0.460259
0.406049
0.311251
0.272124
0.312971
0.377172
0.396526
0.380537
0.402558
0.462241
0.470449
0.488686
0.501771
0.51331
0.564698
0.607423
0.658352
0.737657
0.803141
0.879779
0.978271
1.13287
1.2738
1.42612
1.56994
1.69377
1.78576
1.87058
1.95048
2.03406
2.11074
2.18156
2.24913
2.32134
2.38675
2.43021
2.44653
2.4425
2.42504
2.38762
2.32884
2.2537
2.17157
2.06846
1.95167
1.83858
1.72805
1.61827
1.51429
1.41327
1.31481
1.21231
1.10384
0.98567
0.853286
0.698791
0.524872
0.322144
0.125829
3.24188
3.21445
2.8828
2.39082
1.98602
1.49707
1.08419
0.608703
0.373723
0.162621
0.109941
0.115424
0.0908185
0.230996
0.365696
0.456269
0.514408
0.728591
1.2218
1.71581
2.3539
2.87967
3.09377
3.11063
3.10496
2.95157
2.62533
2.26008
2.04136
2.01038
2.0546
2.10628
2.16445
2.15937
2.02943
1.79265
1.50931
1.28679
1.0144
0.663683
0.481512
0.458241
0.408123
0.32327
0.293397
0.335453
0.395279
0.407979
0.389744
0.421038
0.483625
0.489796
0.518548
0.520959
0.538967
0.58596
0.622051
0.68267
0.760449
0.808426
0.878608
0.985085
1.1365
1.27795
1.42791
1.57306
1.69086
1.77789
1.85833
1.9348
2.0131
2.08406
2.1509
2.21684
2.28953
2.35654
2.40193
2.41885
2.416
2.40105
2.36452
2.30489
2.23016
2.15016
2.04517
1.9283
1.817
1.70665
1.5994
1.49846
1.4003
1.30472
1.2052
1.09931
0.982601
0.850155
0.695069
0.521164
0.319572
0.123893
3.20735
3.16487
2.82953
2.34924
1.95233
1.4666
1.05813
0.584684
0.350281
0.145174
0.101266
0.10916
0.0900859
0.252105
0.397017
0.483028
0.521526
0.725896
1.21231
1.69871
2.32735
2.82227
3.02293
3.03308
3.02095
2.87143
2.55098
2.18857
1.97196
1.95454
2.00859
2.07994
2.14601
2.14098
2.01525
1.78201
1.49381
1.27251
1.00021
0.646893
0.471602
0.455681
0.411077
0.336487
0.315306
0.356399
0.410762
0.417225
0.397976
0.43838
0.501001
0.506217
0.545107
0.535447
0.560889
0.599899
0.635274
0.708509
0.773276
0.809134
0.878803
0.996249
1.14083
1.28343
1.43091
1.5711
1.6856
1.76912
1.84673
1.92003
1.9926
2.05797
2.12156
2.18661
2.25993
2.32821
2.3746
2.39107
2.38947
2.37677
2.34037
2.27966
2.20594
2.12764
2.01997
1.90521
1.79562
1.68597
1.58123
1.48325
1.38736
1.29388
1.1972
1.09379
0.978141
0.845223
0.689628
0.516053
0.315979
0.121461
3.16979
3.1124
2.77434
2.30701
1.91739
1.43477
1.03044
0.559695
0.326805
0.129398
0.0927346
0.101892
0.0886067
0.273171
0.429151
0.510814
0.531727
0.728138
1.20589
1.68536
2.3022
2.76244
2.94711
2.95125
2.93481
2.78889
2.47383
2.11554
1.89965
1.88962
1.95465
2.04352
2.10731
2.11143
1.99471
1.77013
1.47929
1.25392
0.982604
0.629785
0.463192
0.454289
0.415316
0.352756
0.339397
0.376693
0.425152
0.425772
0.40677
0.456149
0.515453
0.522058
0.568657
0.547993
0.581249
0.609894
0.651194
0.73177
0.777954
0.809731
0.884745
1.00978
1.1462
1.29043
1.43548
1.56678
1.67939
1.76123
1.8373
1.90651
1.97264
2.03276
2.09367
2.15821
2.23193
2.30099
2.34698
2.36164
2.36119
2.35012
2.31328
2.25117
2.17997
2.10271
1.99312
1.8817
1.77338
1.66508
1.56235
1.46718
1.37388
1.28225
1.18826
1.08707
0.971956
0.83821
0.682248
0.509339
0.311188
0.11852
3.1322
3.05977
2.72092
2.26794
1.88513
1.40513
1.00375
0.53586
0.304035
0.115719
0.0848998
0.0941243
0.0873501
0.293438
0.45984
0.53489
0.542631
0.732343
1.2
1.67443
2.27806
2.70297
2.87023
2.87001
2.85046
2.70758
2.39809
2.04347
1.82772
1.82025
1.89482
2.0001
2.04677
2.05705
1.96628
1.756
1.46701
1.23483
0.962263
0.612575
0.454982
0.453728
0.418748
0.370643
0.363344
0.39455
0.437462
0.432926
0.416105
0.472139
0.526615
0.536685
0.584878
0.559856
0.596264
0.615102
0.667833
0.74559
0.775597
0.812108
0.894469
1.01973
1.1488
1.29388
1.43962
1.56308
1.67159
1.75346
1.8291
1.8935
1.95343
2.00931
2.06835
2.13299
2.20708
2.2764
2.32094
2.33229
2.33293
2.32291
2.28555
2.22264
2.15476
2.07641
1.96805
1.85935
1.75078
1.64455
1.54368
1.45052
1.35998
1.2702
1.17869
1.07936
0.96427
0.829493
0.673352
0.501386
0.305538
0.115298
3.09185
3.0042
2.66615
2.2278
1.85182
1.37463
0.975706
0.511588
0.281251
0.103342
0.0769829
0.0855496
0.0864997
0.313187
0.489523
0.55939
0.557803
0.739884
1.19586
1.66628
2.25418
2.64061
2.78813
2.7855
2.76409
2.62528
2.32219
1.96847
1.75053
1.74544
1.83255
1.9601
1.98721
1.99533
1.93323
1.73848
1.45373
1.21356
0.934985
0.594444
0.447124
0.453913
0.422525
0.391647
0.387922
0.411096
0.44882
0.439122
0.429543
0.487698
0.536295
0.553896
0.593471
0.577074
0.606451
0.619371
0.685143
0.749204
0.770618
0.818967
0.907288
1.02326
1.14802
1.29387
1.44426
1.5625
1.6659
1.74815
1.82229
1.88114
1.9355
1.98799
2.04549
2.11028
2.18387
2.2526
2.29473
2.30119
2.30327
2.2936
2.25552
2.19462
2.12853
2.04799
1.94251
1.83547
1.72711
1.62374
1.52488
1.43302
1.34516
1.25779
1.16837
1.07036
0.954774
0.818946
0.662909
0.492155
0.299017
0.111871
3.05357
2.94984
2.61403
2.19023
1.82087
1.34634
0.948689
0.488535
0.259647
0.0930459
0.0695147
0.0775152
0.0878738
0.331589
0.516384
0.582694
0.574686
0.747751
1.19014
1.65897
2.23119
2.57872
2.70541
2.70157
2.67949
2.54539
2.2496
1.89165
1.66566
1.66986
1.77551
1.92477
1.93053
1.94507
1.90496
1.71788
1.43517
1.19151
0.903818
0.576398
0.439516
0.453058
0.426448
0.413309
0.410392
0.424842
0.45819
0.444023
0.444626
0.500004
0.542647
0.57031
0.595265
0.593903
0.610467
0.624199
0.698107
0.743283
0.764683
0.827116
0.915383
1.01784
1.14409
1.29181
1.44545
1.56025
1.66166
1.74448
1.81549
1.86921
1.91945
1.96954
2.026
2.09099
2.16306
2.23113
2.26946
2.27069
2.27402
2.26402
2.22535
2.16824
2.10185
2.02
1.9168
1.81108
1.70383
1.60339
1.50673
1.41567
1.32989
1.24538
1.1576
1.06033
0.943847
0.807101
0.651486
0.482221
0.292157
0.108557
3.01464
2.89407
2.56124
2.15131
1.7881
1.31656
0.920267
0.465055
0.238549
0.0844663
0.0618262
0.0696599
0.0909194
0.349692
0.542391
0.607027
0.596133
0.759698
1.18558
1.65364
2.20783
2.5148
2.61849
2.61594
2.59432
2.46554
2.17715
1.81228
1.57328
1.59448
1.72033
1.8829
1.87119
1.90549
1.88058
1.69734
1.40873
1.16459
0.86879
0.557749
0.434268
0.452766
0.432279
0.435759
0.431857
0.43773
0.467575
0.449963
0.461182
0.511389
0.548539
0.584136
0.59676
0.606884
0.612657
0.634723
0.705662
0.732854
0.762213
0.834175
0.914042
1.00696
1.14336
1.29343
1.44524
1.55845
1.66
1.74244
1.80919
1.8588
1.90598
1.95401
2.00929
2.07349
2.14304
2.21024
2.24318
2.23962
2.24341
2.23249
2.19462
2.14078
2.0735
1.99138
1.88979
1.78577
1.68025
1.58271
1.48868
1.39889
1.31456
1.2327
1.14629
1.04906
0.931325
0.793865
0.638991
0.47159
0.284995
0.105357
2.97779
2.84033
2.51147
2.11496
1.75741
1.28839
0.892867
0.442976
0.218606
0.0781313
0.0538463
0.0634765
0.095177
0.367022
0.565005
0.629112
0.617197
0.772047
1.17998
1.64915
2.18438
2.45191
2.53093
2.53187
2.51325
2.38856
2.10475
1.73212
1.4835
1.52344
1.6684
1.83529
1.81882
1.87467
1.86029
1.67818
1.37493
1.13236
0.832842
0.538454
0.431453
0.45275
0.438311
0.45572
0.450149
0.448724
0.476153
0.453995
0.475465
0.52008
0.552706
0.592383
0.598184
0.614592
0.613415
0.644403
0.703221
0.718891
0.760787
0.830551
0.900081
0.994208
1.144
1.2996
1.44173
1.55684
1.65929
1.73974
1.80282
1.85012
1.89552
1.94177
1.99586
2.05861
2.12551
2.19121
2.2179
2.21045
2.21311
2.20106
2.16508
2.11279
2.04511
1.96301
1.86277
1.76071
1.65723
1.56225
1.47104
1.38304
1.29967
1.21985
1.13482
1.03708
0.917803
0.779888
0.625987
0.460731
0.277879
0.102333
2.93968
2.786
2.46182
2.07719
1.7251
1.25862
0.86409
0.4208
0.198726
0.0732969
0.0444156
0.0580224
0.100202
0.384498
0.584255
0.652271
0.640678
0.787247
1.17695
1.64753
2.15921
2.38761
2.4397
2.44723
2.43415
2.31229
2.02636
1.64582
1.3963
1.45308
1.61612
1.77598
1.77482
1.8472
1.84226
1.6588
1.33455
1.09591
0.79809
0.520137
0.432323
0.45552
0.444917
0.474194
0.466845
0.460297
0.484978
0.459385
0.489422
0.528045
0.557652
0.599168
0.602679
0.622346
0.61678
0.652502
0.694349
0.707028
0.757062
0.813968
0.880163
0.983031
1.14061
1.30874
1.43813
1.5572
1.66001
1.73675
1.79762
1.84427
1.88839
1.93249
1.98451
2.04471
2.10878
2.17204
2.19185
2.18191
2.18171
2.16903
2.13534
2.08302
2.01546
1.93374
1.83525
1.73523
1.63433
1.54142
1.45317
1.36753
1.28558
1.20712
1.12298
1.02409
0.903158
0.765117
0.612427
0.449593
0.270755
0.0993649
2.9021
2.73414
2.41547
2.04193
1.69455
1.23012
0.835906
0.400284
0.179888
0.070099
0.0355298
0.0535846
0.10658
0.401375
0.600026
0.674357
0.662299
0.800653
1.1742
1.64811
2.13304
2.32463
2.34922
2.36549
2.35991
2.2388
1.94393
1.55554
1.30941
1.38308
1.56737
1.69821
1.73644
1.82228
1.81917
1.63957
1.29571
1.05607
0.762728
0.503128
0.434612
0.45919
0.450865
0.489926
0.479942
0.470774
0.490398
0.467983
0.50109
0.533786
0.561602
0.604602
0.608207
0.628601
0.619678
0.656102
0.679633
0.69771
0.744954
0.790616
0.862588
0.972632
1.13301
1.3112
1.43442
1.55651
1.65847
1.73225
1.79328
1.84094
1.88443
1.92642
1.97605
2.03325
2.09457
2.15399
2.16602
2.15548
2.15115
2.13832
2.10665
2.05341
1.98588
1.90487
1.80848
1.71024
1.61254
1.52105
1.43529
1.35217
1.27215
1.19481
1.11093
1.0105
0.888085
0.750194
0.598916
0.438718
0.263831
0.0960847
2.86287
2.68207
2.36902
2.00534
1.66269
1.1999
0.806369
0.380095
0.161571
0.0680274
0.0274263
0.0487443
0.114994
0.420746
0.616033
0.695827
0.683386
0.814236
1.17654
1.65233
2.10421
2.26077
2.2581
2.28608
2.28681
2.16645
1.85727
1.46214
1.21976
1.31224
1.52378
1.59686
1.69066
1.79627
1.7892
1.62009
1.25724
1.00895
0.727811
0.487697
0.440152
0.465092
0.457762
0.504969
0.491677
0.481904
0.493829
0.480733
0.514057
0.540622
0.566524
0.611435
0.616775
0.636872
0.625287
0.657858
0.664502
0.689053
0.72565
0.77148
0.8509
0.965072
1.12854
1.30569
1.43481
1.55552
1.65458
1.72771
1.79087
1.8403
1.88334
1.92308
1.96974
2.02308
2.08073
2.13382
2.13895
2.12946
2.12087
2.10771
2.07763
2.02319
1.95564
1.87583
1.78187
1.68521
1.59134
1.50124
1.41727
1.33665
1.25882
1.18245
1.0981
0.99594
0.872448
0.734942
0.585352
0.427879
0.25695
0.0917572
2.82555
2.63202
2.32455
1.97136
1.63296
1.17089
0.777554
0.361691
0.144635
0.0672985
0.0211771
0.044275
0.124833
0.440341
0.628035
0.713457
0.700282
0.826566
1.18208
1.65588
2.07337
2.19986
2.16975
2.21053
2.21655
2.09548
1.76711
1.36994
1.13396
1.24294
1.48445
1.49389
1.64207
1.76484
1.75579
1.59866
1.2181
0.952597
0.696854
0.471697
0.447277
0.47168
0.465429
0.516658
0.501686
0.491144
0.494087
0.491989
0.527228
0.54738
0.569676
0.617343
0.626804
0.642683
0.634405
0.655869
0.649087
0.676994
0.703227
0.757111
0.836284
0.95501
1.12779
1.29034
1.43624
1.55143
1.64722
1.72276
1.79007
1.84204
1.88444
1.92169
1.96529
2.01444
2.06724
2.11221
2.113
2.10472
2.09235
2.07866
2.04924
1.99386
1.92622
1.84751
1.75636
1.66133
1.57109
1.48257
1.39944
1.32111
1.24528
1.16982
1.08467
0.980925
0.856813
0.719904
0.572169
0.41734
0.250531
0.0880344
2.78755
2.58097
2.27899
1.9361
1.60229
1.14089
0.748483
0.343783
0.128008
0.0668055
0.016
0.0401414
0.13668
0.460727
0.636489
0.727523
0.716488
0.844263
1.19383
1.6589
2.04027
2.14051
2.08074
2.1371
2.14672
2.02192
1.6686
1.2794
1.05546
1.16725
1.42306
1.40724
1.59039
1.72671
1.71943
1.57094
1.17722
0.895897
0.674701
0.46065
0.458185
0.478688
0.473714
0.526192
0.513819
0.500612
0.494776
0.504327
0.543647
0.556851
0.574797
0.622688
0.642822
0.648797
0.645978
0.652594
0.637695
0.664018
0.685359
0.742876
0.823101
0.946837
1.13662
1.27582
1.43619
1.54426
1.63813
1.71903
1.79169
1.84508
1.88463
1.91812
1.95834
2.0039
2.05166
2.08783
2.08709
2.07989
2.06451
2.05011
2.02053
1.96449
1.89684
1.81904
1.73107
1.63846
1.55121
1.46463
1.38221
1.30564
1.23141
1.15648
1.07028
0.965064
0.840601
0.704561
0.55874
0.4068
0.244469
0.0870122
2.75124
2.53086
2.23601
1.90323
1.57353
1.11281
0.721994
0.327592
0.112657
0.0669614
0.0121158
0.0368829
0.149149
0.477753
0.638632
0.735317
0.730989
0.866054
1.2077
1.66078
2.00693
2.08385
1.98939
2.06519
2.07882
1.94564
1.56913
1.18995
0.983896
1.08908
1.33129
1.33501
1.53744
1.69022
1.68056
1.53586
1.14311
0.853026
0.65583
0.456063
0.47146
0.483035
0.479508
0.53363
0.525108
0.506099
0.494651
0.517093
0.561281
0.567361
0.580566
0.624938
0.655425
0.653138
0.652772
0.646104
0.630744
0.649998
0.672209
0.728205
0.815602
0.941651
1.14261
1.26397
1.43275
1.53373
1.62798
1.71797
1.79519
1.84622
1.88172
1.91155
1.94917
1.99188
2.03524
2.06377
2.06269
2.056
2.03821
2.02296
1.99246
1.93609
1.86854
1.79168
1.70698
1.61735
1.53255
1.44803
1.36668
1.29096
1.21794
1.14318
1.05559
0.948896
0.824077
0.688929
0.54478
0.396003
0.236892
0.0838446
2.71331
2.47971
2.19265
1.86934
1.54295
1.08459