/*--------------------------------*- C++ -*----------------------------------*\
| =========                 |                                                 |
| \\      /  F ield         | OpenFOAM: The Open Source CFD Toolbox           |
|  \\    /   O peration     | Version:  4.1                                   |
|   \\  /    A nd           | Web:      www.OpenFOAM.org                      |
|    \\/     M anipulation  |                                                 |
\*---------------------------------------------------------------------------*/
FoamFile
{
    version     2.0;
    format      ascii;
    class       surfaceScalarField;
    location    "9";
    object      phi;
}
// * * * * * * * * * * * * * * * * * * * * * * * * * * * * * * * * * * * * * //

dimensions      [0 3 -1 0 0 0 0];

internalField   nonuniform List<scalar> 
52920
(
1661.28
-84.9755
1755.13
-92.3846
1849.77
-97.7575
1943.16
-96.3547
2035.28
-95.2689
2121.42
-91.9232
2209.14
-86.8281
2284.07
-80.4349
2357.67
-69.5314
2415.72
-60.0427
2472.04
-51.216
2524.41
-48.7476
2581.47
-49.7097
2638.19
-52.6045
2698.43
-54.3005
2758.08
-52.5766
2811.53
-46.3762
2861.18
-43.2209
2910.45
-47.1531
2976.34
-57.0962
3049.98
-73.0294
3148.23
-91.2018
3252.78
-105.076
3374.33
-117.131
3498.74
-126.727
3631.16
-130.293
3755.54
-126.68
3875.97
-119.972
3986.95
-113.348
4093.95
-107.556
4193.38
-101.254
4285.04
-94.0993
4370.62
-88.1935
4453.75
-85.6109
4538.16
-86.8453
4626.15
-90.1398
4716.76
-92.4597
4806.89
-91.9492
4894.02
-88.3573
4974.1
-82.3624
5048.06
-75.3871
5115.37
-68.9116
5179.06
-64.5666
5240.66
-62.4054
5301.89
-61.3956
5362.41
-61.2315
5423.13
-62.4025
5489.98
-65.2282
5558.54
-68.822
5632.79
-72.6454
5708.97
-76.1765
5789.85
-79.4224
5871.84
-81.9251
5957.18
-83.7994
6042.46
-84.9033
6129.83
-85.5544
6216.06
-85.6895
6303.56
-85.6077
6389.94
-85.4102
6477.19
-85.3473
6563.84
-85.3248
6651.01
-85.5227
6738.75
-86.0144
6826.9
-86.7864
6916.66
-87.6967
7006.21
-88.6149
7097.9
-89.5633
7188.72
-90.3636
7281.93
-91.0541
7373.6
-91.5581
7467.56
-92.0675
7559.87
-92.5701
7654.68
-93.1675
7747.95
-93.7003
7843.22
-94.165
7936.93
-94.3107
8031.86
-94.2745
8125.38
-94.1716
8219.98
-94.1894
8313.4
-94.1945
8407.74
-94.1328
8500.79
-93.8462
8593.97
-93.2243
8685.44
-92.2374
8776.13
-90.8984
8864.82
-89.3572
8952.22
-87.6915
9037.73
-86.0634
9121.93
-84.5239
9204.69
-83.1837
9286.43
-82.0638
9367.34
-81.2213
9447.72
-80.6615
9527.9
-80.3932
9608.17
-80.483
9688.78
-80.7289
9770.27
-81.6388
9852.03
-81.8049
9932.24
-80.2882
-80.7998
1785.09
-176.736
1893.55
-201.031
2002.01
-210.115
2108.86
-207.295
2213.45
-204.712
2310.88
-197.261
2410.5
-187.285
2494.45
-172.189
2577.23
-150.092
2641.78
-128.952
2706.89
-112.61
2770.74
-108.881
2844.11
-114.018
2919.8
-121.94
3001.51
-127.171
3083.84
-125.476
3160.53
-114.701
3234.04
-109.63
3308.06
-118.861
3399.42
-138.703
3498.51
-169.249
3620.85
-204.067
3745.57
-229.276
3882.21
-249.621
4016.83
-263.733
4156.08
-266.784
4285.65
-257.44
4410.89
-243.536
4526.91
-230.717
4639.33
-220.011
4744.41
-208.08
4841.95
-194.629
4933.94
-183.75
5024.26
-179.586
5116.74
-182.881
5213.62
-190.158
5313.86
-195.449
5414.36
-195.226
5512.61
-188.852
5604.66
-177.598
5691.28
-164.293
5771.78
-151.799
5848.89
-143.286
5923.9
-138.853
5998.12
-136.242
6070.79
-134.767
6142.18
-135.399
6217.44
-138.64
6291.84
-143.051
6368.91
-147.564
6444.77
-151.403
6522.06
-154.537
6597.31
-156.374
6672.86
-156.997
6745.52
-156.377
6817.63
-154.948
6886.15
-152.825
6953.63
-150.308
7017.82
-147.819
7080.85
-145.654
7141.33
-143.766
7200.53
-142.384
7258.55
-141.691
7315.4
-141.708
7372.41
-142.151
7428.05
-142.873
7484.79
-143.771
7539.87
-144.649
7596.68
-145.391
7651.44
-145.976
7708.03
-146.549
7762.56
-147.163
7819.2
-147.912
7873.93
-148.621
7930.43
-149.249
7985.21
-149.521
8041.4
-149.76
8096.65
-150.267
8153.92
-151.327
8211.23
-152.614
8270.99
-154.008
8331.09
-155.049
8393.04
-155.528
8454.93
-155.182
8517.66
-154.145
8579.88
-152.528
8642.2
-150.637
8703.91
-148.613
8765.43
-146.704
8826.5
-144.976
8887.38
-143.592
8948.12
-142.566
9008.88
-142.003
9069.88
-141.873
9131.26
-142.334
9193.53
-143.33
9256.46
-144.879
9323.21
-148.708
9386.12
-143.352
-146.402
1951.95
-277.268
2072.55
-319.474
2191.58
-332.529
2307.88
-325.695
2421.3
-320.225
2527.56
-308.102
2635.07
-293.027
2727.79
-269.231
2819.37
-236.98
2895.98
-206.648
2976.06
-187.559
3058.77
-188.528
3152.45
-201.963
3248.87
-215.735
3349.33
-223.529
3447.9
-218.777
3538.1
-199.183
3621.47
-187.568
3700.1
-195.97
3787.49
-218.465
3874.06
-256.49
3972.81
-297.258
4064.3
-321.89
4159.67
-340.664
4250.91
-357.526
4348.74
-362.791
4441.37
-352.916
4533.14
-335.301
4618.64
-318.958
4703.79
-305.843
4786.02
-292.04
4864.72
-275.445
4939.79
-260.941
5013
-254.752
5087.77
-259.579
5167.71
-271.811
5253.66
-282.848
5343.72
-286.722
5435.36
-281.277
5523.64
-267.754
5607.9
-249.546
5685.66
-230.787
5757.92
-216.077
5824.97
-206.428
5887.51
-198.697
5943.8
-191.648
5992.93
-186.337
6039.37
-183.285
6078.28
-182.396
6113.78
-181.388
6142.32
-180.21
6167.39
-178.103
6185.79
-175.014
6200.66
-170.234
6208.8
-164.419
6213.12
-157.247
6210.25
-149.65
6203.16
-141.011
6189.18
-132.909
6170.93
-125.051
6146.81
-118.107
6118.42
-111.862
6085.87
-106.802
6049.31
-103.303
6010.68
-100.46
5968.39
-99.3083
5926.03
-97.9695
5880.26
-98.3326
5835.88
-97.2766
5787.87
-98.0001
5741.45
-96.6114
5691.03
-97.4919
5642.46
-96.086
5590.07
-97.3705
5539.53
-96.3627
5486.25
-97.7837
5435.58
-97.6151
5384.9
-101.132
5339.55
-104.938
5297.28
-112.161
5262.42
-118.538
5232.19
-126.632
5209.23
-132.537
5190.79
-138.478
5178.41
-142.119
5170.09
-145.666
5166.82
-147.948
5167.49
-150.466
5172.76
-152.622
5182.13
-155.213
5195.92
-158.012
5214.07
-161.327
5236.71
-165.197
5264.1
-169.661
5296.18
-174.84
5333.93
-181.295
5376.31
-187.544
5427.85
-200.322
5491.59
-207.255
-209.02
2113.48
-389.599
2240.62
-447.813
2364.71
-460.719
2485.2
-450.283
2602.66
-442.347
2713.41
-426.177
2825.38
-406.189
2924.29
-375.101
3022.94
-333.853
3108.93
-296.361
3198.48
-273.692
3289.16
-275.345
3386.18
-290.237
3480.03
-302.72
3570.61
-304.685
3651.47
-289.583
3715.12
-253.774
3762.02
-226.804
3793.06
-224.395
3819.56
-234.975
3830.07
-263.779
3837.71
-294.175
3824.08
-307.906
3807.4
-319.928
3787.82
-341.502
3783.99
-355.677
3784.74
-355.163
3792.62
-341.114
3799.06
-327.391
3811.4
-318.748
3829.61
-313.124
3854.13
-304.609
3882.46
-294.761
3912.92
-290.907
3947.97
-300.138
3993.23
-321.883
4052.21
-346.032
4124.92
-363.586
4208.59
-368.327
4295.85
-359.464
4384.09
-341.009
4468.47
-318.481
4548.12
-297.997
4622.28
-282.551
4690.93
-268.147
4751.14
-252.895
4800.84
-237.988
4844.46
-224.2
4875.87
-213.326
4900.3
-202.586
4913.7
-192.463
4920.85
-181.852
4918.05
-170.792
4909.48
-157.851
4890.95
-143.744
4866.06
-127.77
4830.12
-111.133
4786.8
-92.74
4732.07
-74.8345
4669.46
-57.3806
4596.6
-41.3472
4515.86
-26.5508
4427.16
-13.5028
4330.78
-2.99552
4229.65
5.86427
4121.59
11.6539
4012.45
16.5643
3897.2
18.6023
3783.93
21.5183
3664.28
22.2267
3547.25
25.3283
3423.2
25.9874
3302.9
28.8745
3176.38
28.1628
3054.52
29.2133
2928.9
26.3808
2809.56
23.5715
2691.32
14.2402
2583.9
2.46324
2482.15
-14.2143
2393.79
-30.8623
2313.04
-49.6004
2244.74
-65.5926
2183.39
-80.686
2131.8
-92.3644
2086.12
-103.214
2048.25
-112.255
2016.24
-121.362
1991.4
-130.072
1973.01
-139.365
1961.87
-149.093
1958.06
-159.644
1962.02
-171.118
1974.32
-183.624
1995.09
-197.134
2025.38
-212.705
2065.31
-228.463
2114.4
-249.999
2189
-282.303
-284.981
2238.67
-494.683
2360.82
-568.194
2477.8
-580.145
2590.06
-564.522
2699.14
-553.213
2802.44
-533.5
2908.27
-510.275
3003.84
-474.387
3100.74
-426.163
3185.7
-381.994
3271.17
-354.191
3351.51
-352.746
3429.73
-363.096
3496.28
-366.783
3551.58
-355.841
3589.08
-321.348
3599.48
-257.474
3582.27
-202.747
3537.65
-177.608
3476.95
-163.376
3386.05
-174.12
3283.45
-183.095
3150.36
-176.711
3016.2
-178.32
2884.59
-214.186
2781.51
-249.295
2692.24
-271.045
2619.86
-268.958
2550.82
-263.566
2494.23
-263.654
2451.13
-273.303
2424.65
-282.135
2413.02
-287.061
2413.4
-294.847
2427.02
-317.159
2459.02
-356.683
2512.52
-401.842
2587.41
-440.669
2679.78
-461.821
2779.02
-461.592
2881.85
-445.39
2982.98
-421.508
3081.75
-397.592
3177.29
-378.86
3269.61
-360.323
3355.02
-339.198
3431.3
-317.026
3504.39
-294.551
3566.37
-275.999
3623.48
-257.205
3670.3
-239.782
3712.69
-222.071
3745.76
-204.365
3774.36
-184.111
3792.46
-161.787
3803.91
-136.391
3802.77
-109.695
3793.49
-80.3987
3771.07
-51.2528
3739.73
-22.7093
3696.57
3.90247
3644.63
28.5034
3583.86
50.6163
3514.65
69.048
3440.18
84.8722
3357.54
96.4203
3273.47
105.849
3181.75
111.469
3092.13
116.967
2994.52
120.137
2900.11
125.333
2796.82
128.452
2697.88
133.213
2589.96
134.372
2486.82
136.418
2376.01
134.479
2269.95
132.072
2161.98
119.374
2065.07
100.95
1971.17
76.2863
1889.57
51.4638
1811.98
24.511
1744.93
1.07368
1681.18
-20.3568
1624.95
-37.2492
1571.36
-52.6288
1523.42
-65.8539
1478.74
-79.2143
1439.5
-92.4492
1404.96
-106.799
1376.58
-122.22
1354.69
-139.218
1340.21
-157.914
1333.98
-178.397
1336.41
-200.514
1348.49
-225.356
1371.21
-251.778
1402.04
-281.068
1449.93
-330.454
-348.386
2290.71
-585.59
2389.26
-669.217
2481.34
-677.427
2567.66
-656.022
2651.22
-642.148
2731.2
-621.58
2817.04
-597.892
2897.17
-561.783
2982.39
-509.477
3057.05
-460.02
3129.57
-422.355
3191.03
-408.842
3245
-406.029
3284.12
-396.179
3311.29
-369.586
3319.66
-314.538
3296.16
-219.514
3239.16
-133.09
3149.71
-82.9473
3042.61
-39.6855
2902.75
-28.7113
2761.07
-22.158
2593.54
-8.27855
2439.7
-17.5561
2295.23
-75.9942
2184.85
-133.11
2084.56
-173.415
2001.36
-182.618
1918.4
-184.955
1847.09
-194.456
1786.11
-218.57
1739.62
-245.228
1708.93
-267.405
1694.29
-291.444
1697.98
-331.496
1724.25
-391.897
1773.77
-459.013
1844.17
-518.316
1930.07
-553.659
2019.63
-558.631
2111.35
-542.678
2200.63
-516.446
2287.51
-488.439
2371.93
-466.615
2456.27
-446.136
2537.6
-422.21
2613.08
-395.315
2689.61
-367.012
2757.77
-343.29
2825.38
-319.976
2885.84
-298.385
2945.57
-276.745
2998.13
-254.66
3048.83
-229.239
3090.96
-200.624
3128.89
-167.857
3155.1
-132
3173.68
-92.0944
3178.64
-51.4143
3174.1
-11.3108
3156.72
26.59
3129.9
61.4314
3093.85
92.6137
3049.11
118.948
2998.76
141.627
2939.81
159.134
2878.75
173.345
2809.25
183.182
2740.36
192.209
2661.72
199.549
2584.05
208.447
2496.47
215.22
2413.44
221.291
2323.32
222.947
2240.02
223.909
2149.65
222.587
2061.81
221.866
1968.17
208.786
1883.12
185.386
1799.45
154.535
1727.29
122.244
1658.92
87.6217
1601.83
55.9432
1549.13
27.2778
1505.39
3.62617
1465.43
-17.3874
1432.01
-35.8146
1402.07
-53.6743
1377.3
-71.2732
1356.35
-89.8019
1340.24
-109.621
1328.87
-131.263
1322.83
-154.971
1322.64
-180.883
1328.65
-208.928
1341.82
-240.361
1363.3
-274.812
1391.59
-310.333
1427.07
-366.603
-398.36
2234.52
-642.532
2298.12
-730.514
2348.61
-730.885
2389.17
-697.999
2426.75
-680.877
2463.93
-662.498
2512.84
-644.172
2564.18
-616.733
2630.01
-569.665
2692.67
-523.078
2757.25
-481.14
2811.48
-459.83
2860.96
-449.6
2900.79
-433.628
2936.34
-400.696
2958.6
-330.246
2946.53
-199.539
2897.34
-75.8012
2815.62
0.792923
2721.98
67.358
2605.23
84.9841
2503.68
89.9441
2376.85
115.213
2262.45
106.982
2151.49
29.3939
2066.06
-43.9173
1980
-94.2537
1903.88
-107.15
1821.19
-108.786
1744.26
-119.023
1672.44
-150.16
1611.9
-189.023
1565.16
-224.816
1533.21
-263.161
1519.58
-321.374
1529.53
-404.531
1563.1
-494.815
1617.52
-574.84
1686.97
-623.92
1757.49
-632.285
1828.22
-614.859
1896.3
-586.473
1962.91
-555.765
2027.33
-531.758
2092.22
-510.675
2155.78
-486.924
2216.07
-459.227
2281.06
-428.427
2339.65
-402.836
2400.26
-377.491
2455.51
-354.473
2512.79
-331.478
2565.07
-307.854
2618.42
-279.908
2665.16
-247.579
2710.06
-209.747
2745.15
-167.148
2774.8
-118.679
2792.45
-68.2854
2801.94
-17.524
2799.01
31.2883
2786.72
76.7362
2764.8
117.683
2733.79
152.676
2696.82
183.031
2650.61
207.363
2601.55
227.58
2543.59
242.218
2486.64
254.997
2420.25
266.229
2353.34
280.947
2273.55
294.236
2195.71
304.511
2109.04
307.843
2029.07
307.92
1944.41
304.178
1864.39
304.529
1777.14
292.973
1698.05
266.355
1621.53
227.704
1560.13
184.567
1506.64
137.781
1468.51
93.7968
1437.87
54.7351
1417.99
22.5204
1402.46
-4.58044
1392.75
-27.4439
1384.96
-48.0978
1380.02
-67.6878
1376.2
-87.6255
1374.19
-108.826
1373.7
-131.939
1375.18
-157.441
1379.23
-185.678
1386.66
-217.079
1399.03
-253.135
1417.74
-293.963
1442.67
-335.434
1470.68
-394.785
-435.587
2098.18
-666.594
2099.52
-735.736
2074.35
-713.271
2036.8
-667.76
2002.67
-653.943
1978.95
-649.375
1980.23
-648.257
1998.74
-644.359
2049.29
-617.841
2111.1
-588.608
2185.09
-549.087
2253.98
-521.035
2324.33
-505.027
2391.14
-486.663
2457.36
-448.174
2510.32
-362.069
2528.77
-198.465
2514.04
-44.3993
2471.95
50.8449
2415.77
142.831
2331.47
176.636
2266.75
178.425
2170.74
213.219
2075.02
210.791
1978.17
120.071
1904.84
36.4745
1829.49
-21.1732
1762.82
-37.4428
1687.7
-39.2143
1615.44
-50.3807
1545.74
-88.7629
1485.79
-141.405
1437.81
-190.948
1401.58
-241.358
1380.95
-314.273
1383.17
-417.835
1408.9
-529.889
1455.15
-629.755
1516.16
-692.111
1577.01
-702.188
1636.7
-681.548
1692.6
-649.604
1746.74
-615.163
1798.59
-587.981
1850.27
-564.435
1899.76
-538.677
1946.23
-509.134
1999.45
-476.619
2047.44
-449.624
2099.24
-423.21
2146.8
-399.544
2198.43
-376.659
2246.44
-352.802
2297.8
-324.168
2344.27
-289.83
2390.92
-248.447
2428.83
-199.939
2462.46
-143.803
2485.02
-84.803
2500.84
-24.9796
2505.28
33.3454
2501
88.4239
2486.98
138.72
2463.66
182.182
2434.34
219.694
2395.78
250.439
2353.97
276.586
2301.95
296.96
2250.97
312.891
2192.85
325.407
2135.57
343.934
2064.68
364.306
1995.1
379.012
1917.33
383.773
1845.95
383.214
1767.64
379.73
1694.26
379.542
1616.46
365.875
1549.58
332.558
1488.84
282.854
1446.48
225.457
1414.47
164.527
1398.16
107.805
1388.58
59.3425
1387.52
20.6654
1388.25
-9.92567
1391.69
-34.2825
1394.16
-54.8902
1396.56
-73.6927
1397.45
-92.4601
1397.58
-112.49
1396.75
-134.547
1395.54
-159.356
1394.98
-187.841
1396.74
-221.273
1402.98
-261.278
1414.98
-307.519
1432.67
-354.112
1451.14
-413.9
-460.819
1863.77
-615.3
1761.62
-630.677
1628.09
-582.593
1501.89
-543.376
1407.64
-561.197
1348.78
-595.62
1334.37
-630.221
1349.43
-664.231
1408.23
-669.151
1484.42
-665.307
1576.77
-633.975
1664.79
-604.827
1756.2
-588.947
1846.33
-573.946
1942.73
-539.414
2036.43
-448.599
2099.13
-253.314
2126.77
-64.2004
2129.54
49.6747
2115.48
169.74
2054.46
233.267
2002.44
239.42
1916.89
293.99
1829.17
310.977
1741.27
202.382
1680.04
101.582
1617.75
33.2426
1565.46
13.4984
1504.97
14.1932
1446.38
6.86275
1387.85
-33.1166
1336.13
-93.3448
1293.49
-151.527
1259.57
-209.944
1238.12
-295.19
1237.32
-418.585
1258.57
-552.39
1299.49
-671.906
1355.22
-747.841
1410.98
-760.694
1465.99
-737.62
1516.1
-701.418
1562.92
-662.439
1607.14
-632.682
1650.87
-607.586
1691.06
-580.233
1727.43
-549.702
1771.76
-516.759
1811.52
-490.581
1856.25
-464.496
1897.31
-441.881
1943.92
-420.571
1987.91
-398.258
2037.14
-370.521
2082.68
-335.967
2130.13
-292.879
2170.04
-240.367
2206.56
-177.423
2231.77
-109.779
2250.2
-40.3461
2257.74
27.0848
2258.05
90.8975
2249.73
149.841
2232.54
201.855
2209.48
246.952
2177.42
284.299
2142.21
316.794
2096.9
343.181
2051.84
363.691
1999.32
378.152
1949.55
399.228
1888.66
424.48
1830.3
442.624
1763.26
449.101
1699.82
450.459
1627.32
449.22
1559.79
449.649
1492.84
430.133
1442.53
385.051
1400.29
322.507
1375.49
251.541
1359.11
178.366
1355.42
111.645
1355.78
56.5502
1361.84
14.1093
1367.48
-17.6113
1373.78
-41.3946
1377.54
-60.2536
1379.85
-76.8398
1379.47
-93.2033
1377.09
-110.857
1372.42
-130.606
1366.2
-153.727
1360.1
-182.165
1356.62
-218.204
1357.92
-262.766
1363.69
-313.547
1372.75
-363.234
1378.85
-420.087
-474.3
1515.58
-471.931
1307.59
-429.142
1101.57
-389.495
953.46
-407.545
876.67
-496.286
852.083
-587.358
874.948
-658.096
917.467
-719.715
993.949
-742.898
1077.8
-754.107
1174.07
-722.048
1263.71
-683.49
1358.55
-663.304
1454.52
-650.607
1562.32
-621.634
1675.72
-534.347
1761.8
-315.052
1810.7
-92.5463
1832.76
38.976
1839.04
186.168
1794.07
287.721
1750.53
308.797
1672
375.509
1594.77
399.144
1519.27
272.64
1472.8
157.113
1425.36
78.6369
1388.42
52.7804
1343.38
51.7453
1299.79
44.7279
1254.2
1.69565
1211.71
-66.0739
1174.19
-131.09
1142.26
-195.433
1119.93
-288.913
1115.22
-426.539
1129.84
-577.36
1163.13
-714.634
1212.2
-804.875
1262.78
-821.6
1314.56
-797.822
1360.84
-756.57
1402.12
-710.397
1440.53
-676.56
1478.5
-648.362
1511.92
-616.593
1540.65
-582.531
1578.08
-548.395
1611.11
-522.158
1649.84
-496.068
1685.13
-474.05
1727.17
-454.859
1767.42
-434.592
1814.52
-408.819
1859.29
-375.643
1907.93
-332.146
1950.4
-276.454
1990.51
-207.475
2019.39
-131.358
2040.8
-51.8729
2050.06
25.5299
2052.56
97.1452
2048.12
162.407
2036.26
221.035
2019.08
272.458
1993.22
315.532
1964.57
353.408
1926.51
384.626
1888.32
409.324
1841.05
426.959
1796.57
449.714
1744.73
475.779
1696.94
495.311
1638.2
506.054
1580.38
511.964
1514.63
512.178
1456.65
509.157
1403.25
478.995
1367.27
420.484
1337.26
347.338
1321.13
266.219
1310.74
183.693
1310.84
109.191
1313.66
48.8178
1321.17
3.59015
1327.65
-28.7598
1334.32
-51.5967
1338.13
-68.524
1340.16
-82.6631
1339.03
-96.2319
1335.13
-110.72
1327.97
-127.121
1318.73
-147.832
1310.05
-176.413
1304.57
-215.326
1302.97
-263.207
1302.16
-314.362
1300.85
-362.979
1293.21
-413.127
-478.85
1113.6
-282.533
910.269
-220.68
739.929
-222.994
652.914
-321.349
639.255
-483.066
660.988
-614.134
711.452
-702.737
763.613
-776.537
838.003
-807.45
911.338
-827.376
997.728
-799.378
1078.49
-759.373
1162.91
-739.309
1247.61
-732.92
1344.49
-713.87
1450.48
-633.381
1532.42
-389.964
1579.03
-132.464
1600.15
17.8124
1609.04
188.884
1569.57
320.369
1531.99
352.608
1461.63
438.45
1395.39
480.146
1331.33
330.604
1298.42
193.806
1265.01
103.554
1242.75
73.7041
1212.44
75.3122
1183.35
73.458
1150.05
33.4039
1115.35
-33.735
1080.9
-98.5039
1049.1
-164.884
1024.07
-264.997
1012.94
-415.653
1017.58
-582.168
1040.31
-737.658
1081.35
-844.882
1126.78
-868.901
1176.34
-847.483
1220.56
-801.655
1258.74
-748.366
1293.86
-711.662
1328.15
-681.665
1356.75
-646.511
1379.86
-610.287
1412.24
-575.943
1440.01
-551.32
1473.77
-526.1
1503.9
-505.976
1541.65
-489.896
1578.14
-473.163
1622.79
-450.514
1666.65
-420.603
1716.09
-378.539
1760.63
-321.968
1804.13
-248.411
1836.82
-164.512
1862
-74.3974
1873.96
14.1733
1878.2
95.286
1875.77
167.106
1867.68
231.217
1855.79
288.107
1835.74
336.993
1813.18
380.56
1781.94
416.454
1750.91
445.714
1709.08
468.829
1669.73
494.349
1625.99
518.785
1586.03
540.337
1532.7
557.758
1480.46
567.882
1423.69
566.107
1378
557.513
1336.74
518.137
1308.53
451.054
1282.96
370.84
1268.95
281.793
1259.86
190.657
1261.07
108.456
1265.14
42.6747
1274.05
-5.47452
1282.04
-38.4631
1290.23
-60.2677
1295.45
-75.0392
1298.64
-86.373
1298.08
-96.5106
1293.85
-106.96
1285.56
-119.312
1275.38
-138.001
1266.68
-167.915
1260.88
-209.723
1255.82
-258.203
1247.01
-305.686
1236.84
-352.811
1224.58
-400.912
-484.859
871.189
-122.766
708.619
-67.7752
593.81
-126.376
558.397
-302.468
578.248
-518.439
614.102
-669.762
665.602
-761.293
711.149
-837.106
775.729
-869.854
835.215
-892.752
906.606
-861.774
974.032
-813.491
1045.19
-785.737
1114.92
-778.611
1196.81
-764.495
1291.99
-693.976
1363.46
-432.653
1402.28
-147.591
1418.72
15.5677
1425
208.312
1387.19
369.37
1351.48
414.135
1284.29
508.786
1223.83
554.798
1168
382.946
1147.04
225.495
1127.48
120.98
1119.51
82.857
1103.77
81.673
1089.12
80.6112
1067.48
42.3718
1039.26
-22.8502
1006.59
-84.9812
973.408
-151.013
943.261
-252.439
922.978
-408.644
915.104
-584.729
925.304
-757.235
957.687
-885.356
998.517
-920.825
1047.14
-905.625
1090.9
-855.705
1127.75
-793.037
1160.98
-751.159
1192.82
-716.826
1218.04
-675.308
1236.74
-633.772
1264.88
-597.598
1288.13
-572.843
1317.56
-547.272
1342.92
-527.559
1376.46
-514.356
1409.02
-500.847
1451.02
-482.073
1493.55
-457.038
1543.61
-417.793
1590.32
-361.004
1637.51
-284.098
1674.42
-192.899
1704.12
-92.8283
1720.46
6.63138
1728.17
97.5514
1727.63
176.847
1721.73
245.574
1713.87
305.303
1698.94
358.252
1681.98
406.32
1657.12
445.49
1632.86
477.983
1596.7
507.111
1563.2
534.208
1526.34
555.538
1491.94
579.747
1443.85
604.246
1398.75
616.562
1351.4
610.747
1315.1
595.591
1280
549.243
1253.91
476.558
1229.17
390.375
1215.76
293.539
1207.73
193.398
1210.53
103.041
1216.54
31.443
1227.57
-19.8275
1237.69
-53.6121
1247.92
-74.3965
1254.93
-86.9121
1259.47
-95.1104
1259.57
-101.195
1255.24
-106.815
1246.74
-114.901
1237.43
-132.367
1230.33
-164.082
1224.27
-206.529
1215.35
-251.593
1201.93
-294.068
1192.16
-344.24
1192.58
-402.088
-506.087
691.416
32.6884
579.682
51.7614
517.192
-64.8727
515.127
-298.967
548.593
-550.364
585.904
-710.306
632.315
-800.471
669.657
-877.946
726.412
-915.905
777.997
-943.618
839.648
-914.164
897.615
-866.604
959.75
-839.762
1018.3
-835.771
1087.12
-830.038
1173.6
-773.498
1235.09
-488.083
1264.74
-171.833
1274.14
4.58847
1274.08
218.675
1233.63
401.018
1195.86
455.644
1128.78
565.473
1072.65
628.26
1024.98
424.465
1017.75
235.947
1013.62
115.952
1020.5
74.4024
1019.37
76.4453
1018.22
82.3227
1005.36
54.7873
980.436
0.963317
947.781
-52.7208
911.739
-114.646
874.011
-214.486
842.502
-376.185
821.097
-562.43
818.403
-753.962
842.836
-907.861
880.307
-959.459
928.858
-953.513
972.746
-899.866
1009.19
-828.722
1041.39
-782.811
1071.38
-745.389
1094.23
-699.508
1109.78
-654.301
1134.83
-617.101
1154.69
-594.178
1180.7
-569.254
1201.71
-550.919
1231.03
-541.012
1259.26
-531.794
1298.2
-518.072
1338.73
-499.219
1389.05
-464.936
1437.37
-410.64
1487.73
-332.329
1528.49
-234.858
1562.6
-124.792
1583.75
-14.6692
1596.16
86.9991
1598.55
176.06
1594.6
251.107
1589.51
313.58
1578.54
370.129
1566.52
422.399
1547.18
464.967
1528.32
501.679
1497.99
537.163
1471.32
565.797
1440
586.009
1409.88
614.676
1367.26
645.253
1328.97
658.477
1288.39
648.625
1257.97
628.809
1226.11
579.269
1201.15
504.039
1177.09
412.607
1164.41
308.054
1157.41
198.53
1161.61
99.641
1169.24
22.0272
1181.99
-32.4064
1193.8
-66.8394
1205.61
-86.3524
1213.93
-96.2392
1219.46
-100.847
1220.1
-102.398
1216.25
-103.156
1209.1
-107.972
1202.57
-125.918
1198.16
-159.654
1192.72
-201.092
1183.31
-242.138
1173.32
-284.124
1172.86
-343.747
1190.5
-419.709
-541.286
564.406
141.722
496.832
108.748
471.781
-59.5264
487.699
-333.026
524.101
-603.935
557.688
-764.92
598.217
-849.628
628.867
-924.559
679.88
-965.834
725.958
-996.342
780.28
-959.707
830.737
-902.251
885.809
-866.868
935.255
-857.06
993.286
-852.365
1074.7
-813.111
1129.54
-510.362
1152.33
-168.527
1156.17
17.3986
1150.45
252.522
1107.24
457.04
1064.94
522.722
994.254
639.142
940.507
700.321
902.677
461.299
911.225
238.891
923.45
100.945
944.237
53.0764
956.188
53.1744
965.804
63.5214
958.056
48.1168
933.888
5.89241
900.924
-40.569
861.643
-95.9161
814.587
-186.113
771.149
-346.367
737.204
-538.788
723.258
-749.273
741.85
-934.782
777.696
-1007.54
826.714
-1013.64
870.006
-955.389
905.008
-873.017
935.196
-820.192
962.548
-776.715
982.712
-724.039
995.107
-672.293
1017.27
-632.089
1034.19
-609.003
1057.27
-582.846
1073.89
-563.031
1098.48
-555.081
1121.65
-549.131
1156.98
-541.481
1195.07
-530.266
1245.74
-502.998
1295.99
-451.926
1349.69
-373.096
1394.44
-269.857
1433.13
-150.867
1459.24
-30.9401
1476.64
80.7589
1483.06
179.841
1482.31
261.44
1479.72
326.552
1471.92
385.321
1464.18
439.913
1449.29
484.952
1434.71
524.985
1410.88
563.833
1391.46
592.087
1365.13
612.759
1338.96
645.992
1301.32
681.447
1268.18
695.141
1231.94
682.168
1205.09
657.719
1175.03
605.542
1150.6
527.667
1126.49
431.154
1113.53
319.015
1106.52
199.857
1111.27
91.9115
1119.86
7.78139
1133.88
-50.1659
1147.06
-85.5127
1160.28
-103.919
1169.99
-111.29
1176.89
-112.403
1179.09
-109.672
1177.55
-106.209
1174.08
-108.941
1172.29
-128.095
1172.09
-163.039
1169.73
-201.861
1164.06
-238.984
1161.01
-282.953
1168.57
-352.543
1191.86
-443.757
-579.418
473.011
255.097
439.273
152.852
439.211
-57.4123
464.196
-353.215
499.093
-634.289
527.447
-793.686
562.644
-875.491
588.411
-951.78
635.936
-1001.45
679.03
-1037.49
728.364
-999.608
773.551
-942.722
823.134
-908.514
865.418
-899.096
914.263
-900.372
991.966
-885.25
1041.33
-555.738
1057.86
-182.022
1055.66
15.2477
1042.64
273.136
994.571
493.775
946.057
572.568
870.709
701.004
822.671
766.189
799.343
478.233
826.57
214.188
855.507
63.1309
889
18.7281
911.381
25.9808
928.62
48.4928
923.069
54.8512
897.669
31.62
864.289
-6.06825
822.345
-52.0576
765.843
-128.534
711.512
-290.339
667.457
-493.054
645.088
-725.611
660.561
-947.304
695.79
-1042.79
744.079
-1060.09
784.75
-995.261
816.728
-903.329
843.497
-845.679
866.887
-798.043
883.804
-741.97
893.316
-687
913.235
-645.587
928.127
-625.308
948.778
-599.056
960.89
-578.089
979.8
-571.355
996.45
-569.109
1027.09
-569.237
1062.85
-568.246
1113.55
-550.274
1165.61
-505.578
1222.16
-427.995
1270.56
-320.206
1313.69
-192.344
1344.4
-62.5513
1366.24
60.236
1377.18
169.804
1380.87
258.776
1381.06
328.881
1375.99
390.703
1371.6
447.757
1360.14
495.967
1349.61
539.746
1332.62
580.083
1319.87
609.275
1297.63
633.905
1274.14
673.935
1240.12
713.773
1210.96
727.91
1177.85
712.65
1154.13
684.322
1125.62
632.329
1100.98
555.029
1075.6
454.863
1061.32
335.451
1053.75
205.812
1059
87.831
1068.8
-3.48998
1084.5
-65.3105
1099.55
-101.652
1114.82
-118.969
1126.74
-123.878
1136.24
-121.757
1141.63
-115.292
1144.2
-108.623
1145.82
-110.462
1149.61
-131.685
1154.43
-167.605
1155.87
-203.084
1153.25
-236.193
1152.82
-282.446
1161.59
-361.213
1182.34
-464.426
-614.954
402.724
313.488
397.946
147.222
414.229
-93.461
442.979
-400.851
474.542
-683.765
497.494
-838.205
527.791
-915.357
549.56
-990.013
595.238
-1046.88
636.258
-1085.67
680.925
-1035.93
720.869
-966.66
765.186
-922.292
801.309
-903.718
842.304
-903.029
918.056
-912.757
963.638
-566.617
976.016
-167.421
969.505
39.555
950.729
320.953
899.776
558.383
846.164
649.348
765.914
783.573
725.152
828.761
718.038
486.434
763.015
180.067
806.885
15.4988
850.046
-26.5936
878.432
-14.9464
899.859
17.1157
895.547
43.9373
868.499
38.4748
835.156
5.85688
791.97
-29.1771
727.72
-83.108
665.868
-241.994
615.478
-452.458
587.828
-706.74
602.354
-970.037
636.916
-1090.29
682.325
-1117.73
717.419
-1044.16
743.736
-939.927
765.172
-874.746
783.279
-820.43
795.782
-759.572
801.6
-699.167
819.166
-655.215
831.809
-635.378
849.803
-606.091
858.326
-581.263
872.028
-572.842
879.953
-570.366
903.654
-579.983
936.298
-593.109
985.914
-585.38
1040.62
-549.789
1100.76
-473.64
1153.37
-361.809
1201.35
-226.345
1236.52
-86.8283
1262.54
46.5678
1278.29
165.251
1286.79
260.949
1290.38
336.724
1288.39
401.181
1287.15
459.843
1279.74
509.508
1274.83
554.25
1264.55
594.098
1256.79
624.5
1237.35
654.365
1215.44
701.118
1184.21
743.643
1158.39
757.195
1128.05
740.198
1106.48
708
1077.88
656.949
1051.24
580.465
1023.37
476.685
1007.43
349.035
999.713
207.395
1006.16
77.9957
1017.95
-21.4053
1036.15
-87.6702
1053.92
-125.386
1072.16
-141.962
1087.41
-144.899
1100.76
-140.112
1110.47
-130.414
1117.7
-120.659
1124.49
-121.846
1133.86
-145.125
1142.84
-180.366
1145.49
-208.954
1141.83
-235.073
1139.53
-281.927
1146.83
-369.686
1166.51
-484.808
-651.116
356.761
384.087
368.909
146.992
394.469
-113.565
423.81
-423.089
451.37
-704.635
469.298
-854.579
495.211
-930.475
513.37
-1008.2
557.926
-1078.73
598.036
-1122.84
639.21
-1067.68
675.193
-997.855
714.619
-953.931
745.126
-935.275
779.096
-938.737
853.228
-981.592
895.609
-606.938
904.32
-175.218
892.398
44.6621
865.841
352.515
810.542
600.477
749.124
711.428
665.181
851.603
641.384
869.446
653.289
467.943
715.122
119.639
772.012
-50.0949
822.517
-77.5388
853.444
-49.51
876.996
-2.80748
873.907
49.8964
845.57
68.8917
812.93
41.4432
768.89
18.122
698.967
-11.1186
635.587
-175.752
583.592
-398.004
552.763
-674.045
566.988
-980.526
599.189
-1121.46
638.137
-1153.77
664.655
-1068.99
683.675
-956.49
699.121
-888.169
711.641
-830.18
719.253
-767.895
721.435
-706.576
736.958
-663.25
747.054
-646.752
762.327
-616.233
769.249
-591.682
779.937
-580.661
777.612
-571.963
790.593
-590.204
818.363
-623.722
866.506
-630.304
923.961
-609.326
987.121
-535.627
1043.12
-420.467
1095.42
-277.425
1134.43
-127.437
1164.52
17.3137
1185.09
144.919
1197.63
248.856
1204.47
331.745
1205.9
399.4
1208.97
459.586
1207.11
510.201
1208.9
555.99
1203.78
597.893
1198.33
633.768
1180.27
670.955
1160.34
725.104
1132.01
770.176
1108.96
783.831
1080.45
766.114
1059.58
731.71
1029.4
685.413
1000.05
612.834
969.779
505.481
953.162
368.191
946.603
212.693
955.434
70.7698
970.21
-37.2411
991.812
-108.263
1013.14
-147.366
1035.09
-163.232
1054.38
-164.411
1072.02
-157.165
1085.76
-143.965
1096.67
-131.006
1107.64
-132.368
1121.14
-158.103
1131.47
-190.225
1131.9
-208.946
1124.89
-227.769
1120.82
-277.656
1128.87
-377.583
1151.57
-507.372
-690.113
321.619
411.443
347.662
111.106
379.149
-164.674
406.852
-470.33
429.647
-746.135
442.79
-890.002
464.805
-963.086
479.843
-1040.39
523.825
-1123.4
562.851
-1169.57
600.563
-1097.64
632.504
-1012.56
666.935
-955.46
692.529
-925.946
720.422
-926.079
793.981
-999.958
833.927
-610.385
840.446
-154.164
824.438
79.3546
791.74
414.734
735.1
671.9
674.417
795.872
588.948
939.548
577.738
904.244
606.729
441.244
681.78
53.9411
748.696
-122.067
803.26
-136.069
832.446
-92.3763
854.708
-35.6646
852.937
35.5211
826.104
74.4103
796.534
49.0146
752.084
42.7366
680.237
41.3546
622.835
-132.278
572.076
-356.874
537.441
-648.022
549.942
-1001.43
577.958
-1163.3
607.986
-1197.51
623.699
-1100.65
634.116
-978.55
643.558
-905.851
650.914
-842.29
652.98
-775.986
650.755
-711.535
663.67
-667.293
669.788
-649.757
682.178
-616.029
688.082
-591.191
697.145
-575.344
685.864
-553.298
687.215
-578.151
709.051
-637.297
756.171
-661.731
814.636
-654.897
879.921
-584.228
938.578
-466.61
994.508
-317.865
1037
-157.867
1071.19
-3.28155
1096.15
132.172
1112
244.761
1121.69
334.636
1125.77
404.961
1133.82
463.681
1138.76
512.63
1146.94
558.553
1145.57
604.079
1142.03
645.537
1126.35
688.351
1109.57
747.364
1084.32
794.156
1063.46