# vtk DataFile Version 2.0
track0
ASCII
DATASET POLYDATA
POINTS 6430 float
-0.0205 0.001 1e-05
-0.0204727 0.00100011 1e-05
-0.0204454 0.00100021 1e-05
-0.0204181 0.00100032 1e-05
-0.0203908 0.00100042 1e-05
-0.0203635 0.00100053 1e-05
-0.0200299 0.00100181 1e-05
-0.0196963 0.00100312 1e-05
-0.0193627 0.00100443 1e-05
-0.0190291 0.00100573 1e-05
-0.0186954 0.00100701 1e-05
-0.018369 0.00100821 1e-05
-0.0180425 0.00100944 1e-05
-0.017716 0.00101066 1e-05
-0.0173896 0.00101188 1e-05
-0.0170631 0.00101307 1e-05
-0.0167436 0.00101419 1e-05
-0.0164242 0.00101534 1e-05
-0.0161047 0.00101648 1e-05
-0.0157852 0.00101761 1e-05
-0.0154657 0.00101873 1e-05
-0.0151531 0.00101977 1e-05
-0.0148405 0.00102085 1e-05
-0.0145279 0.00102191 1e-05
-0.0142152 0.00102297 1e-05
-0.0139026 0.00102401 1e-05
-0.0135967 0.00102499 1e-05
-0.0132908 0.00102599 1e-05
-0.0129848 0.00102698 1e-05
-0.0126789 0.00102797 1e-05
-0.012373 0.00102894 1e-05
-0.0120736 0.00102985 1e-05
-0.0117742 0.00103078 1e-05
-0.0114749 0.00103171 1e-05
-0.0111755 0.00103263 1e-05
-0.0108761 0.00103354 1e-05
-0.0105832 0.00103438 1e-05
-0.0102902 0.00103524 1e-05
-0.00999724 0.00103611 1e-05
-0.00970429 0.00103697 1e-05
-0.00941133 0.00103781 1e-05
-0.00912465 0.00103859 1e-05
-0.00883797 0.00103939 1e-05
-0.00855129 0.00104019 1e-05
-0.00826461 0.00104099 1e-05
-0.00797793 0.00104177 1e-05
-0.00769739 0.00104249 1e-05
-0.00741686 0.00104323 1e-05
-0.00713632 0.00104398 1e-05
-0.00685578 0.00104471 1e-05
-0.00657525 0.00104543 1e-05
-0.00630072 0.00104609 1e-05
-0.0060262 0.00104677 1e-05
-0.00575167 0.00104746 1e-05
-0.00547714 0.00104814 1e-05
-0.00520262 0.00104879 1e-05
-0.00493398 0.00104939 1e-05
-0.00466533 0.00105002 1e-05
-0.00439669 0.00105064 1e-05
-0.00412805 0.00105126 1e-05
-0.0038594 0.00105186 1e-05
-0.00359652 0.0010524 1e-05
-0.00333363 0.00105297 1e-05
-0.00307074 0.00105354 1e-05
-0.00280786 0.00105411 1e-05
-0.00254497 0.00105465 1e-05
-0.00228772 0.00105514 1e-05
-0.00203046 0.00105564 1e-05
-0.00177321 0.00105614 1e-05
-0.00151596 0.00105662 1e-05
-0.0012587 0.00105707 1e-05
-0.00100696 0.00105748 1e-05
-0.000755223 0.00105794 1e-05
-0.000503482 0.00105834 1e-05
-0.000251741 0.00105861 1e-05
0 0.00105871 1e-05
0.000329256 0.00105853 1e-05
0.000658511 0.00105851 1e-05
0.000987767 0.00105842 1e-05
0.00131702 0.00105811 1e-05
0.00164628 0.00105749 1e-05
0.00197921 0.00105642 1e-05
0.00231214 0.00105586 1e-05
0.00264507 0.00105544 1e-05
0.002978 0.00105494 1e-05
0.00331093 0.00105415 1e-05
0.00364757 0.0010527 1e-05
0.00398422 0.00105191 1e-05
0.00432087 0.00105131 1e-05
0.00465751 0.00105067 1e-05
0.00499415 0.00104974 1e-05
0.00533455 0.00104801 1e-05
0.00567496 0.00104694 1e-05
0.00601536 0.00104606 1e-05
0.00635577 0.00104512 1e-05
0.00669616 0.00104391 1e-05
0.00704036 0.00104188 1e-05
0.00738456 0.00104044 1e-05
0.00772877 0.00103914 1e-05
0.00807297 0.00103779 1e-05
0.00841716 0.00103619 1e-05
0.0087652 0.00103381 1e-05
0.00911324 0.00103193 1e-05
0.00946129 0.00103013 1e-05
0.00980933 0.00102825 1e-05
0.0101574 0.00102618 1e-05
0.0105093 0.0010234 1e-05
0.0108612 0.00102101 1e-05
0.0112131 0.00101863 1e-05
0.0115651 0.00101617 1e-05
0.011917 0.00101355 1e-05
0.0122728 0.00101032 1e-05
0.0126287 0.00100738 1e-05
0.0129845 0.00100439 1e-05
0.0133404 0.00100131 1e-05
0.0136962 0.000998112 1e-05
0.0140561 0.000994406 1e-05
0.0144159 0.000990888 1e-05
0.0147757 0.000987285 1e-05
0.0151355 0.000983591 1e-05
0.0154954 0.000979805 1e-05
0.0158592 0.00097561 1e-05
0.016223 0.000971504 1e-05
0.0165869 0.000967312 1e-05
0.0169507 0.000963033 1e-05
0.0173145 0.000958666 1e-05
0.0176824 0.000953992 1e-05
0.0180503 0.000949331 1e-05
0.0184182 0.00094459 1e-05
0.0187861 0.00093977 1e-05
0.019154 0.000934868 1e-05
0.019526 0.000929739 1e-05
0.019898 0.000924572 1e-05
0.02027 0.000919333 1e-05
0.020642 0.000914024 1e-05
0.0210141 0.000908643 1e-05
0.0213902 0.000903091 1e-05
0.0217664 0.000897471 1e-05
0.0221425 0.00089179 1e-05
0.0225187 0.000886046 1e-05
0.0228948 0.000880239 1e-05
0.0232752 0.000874297 1e-05
0.0236555 0.000868279 1e-05
0.0240359 0.000862207 1e-05
0.0244162 0.000856079 1e-05
0.0247966 0.000849897 1e-05
0.0251385 0.000844294 1e-05
0.0254805 0.000838636 1e-05
0.0258224 0.00083294 1e-05
0.0261643 0.000827205 1e-05
0.0264797 0.00082188 1e-05
0.0265276 0.000821065 1e-05
0.0265756 0.000820249 1e-05
0.0266236 0.000819432 1e-05
0.0266716 0.000818614 1e-05
0.0267196 0.000817796 1e-05
0.0271085 0.000811164 1e-05
0.0274973 0.00080448 1e-05
0.0278862 0.00079775 1e-05
0.0282751 0.000790973 1e-05
0.028664 0.000784149 1e-05
0.0290572 0.000777264 1e-05
0.0294505 0.000770288 1e-05
0.0298437 0.000763266 1e-05
0.0302369 0.000756198 1e-05
0.0306301 0.000749083 1e-05
0.0310278 0.000741945 1e-05
0.0314254 0.000734685 1e-05
0.031823 0.000727376 1e-05
0.0322206 0.000720019 1e-05
0.0326182 0.000712613 1e-05
0.0330203 0.00070521 1e-05
0.0334223 0.000697656 1e-05
0.0338244 0.000690049 1e-05
0.0342264 0.000682389 1e-05
0.0346285 0.000674674 1e-05
0.035035 0.000666976 1e-05
0.0354416 0.000659103 1e-05
0.0358481 0.000651168 1e-05
0.0362546 0.000643172 1e-05
0.0366612 0.000635127 1e-05
0.0370722 0.000627092 1e-05
0.0374833 0.000618878 1e-05
0.0378944 0.000610571 1e-05
0.0383055 0.000602191 1e-05
0.0387166 0.000593785 1e-05
0.0391322 0.000585357 1e-05
0.0395479 0.000576747 1e-05
0.0399635 0.000568007 1e-05
0.0403792 0.000559181 1e-05
0.0407949 0.000550344 1e-05
0.0412152 0.000541455 1e-05
0.0416355 0.000532376 1e-05
0.0420558 0.00052313 1e-05
0.042476 0.000513783 1e-05
0.0428964 0.000504435 1e-05
0.0433214 0.000495004 1e-05
0.0437463 0.000485372 1e-05
0.0441713 0.000475541 1e-05
0.0445963 0.000465599 1e-05
0.0450213 0.000455651 1e-05
0.0454511 0.000445586 1e-05
0.0458808 0.000435309 1e-05
0.0463105 0.000424819 1e-05
0.0467402 0.000414206 1e-05
0.04717 0.000403559 1e-05
0.0476045 0.000392761 1e-05
0.048039 0.000381737 1e-05
0.0484736 0.000370487 1e-05
0.0489081 0.000359098 1e-05
0.0493426 0.000347647 1e-05
0.049782 0.000336009 1e-05
0.0502214 0.000324129 1e-05
0.0506607 0.000312011 1e-05
0.0511001 0.000299742 1e-05
0.0515395 0.000287376 1e-05
0.0519838 0.000274784 1e-05
0.0524281 0.000261934 1e-05
0.0528723 0.000248859 1e-05
0.0533166 0.000235609 1e-05
0.0537609 0.00022221 1e-05
0.0542102 0.000208544 1e-05
0.0546594 0.000194603 1e-05
0.0551086 0.000180446 1e-05
0.0555578 0.00016609 1e-05
0.0560071 0.000151535 1e-05
0.0564614 0.000136669 1e-05
0.0569156 0.000121521 1e-05
0.0573698 0.000106152 1e-05
0.0578241 9.05593e-05 1e-05
0.0582784 7.47408e-05 1e-05
0.0587023 5.97927e-05 1e-05
0.0591262 4.46093e-05 1e-05
0.0595501 2.92153e-05 1e-05
0.0599739 1.361e-05 1e-05
0.0603387 0 1e-05
0.0603859 -1.78416e-06 1e-05
0.0604332 -3.57091e-06 1e-05
0.0604804 -5.36025e-06 1e-05
0.0605277 -7.15217e-06 1e-05
0.060575 -8.94672e-06 1e-05
0.0610394 -2.66031e-05 1e-05
0.0615038 -4.45288e-05 1e-05
0.0619683 -6.27215e-05 1e-05
0.0624327 -8.1182e-05 1e-05
0.0628972 -9.99152e-05 1e-05
0.0633668 -0.000119092 1e-05
0.0638364 -0.000138591 1e-05
0.064306 -0.000158383 1e-05
0.0647756 -0.000178468 1e-05
0.0652453 -0.000198852 1e-05
0.0657202 -0.000219695 1e-05
0.0661951 -0.000240907 1e-05
0.0666699 -0.000262441 1e-05
0.0671447 -0.000284295 1e-05
0.0676197 -0.000306452 1e-05
0.0680998 -0.000329111 1e-05
0.06858 -0.00035216 1e-05
0.0690601 -0.000375585 1e-05
0.0695402 -0.000399356 1e-05
0.0700205 -0.000423431 1e-05
0.070506 -0.000448062 1e-05
0.0709916 -0.000473104 1e-05
0.071477 -0.000498558 1e-05
0.0719625 -0.000524378 1e-05
0.0724481 -0.000550528 1e-05
0.0729391 -0.000577291 1e-05
0.07343 -0.000604487 1e-05
0.0739209 -0.000632117 1e-05
0.0744118 -0.000660135 1e-05
0.0749029 -0.000688523 1e-05
0.0753993 -0.000717582 1e-05
0.0758957 -0.000747098 1e-05
0.0763921 -0.000777046 1e-05
0.0768884 -0.000807409 1e-05
0.077385 -0.000838202 1e-05
0.0778869 -0.000869727 1e-05
0.0783889 -0.000901724 1e-05
0.0788908 -0.000934164 1e-05
0.0793927 -0.000967048 1e-05
0.0798948 -0.0010004 1e-05
0.0799629 -0.00100499 1e-05
0.0800311 -0.00100958 1e-05
0.0800993 -0.00101419 1e-05
0.0801674 -0.0010188 1e-05
0.0802343 -0.00102334 1e-05
0.080674 -0.00105321 1e-05
0.0811136 -0.00108343 1e-05
0.0815532 -0.001114 1e-05
0.0819928 -0.00114492 1e-05
0.0824326 -0.00117622 1e-05
0.0829458 -0.00121311 1e-05
0.083459 -0.00125053 1e-05
0.0839722 -0.00128845 1e-05
0.0844853 -0.00132686 1e-05
0.0849987 -0.00136579 1e-05
0.0855177 -0.00140558 1e-05
0.0860366 -0.00144593 1e-05
0.0865555 -0.00148684 1e-05
0.0870743 -0.00152829 1e-05
0.0875935 -0.00157023 1e-05
0.0881183 -0.0016131 1e-05
0.088643 -0.00165657 1e-05
0.0891676 -0.00170064 1e-05
0.0896922 -0.00174525 1e-05
0.0902172 -0.00179041 1e-05
0.0907478 -0.00183657 1e-05
0.0912784 -0.00188335 1e-05
0.0918089 -0.00193072 1e-05
0.0923393 -0.00197866 1e-05
0.0928702 -0.00202722 1e-05
0.0931109 -0.0020495 1e-05
0.0933515 -0.0020719 1e-05
0.0935922 -0.00209442 1e-05
0.0938328 -0.00211706 1e-05
0.0940602 -0.00213858 1e-05
0.0943587 -0.00216697 1e-05
0.0946573 -0.00219554 1e-05
0.0949557 -0.0022243 1e-05
0.0952542 -0.00225324 1e-05
0.0955528 -0.00228239 1e-05
0.0960954 -0.00233565 1e-05
0.0966378 -0.00238956 1e-05
0.0971802 -0.00244409 1e-05
0.0977225 -0.00249925 1e-05
0.0982654 -0.00255509 1e-05
0.098814 -0.00261208 1e-05
0.0993624 -0.00266978 1e-05
0.0999109 -0.00272817 1e-05
0.100459 -0.00278722 1e-05
0.101008 -0.00284694 1e-05
0.101563 -0.0029079 1e-05
0.102117 -0.00296959 1e-05
0.102672 -0.003032 1e-05
0.103226 -0.00309508 1e-05
0.103782 -0.00315893 1e-05
0.104117 -0.00319794 1e-05
0.104453 -0.00323722 1e-05
0.104789 -0.00327676 1e-05
0.105124 -0.00331655 1e-05
0.105438 -0.00335397 1e-05
0.105668 -0.00338154 1e-05
0.105897 -0.00340922 1e-05
0.106127 -0.00343702 1e-05
0.106356 -0.00346494 1e-05
0.106586 -0.00349299 1e-05
0.107153 -0.00356253 1e-05
0.10772 -0.00363281 1e-05
0.108287 -0.00370382 1e-05
0.108854 -0.00377556 1e-05
0.109422 -0.00384812 1e-05
0.109995 -0.0039221 1e-05
0.110568 -0.00399689 1e-05
0.111142 -0.00407248 1e-05
0.111715 -0.00414884 1e-05
0.112289 -0.00422603 1e-05
[...]
POINT_DATA 6430
 FIELD attributes 2
p 1 6430 float
-9.87076 -9.87115 -9.87153 -9.87191 -9.87229 -9.87267 -9.87639 -9.88059 -9.88481 -9.88908 -9.89384 -9.89748 -9.90161 -9.90579 -9.91004 -9.91479 -9.91838 -9.92247 -9.92663 -9.93089 -9.93563 -9.93922 -9.9433 -9.94747 -9.95175 -9.95651 -9.96014 -9.96423 -9.96844 -9.97278 -9.97757 -9.98127 -9.98542 -9.9897 -9.99412 -9.99897 -10.0028 -10.007 -10.0114 -10.016 -10.0209 -10.0249 -10.0292 -10.0338 -10.0385 -10.0436 -10.0477 -10.0523 -10.057 -10.0619 -10.0672 -10.0716 -10.0764 -10.0815 -10.0867 -10.0922 -10.097 -10.1022 -10.1075 -10.113 -10.1188 -10.124 -10.1298 -10.1359 -10.1422 -10.1489 -10.1555 -10.1618 -10.168 -10.1743 -10.1808 -10.1909 -10.2012 -10.2116 -10.2216 -10.2309 -10.2477 -10.2559 -10.2584 -10.2563 -10.2473 -10.2541 -10.2559 -10.2546 -10.2514 -10.245 -10.2626 -10.2738 -10.2814 -10.2839 -10.2771 -10.2917 -10.2997 -10.3044 -10.305 -10.2969 -10.3033 -10.3062 -10.3074 -10.3069 -10.3017 -10.3031 -10.3039 -10.3044 -10.3045 -10.3032 -10.3015 -10.3014 -10.3015 -10.3019 -10.3034 -10.2993 -10.2986 -10.2983 -10.2983 -10.3015 -10.2959 -10.2952 -10.2946 -10.2941 -10.2982 -10.2926 -10.292 -10.2914 -10.2909 -10.2949 -10.2903 -10.29 -10.2897 -10.2894 -10.2929 -10.2898 -10.2901 -10.2903 -10.2906 -10.2934 -10.2922 -10.2932 -10.2942 -10.2952 -10.2977 -10.2984 -10.3003 -10.3023 -10.3042 -10.3067 -10.3089 -10.3115 -10.3142 -10.3168 -10.3193 -10.3196 -10.32 -10.3204 -10.3208 -10.3211 -10.3251 -10.3292 -10.3332 -10.3373 -10.3414 -10.3464 -10.3515 -10.3567 -10.3618 -10.3672 -10.373 -10.3792 -10.3854 -10.3916 -10.3982 -10.4048 -10.4119 -10.419 -10.4261 -10.4338 -10.441 -10.4489 -10.4567 -10.4646 -10.4732 -10.481 -10.4893 -10.4977 -10.5063 -10.5153 -10.5236 -10.5321 -10.5408 -10.5498 -10.5591 -10.5677 -10.5763 -10.5851 -10.5942 -10.6034 -10.612 -10.6206 -10.6292 -10.6382 -10.6471 -10.6555 -10.6638 -10.6722 -10.6806 -10.6891 -10.697 -10.705 -10.7129 -10.7206 -10.7284 -10.7357 -10.743 -10.7502 -10.7571 -10.764 -10.7704 -10.7768 -10.7831 -10.7891 -10.795 -10.8004 -10.8056 -10.8108 -10.8159 -10.8206 -10.8247 -10.8286 -10.8324 -10.8363 -10.8399 -10.8423 -10.8445 -10.8467 -10.8489 -10.8508 -10.8511 -10.8513 -10.8516 -10.8518 -10.852 -10.8528 -10.8536 -10.8544 -10.8552 -10.8558 -10.8552 -10.8542 -10.8533 -10.8523 -10.851 -10.8488 -10.846 -10.8432 -10.8401 -10.8367 -10.8326 -10.8282 -10.8234 -10.818 -10.8125 -10.8062 -10.7999 -10.7929 -10.7852 -10.7775 -10.7689 -10.7604 -10.7511 -10.7411 -10.7311 -10.7202 -10.7088 -10.697 -10.6852 -10.6727 -10.6591 -10.6448 -10.6305 -10.6162 -10.6018 -10.5996 -10.5974 -10.5951 -10.5928 -10.5906 -10.5761 -10.5617 -10.5473 -10.5329 -10.5177 -10.4992 -10.4799 -10.4606 -10.4409 -10.42 -10.3991 -10.378 -10.3559 -10.3323 -10.3086 -10.2849 -10.2612 -10.236 -10.2096 -10.1832 -10.1566 -10.1288 -10.1006 -10.0724 -10.0435 -10.0302 -10.0163 -10.0023 -9.98834 -9.97514 -9.95808 -9.94103 -9.92399 -9.90696 -9.88899 -9.85625 -9.82274 -9.78926 -9.75506 -9.71966 -9.68432 -9.64901 -9.61233 -9.57416 -9.53597 -9.49783 -9.45908 -9.41907 -9.37901 -9.33811 -9.31364 -9.28811 -9.26254 -9.23697 -9.21308 -9.19581 -9.17854 -9.16127 -9.144 -9.12588 -9.08163 -9.0368 -8.99199 -8.94629 -8.89945 -8.85289 -8.80636 -8.75849 -8.70933 -8.66011 -8.61113 -8.56093 -8.51018 -8.45946 -8.4085 -8.40229 -8.39593 -8.38952 -8.38311 -8.37678 -8.33061 -8.28447 -8.23836 -8.19204 -8.14423 -8.09032 -8.03637 -7.98166 -7.92556 -7.86936 -7.81358 -7.75722 -7.69996 -7.64273 -7.58509 -7.56941 -7.55346 -7.53741 -7.52137 -7.50572 -7.46314 -7.42057 -7.37801 -7.33523 -7.29152 -7.23208 -7.17261 -7.11275 -7.0518 -6.99072 -6.93018 -6.86921 -6.80767 -6.74615 -6.68441 -6.67357 -6.66263 -6.65164 -6.64066 -6.62984 -6.57863 -6.52745 -6.47628 -6.4249 -6.37284 -6.31033 -6.24785 -6.1851 -6.12193 -6.05858 -6.00019 -5.94156 -5.88279 -5.82404 -5.76936 -5.76415 -5.75894 -5.75373 -5.7485 -5.74324 -5.68011 -5.61703 -5.55396 -5.49076 -5.4272 -5.36441 -5.30164 -5.23883 -5.17618 -5.11341 -5.07847 -5.0436 -5.00877 -4.97395 -4.94037 -4.91282 -4.88527 -4.85773 -4.83019 -4.80261 -4.74102 -4.67966 -4.61842 -4.5574 -4.49623 -4.43591 -4.37577 -4.31594 -4.25611 -4.19637 -4.18658 -4.17686 -4.16719 -4.15752 -4.14792 -4.09885 -4.04978 -4.00072 -3.95179 -3.90306 -3.84562 -3.7882 -3.73132 -3.67498 -3.61856 -3.57264 -3.52714 -3.4819 -3.43666 -3.39191 -3.38226 -3.3726 -3.36295 -3.35332 -3.34376 -3.29038 -3.23719 -3.18399 -3.13115 -3.07867 -3.02739 -2.97612 -2.9255 -2.87538 -2.8254 -2.79168 -2.75839 -2.72528 -2.69217 -2.65804 -2.64319 -2.62834 -2.61348 -2.5986 -2.58361 -2.53765 -2.49153 -2.44541 -2.39909 -2.35277 -2.30944 -2.26612 -2.22258 -2.1788 -2.13521 -2.09445 -2.05358 -2.01268 -1.97179 -1.93106 -1.92542 -1.91976 -1.91411 -1.90846 -1.90269 -1.86977 -1.83685 -1.80395 -1.77107 -1.73564 -1.70195 -1.6666 -1.63068 -1.59264 -1.55391 -1.52278 -1.49168 -1.45816 -1.42219 -1.3864 -1.35773 -1.32827 -1.29718 -1.26548 -1.23249 -1.20603 -1.1775 -1.14901 -1.12055 -1.09152 -1.08158 -1.07113 -1.06068 -1.05024 -1.03882 -1.02331 -1.00782 -0.99234 -0.976873 -0.96157 -0.937717 -0.913774 -0.889864 -0.865989 -0.842448 -0.820971 -0.799196 -0.77742 -0.755748 -0.734271 -0.714829 -0.695277 -0.675477 -0.655812 -0.636219 -0.618651 -0.601114 -0.583229 -0.56535 -0.547505 -0.531656 -0.515836 -0.499857 -0.483602 -0.467373 -0.453102 -0.438854 -0.424614 -0.409858 -0.395122 -0.382294 -0.369475 -0.356636 -0.343451 -0.330092 -0.318588 -0.307058 -0.295506 -0.283775 -0.271688 -0.261398 -0.251041 -0.240674 -0.230285 -0.219375 -0.210199 -0.20092 -0.191649 -0.182386 -0.172684 -0.164516 -0.15626 -0.148011 -0.139769 -0.131221 -0.123997 -0.116705 -0.109419 -0.102139 -0.0946725 -0.0883531 -0.0819958 -0.0756433 -0.0692958 -0.0628711 -0.0582683 -0.0536458 -0.0490262 -0.0444096 -0.0391065 -0.0384123 -0.0377182 -0.0370242 -0.0363302 -0.0357226 -0.0311961 -0.0267548 -0.0223169 -0.0178824 -0.014191 -0.00998598 -0.00640224 -0.00282092 0.000758011 0.00312852 0.00614384 0.00760161 0.00905797 0.0105129 0.00958675 0.0120069 0.0147403 0.0174746 0.0202097 0.0228271 0.0253851 0.0214593 0.0175384 0.0136224 0.00313722
-9.8639 -9.86424 -9.86457 -9.86491 -9.86525 -9.86559 -9.86966 -9.87377 -9.8779 -9.88203 -9.88618 -9.89023 -9.89431 -9.89839 -9.90248 -9.90656 -9.91061 -9.91467 -9.91874 -9.9228 -9.92683 -9.9309 -9.93497 -9.93904 -9.94308 -9.9471 -9.9512 -9.9553 -9.95939 -9.96345 -9.96747 -9.97162 -9.97576 -9.9799 -9.984 -9.98805 -9.99227 -9.99648 -10.0007 -10.0048 -10.009 -10.0133 -10.0176 -10.0219 -10.0261 -10.0303 -10.0347 -10.0391 -10.0436 -10.0479 -10.0522 -10.0567 -10.0613 -10.0659 -10.0704 -10.0748 -10.0795 -10.0842 -10.089 -10.0936 -10.0982 -10.103 -10.1079 -10.1128 -10.1176 -10.1223 -10.1273 -10.1322 -10.1373 -10.142 -10.1467 -10.1514 -10.1563 -10.1616 -10.1669 -10.1721 -10.1772 -10.1822 -10.1869 -10.191 -10.1949 -10.1987 -10.2023 -10.2052 -10.2078 -10.2102 -10.2127 -10.2153 -10.218 -10.2208 -10.2235 -10.2261 -10.2286 -10.2313 -10.2337 -10.2361 -10.2376 -10.2392 -10.2408 -10.2424 -10.244 -10.2442 -10.2446 -10.2452 -10.2464 -10.2478 -10.2473 -10.247 -10.2473 -10.2483 -10.2495 -10.2488 -10.2483 -10.2483 -10.2489 -10.2499 -10.2491 -10.2485 -10.2482 -10.2486 -10.2493 -10.2486 -10.248 -10.2478 -10.248 -10.2486 -10.2481 -10.2478 -10.2478 -10.2481 -10.2487 -10.2487 -10.2489 -10.2492 -10.2498 -10.2507 -10.2512 -10.2519 -10.2528 -10.254 -10.2553 -10.2565 -10.2578 -10.2594 -10.2612 -10.2633 -10.2652 -10.2673 -10.2697 -10.2723 -10.2751 -10.2777 -10.2807 -10.284 -10.2874 -10.291 -10.2945 -10.2984 -10.3025 -10.3067 -10.3112 -10.3155 -10.3202 -10.3251 -10.3301 -10.3353 -10.3404 -10.346 -10.3516 -10.3573 -10.3632 -10.369 -10.3752 -10.3815 -10.3877 -10.394 -10.4004 -10.4071 -10.4139 -10.4206 -10.4272 -10.434 -10.441 -10.448 -10.455 -10.4617 -10.4688 -10.4759 -10.483 -10.4901 -10.4968 -10.5039 -10.5109 -10.5179 -10.5249 -10.5314 -10.5382 -10.5449 -10.5516 -10.5583 -10.5645 -10.5709 -10.5771 -10.5833 -10.5895 -10.5953 -10.601 -10.6065 -10.612 -10.6175 -10.6228 -10.6276 -10.6322 -10.6369 -10.6415 -10.6462 -10.6466 -10.647 -10.6474 -10.6478 -10.6482 -10.6515 -10.6548 -10.658 -10.6613 -10.6646 -10.6672 -10.6697 -10.6722 -10.6748 -10.6772 -10.6788 -10.6799 -10.6811 -10.6823 -10.6832 -10.6837 -10.6833 -10.683 -10.6827 -10.6817 -10.6809 -10.6792 -10.6772 -10.6749 -10.6721 -10.6696 -10.6667 -10.663 -10.6584 -10.6536 -10.6493 -10.645 -10.6393 -10.6324 -10.6255 -10.6193 -10.613 -10.6054 -10.5963 -10.5873 -10.5789 -10.5704 -10.5604 -10.5495 -10.5382 -10.5277 -10.5159 -10.5037 -10.4914 -10.4778 -10.4645 -10.4497 -10.4351 -10.4204 -10.4054 -10.4013 -10.3969 -10.3925 -10.3881 -10.3839 -10.3714 -10.3589 -10.3464 -10.3339 -10.3205 -10.3022 -10.2829 -10.2636 -10.244 -10.2228 -10.2022 -10.1813 -10.1595 -10.1358 -10.112 -10.0888 -10.0656 -10.0408 -10.0143 -9.98786 -9.96201 -9.93502 -9.9071 -9.8792 -9.85022 -9.83134 -9.81122 -9.79112 -9.77102 -9.75247 -9.74188 -9.7313 -9.72072 -9.71015 -9.69886 -9.6668 -9.63417 -9.60158 -9.56835 -9.53365 -9.49939 -9.46515 -9.42945 -9.39213 -9.35482 -9.3179 -9.2802 -9.24123 -9.20229 -9.16248 -9.14434 -9.12537 -9.10629 -9.08722 -9.06903 -9.04684 -9.02466 -9.00249 -8.98019 -8.95723 -8.91444 -8.87136 -8.8282 -8.78387 -8.73931 -8.69412 -8.64882 -8.60233 -8.55576 -8.50892 -8.48694 -8.46456 -8.44199 -8.41943 -8.3978 -8.37157 -8.34535 -8.31914 -8.29285 -8.26605 -8.21558 -8.16502 -8.11446 -8.06313 -8.01155 -7.95914 -7.90675 -7.85348 -7.80018 -7.74682 -7.71297 -7.67876 -7.64442 -7.6101 -7.57732 -7.55653 -7.53574 -7.51495 -7.49408 -7.47287 -7.41676 -7.36066 -7.30457 -7.24787 -7.19083 -7.13341 -7.07601 -7.01791 -6.95984 -6.90175 -6.86688 -6.83177 -6.79657 -6.76137 -6.72749 -6.70343 -6.67937 -6.65531 -6.63119 -6.60687 -6.54695 -6.48729 -6.42765 -6.36771 -6.30762 -6.2472 -6.18677 -6.12616 -6.06567 -6.00538 -5.97745 -5.94952 -5.92159 -5.89367 -5.86639 -5.83345 -5.80051 -5.76757 -5.73463 -5.70165 -5.64047 -5.57961 -5.51896 -5.45849 -5.39798 -5.33716 -5.27647 -5.21606 -5.15566 -5.0957 -5.07854 -5.06149 -5.04451 -5.02752 -5.01071 -4.96776 -4.92481 -4.88187 -4.83903 -4.79644 -4.73669 -4.67703 -4.61817 -4.55988 -4.50156 -4.443 -4.3849 -4.32725 -4.26961 -4.21224 -4.20478 -4.19742 -4.1901 -4.18279 -4.17549 -4.12618 -4.07686 -4.02755 -3.97846 -3.93001 -3.87413 -3.81825 -3.76348 -3.70965 -3.65581 -3.60177 -3.54855 -3.49582 -3.44308 -3.39049 -3.3872 -3.38397 -3.38077 -3.37757 -3.37437 -3.32625 -3.27814 -3.23003 -3.18218 -3.13532 -3.08519 -3.03506 -2.98618 -2.93843 -2.89069 -2.84282 -2.7958 -2.74942 -2.70304 -2.65708 -2.64915 -2.64142 -2.63376 -2.62609 -2.6184 -2.58149 -2.54457 -2.50766 -2.47091 -2.4352 -2.39195 -2.34897 -2.30677 -2.26594 -2.22514 -2.18431 -2.14379 -2.10445 -2.06533 -2.02696 -2.00365 -1.98113 -1.95873 -1.93632 -1.91324 -1.89865 -1.88405 -1.86945 -1.85487 -1.84081 -1.80513 -1.77003 -1.73494 -1.70042 -1.66672 -1.63316 -1.5996 -1.56712 -1.53572 -1.50436 -1.47313 -1.44244 -1.4125 -1.38256 -1.35345 -1.33501 -1.31732 -1.29963 -1.28195 -1.26332 -1.25331 -1.24331 -1.2333 -1.22329 -1.21363 -1.18729 -1.16127 -1.13525 -1.10941 -1.08448 -1.05988 -1.03542 -1.01144 -0.988447 -0.965489 -0.942844 -0.920204 -0.898351 -0.877221 -0.85612 -0.835323 -0.815062 -0.795149 -0.77524 -0.75583 -0.739865 -0.724419 -0.708977 -0.693538 -0.676566 -0.674052 -0.671538 -0.669024 -0.66651 -0.664054 -0.647138 -0.630267 -0.613403 -0.596547 -0.580154 -0.56448 -0.549087 -0.533701 -0.518524 -0.503707 -0.489443 -0.475229 -0.461215 -0.447692 -0.434198 -0.421244 -0.408294 -0.395689 -0.38341 -0.371143 -0.359406 -0.347716 -0.336404 -0.325222 -0.314098 -0.303492 -0.293132 -0.282918 -0.272719 -0.262659 -0.253158 -0.243968 -0.234782 -0.2256 -0.216478 -0.209687 -0.203025 -0.196365 -0.189706 -0.182376 -0.180942 -0.179507 -0.178073 -0.176639 -0.175206 -0.167863 -0.160506 -0.153153 -0.145803 -0.138474 -0.132122 -0.12563 -0.11914 -0.112654 -0.106174 -0.10074 -0.095167 -0.0895919 -0.0840658 -0.0786847 -0.0743244 -0.0695944 -0.0645483 -0.0593116 -0.0539551 -0.049559 -0.045272 -0.0417521 -0.0398477 -0.0380055 -0.0370184 -0.0360313 -0.0292283 -0.0170106 -0.00479311 0.00709668 0.0189866 0.0198517 0.00992605 0
-9.85877 -9.85908 -9.85939 -9.85971 -9.86002 -9.86034 -9.8643 -9.86826 -9.87222 -9.87617 -9.88009 -9.88401 -9.88793 -9.89184 -9.89576 -9.89963 -9.90352 -9.90741 -9.91129 -9.91518 -9.91902 -9.92289 -9.92676 -9.93063 -9.9345 -9.93833 -9.94219 -9.94605 -9.94992 -9.95378 -9.9576 -9.96146 -9.96533 -9.96921 -9.97308 -9.97689 -9.98077 -9.98465 -9.98854 -9.99243 -9.99625 -10.0001 -10.004 -10.0079 -10.0119 -10.0157 -10.0196 -10.0235 -10.0274 -10.0314 -10.0352 -10.0391 -10.043 -10.047 -10.0509 -10.0547 -10.0586 -10.0625 -10.0664 -10.0704 -10.0741 -10.0779 -10.0818 -10.0856 -10.0895 -10.0932 -10.0969 -10.1006 -10.1043 -10.108 -10.1115 -10.115 -10.1187 -10.1224 -10.1261 -10.1298 -10.1335 -10.1372 -10.141 -10.1448 -10.1484 -10.1519 -10.1552 -10.1584 -10.1617 -10.1647 -10.1675 -10.1702 -10.1728 -10.1755 -10.178 -10.1803 -10.1826 -10.1849 -10.1871 -10.1892 -10.1912 -10.193 -10.1948 -10.1966 -10.1983 -10.1997 -10.201 -10.2023 -10.2036 -10.2048 -10.2059 -10.2068 -10.2078 -10.2087 -10.2096 -10.2104 -10.2111 -10.2118 -10.2125 -10.2132 -10.2139 -10.2145 -10.215 -10.2156 -10.2161 -10.2167 -10.2173 -10.2178 -10.2183 -10.2189 -10.2195 -10.2201 -10.2208 -10.2214 -10.2221 -10.2229 -10.2238 -10.2246 -10.2255 -10.2264 -10.2276 -10.2288 -10.23 -10.2312 -10.2324 -10.234 -10.2357 -10.2374 -10.239 -10.2407 -10.2428 -10.245 -10.2472 -10.2494 -10.2517 -10.2543 -10.2571 -10.2599 -10.2626 -10.2654 -10.2687 -10.272 -10.2754 -10.2787 -10.2821 -10.2859 -10.2899 -10.2938 -10.2977 -10.3016 -10.306 -10.3104 -10.3148 -10.3192 -10.3236 -10.3284 -10.3332 -10.3381 -10.3429 -10.3477 -10.3528 -10.358 -10.3631 -10.3682 -10.3733 -10.3768 -10.3803 -10.3837 -10.3872 -10.3902 -10.3921 -10.394 -10.3959 -10.3978 -10.3998 -10.4051 -10.4104 -10.4156 -10.4209 -10.4263 -10.4315 -10.4366 -10.4417 -10.4469 -10.4521 -10.457 -10.4618 -10.4666 -10.4715 -10.4763 -10.4809 -10.4852 -10.4896 -10.4939 -10.4983 -10.5023 -10.506 -10.5097 -10.5134 -10.5171 -10.5205 -10.5234 -10.5263 -10.5292 -10.532 -10.5346 -10.5365 -10.5385 -10.5405 -10.5422 -10.5438 -10.5448 -10.5456 -10.5464 -10.5469 -10.5474 -10.5473 -10.5469 -10.5464 -10.5455 -10.5447 -10.5435 -10.5417 -10.5396 -10.5373 -10.535 -10.5326 -10.5293 -10.5254 -10.5215 -10.5176 -10.5137 -10.5088 -10.5032 -10.4975 -10.4919 -10.4863 -10.4797 -10.4722 -10.4647 -10.4572 -10.4498 -10.4414 -10.4319 -10.4224 -10.413 -10.4032 -10.3927 -10.3817 -10.3701 -10.3586 -10.3463 -10.3336 -10.321 -10.3073 -10.2934 -10.2784 -10.2635 -10.2487 -10.2334 -10.2232 -10.2126 -10.202 -10.1914 -10.1816 -10.175 -10.1683 -10.1616 -10.155 -10.148 -10.129 -10.1097 -10.0905 -10.0713 -10.0507 -10.0303 -10.0086 -9.98691 -9.96462 -9.94123 -9.91829 -9.89515 -9.87105 -9.84514 -9.81925 -9.79381 -9.76838 -9.74141 -9.71298 -9.68457 -9.65662 -9.62799 -9.59815 -9.56801 -9.53708 -9.50643 -9.47403 -9.44164 -9.40928 -9.37672 -9.37115 -9.36531 -9.35948 -9.35365 -9.34791 -9.31926 -9.29062 -9.262 -9.23339 -9.20333 -9.16751 -9.13074 -9.09395 -9.05601 -9.01714 -8.97887 -8.94061 -8.90089 -8.85965 -8.81842 -8.77777 -8.73635 -8.69368 -8.65098 -8.60748 -8.57936 -8.54995 -8.52055 -8.49116 -8.4633 -8.44771 -8.43212 -8.41653 -8.40092 -8.38465 -8.3386 -8.29217 -8.24576 -8.19857 -8.1503 -8.10243 -8.05458 -8.00558 -7.95547 -7.90534 -7.85559 -7.80478 -7.75341 -7.70205 -7.65052 -7.64203 -7.63334 -7.6246 -7.61587 -7.60722 -7.56336 -7.51951 -7.47567 -7.43159 -7.3866 -7.33283 -7.27907 -7.22485 -7.16976 -7.11464 -7.05958 -7.00397 -6.9479 -6.89184 -6.83574 -6.82946 -6.82312 -6.81675 -6.81038 -6.80405 -6.75365 -6.70327 -6.65289 -6.60227 -6.55122 -6.49361 -6.43601 -6.37814 -6.32018 -6.26219 -6.22241 -6.1825 -6.14251 -6.10252 -6.06379 -6.04507 -6.02634 -6.00762 -5.98888 -5.97011 -5.91108 -5.85236 -5.79371 -5.73511 -5.67649 -5.61828 -5.56019 -5.50222 -5.44426 -5.38846 -5.38721 -5.38595 -5.38469 -5.38344 -5.38219 -5.32347 -5.2648 -5.20612 -5.1476 -5.08932 -5.03065 -4.97199 -4.91374 -4.85625 -4.79875 -4.76136 -4.72425 -4.68731 -4.65038 -4.61392 -4.59347 -4.57302 -4.55257 -4.5322 -4.51202 -4.45479 -4.39833 -4.34187 -4.28613 -4.23058 -4.17465 -4.11885 -4.06398 -4.00923 -3.95515 -3.93399 -3.91313 -3.89243 -3.87173 -3.8511 -3.81815 -3.78521 -3.75227 -3.71953 -3.68733 -3.63429 -3.58161 -3.52957 -3.47876 -3.42794 -3.37677 -3.32611 -3.27636 -3.2266 -3.17749 -3.16464 -3.15206 -3.13959 -3.12713 -3.11464 -3.07891 -3.04318 -3.00745 -2.97197 -2.93734 -2.89012 -2.84312 -2.79707 -2.75236 -2.70765 -2.66264 -2.61819 -2.57475 -2.5313 -2.48865 -2.47433 -2.46042 -2.44664 -2.43285 -2.41896 -2.39115 -2.36335 -2.33555 -2.30791 -2.28116 -2.24065 -2.20071 -2.16117 -2.12307 -2.08512 -2.04693 -2.00882 -1.9722 -1.93603 -1.90035 -1.87473 -1.85006 -1.82555 -1.80103 -1.77577 -1.76593 -1.75609 -1.74625 -1.73643 -1.72702 -1.69389 -1.66122 -1.62856 -1.5964 -1.56524 -1.53391 -1.50258 -1.47239 -1.44335 -1.41433 -1.38515 -1.35654 -1.32874 -1.30096 -1.27397 -1.25823 -1.24326 -1.22829 -1.21332 -1.1978 -1.18693 -1.17607 -1.16521 -1.15435 -1.14398 -1.1193 -1.09506 -1.07082 -1.04696 -1.02396 -1.00089 -0.977829 -0.955645 -0.934408 -0.913188 -0.891911 -0.870726 -0.850537 -0.830728 -0.811178 -0.791586 -0.772953 -0.75438 -0.735811 -0.717436 -0.71295 -0.708664 -0.704378 -0.700092 -0.695717 -0.682789 -0.669863 -0.65694 -0.644021 -0.631626 -0.61538 -0.599525 -0.583674 -0.568101 -0.553108 -0.538161 -0.523272 -0.508801 -0.495073 -0.481356 -0.467696 -0.454039 -0.440991 -0.428452 -0.415921 -0.403457 -0.391306 -0.379523 -0.367807 -0.35638 -0.345112 -0.334392 -0.323676 -0.312961 -0.302342 -0.299004 -0.295791 -0.292579 -0.289368 -0.28606 -0.279496 -0.272934 -0.266373 -0.259814 -0.25347 -0.244463 -0.235566 -0.226672 -0.217782 -0.209387 -0.201178 -0.193111 -0.18509 -0.177329 -0.169805 -0.162455 -0.155113 -0.147905 -0.141092 -0.134283 -0.127646 -0.121011 -0.114769 -0.108856 -0.102946 -0.0972065 -0.0914606 -0.0856602 -0.0796218 -0.0734969 -0.0675067 -0.06263 -0.0584381 -0.0543511 -0.0512053 -0.0475492 -0.0391279 -0.0307096 -0.0222945 -0.0117736 -0.00631681 -0.00535645 -0.00439412 -0.00342982 -0.00243682 -0.00171361 -0.000990572 -0.000267718 0.000454957 0