/*--------------------------------*- C++ -*----------------------------------*\
| =========                 |                                                 |
| \\      /  F ield         | OpenFOAM: The Open Source CFD Toolbox           |
|  \\    /   O peration     | Version:  4.1                                   |
|   \\  /    A nd           | Web:      www.OpenFOAM.org                      |
|    \\/     M anipulation  |                                                 |
\*---------------------------------------------------------------------------*/
FoamFile
{
    version     2.0;
    format      ascii;
    class       volScalarField;
    location    "28";
    object      p;
}
// * * * * * * * * * * * * * * * * * * * * * * * * * * * * * * * * * * * * * //

dimensions      [0 2 -2 0 0 0 0];

internalField   nonuniform List<scalar> 
26785
(
389.954
393.555
396.06
395.896
395.139
387.988
380.375
372.155
363.992
357.517
350.214
341.928
332.22
323.308
315.657
311.648
309.142
310.277
313.034
318.914
324.63
332.122
340.566
351.581
363.687
377.005
389.417
402.361
414.488
427.304
438.582
449.426
459.429
469.306
478.818
487.927
495.935
502.678
507.6
510.705
511.769
510.754
507.702
502.86
496.599
489.087
480.993
473.446
464.558
456.581
447.591
439.822
431.339
424.349
417.087
411.052
404.839
399.765
394.563
390.05
385.112
380.493
375.174
369.758
363.374
356.76
349.092
341.111
332.085
322.903
312.845
302.744
291.941
281.266
270.073
259.059
247.623
236.414
224.875
213.565
202.009
190.729
179.312
168.196
157.03
146.193
135.372
124.858
114.372
104.151
93.9401
83.9233
73.8809
63.9719
54.0052
44.1274
34.1443
24.3158
14.1295
5.25011
390.008
393.643
396.131
395.918
395.116
388.103
380.342
372.156
364.047
357.596
350.297
341.98
332.248
323.314
315.647
311.617
309.109
310.23
313
318.882
324.6
332.074
340.51
351.533
363.67
377.008
389.43
402.358
414.49
427.325
438.618
449.467
459.478
469.367
478.895
488.019
496.04
502.791
507.717
510.826
511.891
510.87
507.804
502.945
496.664
489.131
481.019
473.463
464.565
456.583
447.583
439.807
431.31
424.313
417.042
411.003
404.788
399.718
394.521
390.018
385.088
380.481
375.172
369.765
363.388
356.782
349.117
341.14
332.111
322.929
312.865
302.761
291.952
281.275
270.078
259.063
247.624
236.414
224.871
213.558
201.997
190.713
179.291
168.172
157.002
146.165
135.343
124.832
114.348
104.13
93.9223
83.9095
73.8697
63.9638
53.9986
44.1228
34.1412
24.3138
14.1423
5.23189
390.019
393.662
396.116
395.885
394.945
388.056
380.21
372.12
364.066
357.67
350.383
342.019
332.256
323.294
315.599
311.545
309.03
310.143
312.929
318.813
324.524
331.971
340.392
351.437
363.623
376.996
389.431
402.333
414.461
427.328
438.649
449.515
459.543
469.458
479.017
488.172
496.215
502.98
507.914
511.028
512.093
511.059
507.967
503.074
496.758
489.189
481.049
473.479
464.566
456.577
447.561
439.775
431.259
424.25
416.964
410.921
404.703
399.641
394.455
389.969
385.058
380.471
375.18
369.791
363.427
356.833
349.176
341.207
332.177
322.993
312.92
302.808
291.988
281.305
270.101
259.082
247.639
236.424
224.874
213.554
201.983
190.691
179.259
168.133
156.958
146.119
135.297
124.788
114.309
104.097
93.8959
83.8899
73.8557
63.9548
53.993
44.1201
34.1415
24.3163
14.1626
5.21692
390.02
393.64
396.078
395.822
394.709
387.93
380.039
372.079
364.082
357.766
350.494
342.056
332.246
323.243
315.517
311.434
308.914
310.014
312.823
318.715
324.416
331.826
340.224
351.299
363.553
376.98
389.437
402.304
414.423
427.34
438.715
449.611
459.665
469.614
479.217
488.412
496.485
503.268
508.207
511.327
512.39
511.339
508.21
503.27
496.902
489.282
481.099
473.507
464.573
456.571
447.533
439.729
431.184
424.155
416.849
410.798
404.579
399.528
394.359
389.898
385.015
380.459
375.199
369.839
363.498
356.928
349.285
341.328
332.298
323.11
313.022
302.897
292.06
281.365
270.15
259.126
247.674
236.453
224.892
213.562
201.976
190.671
179.226
168.09
156.907
146.065
135.243
124.739
114.266
104.063
93.8708
83.874
73.8469
63.9523
53.9943
44.1244
34.1485
24.3245
14.1869
5.20751
390.002
393.582
396.015
395.724
394.446
387.711
379.868
372.052
364.103
357.872
350.603
342.066
332.196
323.142
315.385
311.273
308.75
309.844
312.68
318.581
324.269
331.639
340.01
351.125
363.458
376.95
389.433
402.258
414.36
427.329
438.772
449.711
459.799
469.789
479.441
488.683
496.789
503.588
508.531
511.655
512.714
511.641
508.467
503.47
497.042
489.364
481.135
473.519
464.562
456.548
447.487
439.663
431.087
424.037
416.709
410.65
404.432
399.397
394.25
389.821
384.971
380.454
375.232
369.908
363.599
357.058
349.437
341.497
332.468
323.276
313.168
303.024
292.164
281.454
270.224
259.191
247.729
236.499
224.926
213.581
201.978
190.657
179.196
168.047
156.855
146.008
135.187
124.688
114.222
104.03
93.848
83.8617
73.8432
63.9555
54.0019
44.1347
34.1613
24.3373
14.2133
5.20155
389.98
393.513
395.951
395.641
394.161
387.42
379.71
372.016
364.117
357.971
350.7
342.041
332.1
322.988
315.205
311.065
308.543
309.628
312.501
318.422
324.102
331.431
339.764
350.911
363.331
376.9
389.421
402.21
414.299
427.32
438.851
449.85
459.979
470.015
479.725
489.021
497.168
503.987
508.932
512.061
513.118
512.02
508.794
503.729
497.228
489.479
481.192
473.544
464.56
456.527
447.436
439.585
430.968
423.89
416.535
410.469
404.252
399.237
394.117
389.726
384.92
380.452
375.281
370.006
363.74
357.24
349.647
341.73
332.702
323.501
313.367
303.195
292.306
281.574
270.327
259.282
247.81
236.569
224.98
213.619
201.996
190.655
179.175
168.011
156.808
145.957
135.136
124.643
114.187
104.007
93.8372
83.8629
73.8541
63.9739
54.0244
44.1593
34.1867
24.3604
14.2457
5.19993
389.925
393.412
395.867
395.552
393.852
387.071
379.553
371.937
364.099
358.051
350.77
341.98
331.964
322.788
314.976
310.806
308.287
309.374
312.288
318.229
323.901
331.187
339.481
350.659
363.168
376.824
389.39
402.155
414.232
427.295
438.912
449.981
460.159
470.25
480.023
489.382
497.573
504.409
509.356
512.489
513.543
512.413
509.126
503.984
497.402
489.577
481.231
473.55
464.538
456.486
447.365
439.485
430.83
423.723
416.344
410.27
404.06
399.068
393.981
389.633
384.876
380.463
375.35
370.129
363.914
357.46
349.903
342.01
332.986
323.771
313.606
303.399
292.474
281.714
270.447
259.389
247.906
236.653
225.05
213.67
202.025
190.663
179.162
167.981
156.767
145.911
135.091
124.604
114.158
103.991
93.8358
83.8747
73.8766
64.0043
54.0592
44.1954
34.2225
24.3917
14.2825
5.20048
389.849
393.273
395.76
395.479
393.531
386.718
379.408
371.798
364.046
358.106
350.815
341.883
331.78
322.535
314.692
310.495
307.981
309.063
312.028
318.004
323.676
330.924
339.171
350.367
362.97
376.726
389.357
402.123
414.192
427.296
439
450.146
460.389
470.543
480.389
489.82
498.066
504.924
509.871
513.007
514.057
512.892
509.536
504.306
497.629
489.714
481.297
473.575
464.528
456.45
447.292
439.376
430.672
423.531
416.123
410.042
403.84
398.876
393.826
389.526
384.827
380.48
375.438
370.284
364.131
357.732
350.217
342.353
333.329
324.095
313.887
303.634
292.667
281.875
270.585
259.514
248.02
236.755
225.137
213.737
202.071
190.686
179.163
167.965
156.738
145.878
135.059
124.58
114.147
103.995
93.8552
83.909
73.9225
64.0585
54.1172
44.2534
34.2777
24.4387
14.3291
5.2062
389.738
393.081
395.614
395.395
393.184
386.361
379.232
371.594
363.943
358.124
350.825
341.752
331.557
322.237
314.356
310.129
307.618
308.71
311.731
317.741
323.414
330.628
338.832
350.043
362.746
376.614
389.319
402.1
414.158
427.289
439.068
450.3
460.616
470.842
480.766
490.277
498.581
505.459
510.403
513.543
514.585
513.379
509.943
504.616
497.838
489.831
481.342
473.578
464.497
456.393
447.199
439.246
430.495
423.321
415.888
409.804
403.615
398.682
393.674
389.427
384.79
380.513
375.547
370.464
364.376
358.036
350.568
342.733
333.708
324.447
314.19
303.883
292.866
282.037
270.725
259.64
248.138
236.864
225.232
213.814
202.127
190.72
179.176
167.959
156.721
145.856
135.04
124.569
114.149
104.014
93.8915
83.9612
73.9874
64.1319
54.1944
44.3298
34.3492
24.4991
14.3819
5.21749
389.64
392.887
395.439
395.299
392.836
386.028
379.027
371.327
363.79
358.103
350.802
341.582
331.284
321.885
313.96
309.706
307.198
308.291
311.38
317.442
323.127
330.319
338.474
349.687
362.498
376.491
389.296
402.118
414.158
427.313
439.165
450.487
460.893
471.201
481.212
490.814
499.186
506.089
511.029
514.173
515.21
513.959
510.437
505.002
498.11
489.998
481.427
473.612
464.489
456.351
447.111
439.112
430.305
423.09
415.628
409.539
403.365
398.467
393.505
389.313
384.746
380.548
375.672
370.669
364.657
358.383
350.964
343.159
334.128
324.828
314.509
304.134
293.062
282.192
270.859
259.763
248.259
236.978
225.337
213.903
202.197
190.768
179.203
167.969
156.72
145.851
135.04
124.579
114.175
104.059
93.9558
84.0432
74.0829
64.2363
54.3017
44.4347
34.4458
24.5806
14.4443
5.23831
389.502
392.732
395.25
395.185
392.495
385.687
378.753
370.997
363.581
358.04
350.745
341.383
330.976
321.489
313.513
309.227
306.721
307.83
310.99
317.102
322.804
329.978
338.088
349.299
362.228
376.36
389.277
402.148
414.159
427.324
439.235
450.655
461.159
471.559
481.662
491.362
499.806
506.732
511.668
514.818
515.848
514.545
510.927
505.375
498.365
490.147
481.496
473.631
464.467
456.294
447.009
438.962
430.101
422.848
415.359
409.267
403.113
398.252
393.339
389.204
384.709
380.593
375.809
370.887
364.95
358.742
351.376
343.599
334.557
325.209
314.816
304.365
293.23
282.319
270.968
259.867
248.366
237.085
225.439
213.993
202.27
190.822
179.239
167.989
156.73
145.858
135.052
124.603
114.217
104.121
94.0386
84.1451
74.1996
64.3624
54.4309
44.5608
34.5615
24.6784
14.5125
5.26651
389.296
392.58
395.05
395.033
392.208
385.355
378.432
370.623
363.323
357.936
350.655
341.146
330.616
321.036
313
308.688
306.179
307.295
310.538
316.721
322.454
329.627
337.681
348.872
361.936
376.224
389.282
402.226
414.201
427.374
439.333
450.854
461.472
471.974
482.182
491.993
500.525
507.483
512.415
515.574
516.601
515.247
511.527
505.848
498.707
490.368
481.625
473.703
464.487
456.271
446.928
438.824
429.894
422.593
415.071
408.973
402.838
398.015
393.151
389.074
384.657
380.631
375.951
371.118
365.263
359.126
351.813
344.059
334.994
325.579
315.097
304.556
293.357
282.406
271.044
259.946
248.458
237.184
225.54
214.086
202.35
190.886
179.285
168.019
156.753
145.881
135.082
124.647
114.281
104.209
94.1507
84.2786
74.3493
64.5222
54.5931
44.7185
34.7058
24.8004
14.595
5.30261
389.013
392.444
394.859
394.854
391.94
384.996
378.048
370.206
363.014
357.795
350.537
340.883
330.226
320.544
312.439
308.093
305.581
306.717
310.05
316.301
322.067
329.244
337.246
348.406
361.626
376.088
389.298
402.314
414.244
427.413
439.406
451.028
461.766
472.38
482.701
492.633
501.262
508.252
513.183
516.356
517.378
515.966
512.132
506.317
499.04
490.582
481.749
473.772
464.505
456.245
446.843
438.678
429.682
422.334
414.778
408.675
402.56
397.776
392.962
388.943
384.603
380.669
376.093
371.347
365.571
359.502
352.242
344.507
335.409
325.912
315.327
304.689
293.423
282.437
271.074
259.99
248.523
237.265
225.629
214.172
202.426
190.947
179.33
168.052
156.778
145.907
135.118
124.7
114.356
104.309
94.2779
84.4294
74.518
64.7021
54.7761
44.8967
34.869
24.9387
14.6885
5.34301
388.68
392.301
394.653
394.6
391.706
384.647
377.629
369.753
362.661
357.619
350.388
340.581
329.78
319.991
311.81
307.434
304.916
306.059
309.497
315.841
321.646
328.838
336.791
347.904
361.301
375.957
389.346
402.455
414.335
427.501
439.52
451.231
462.094
472.837
483.284
493.361
502.111
509.147
514.08
517.271
518.294
516.822
512.867
506.905
499.479
490.887
481.955
473.915
464.586
456.271
446.796
438.56
429.477
422.07
414.47
408.356
402.257
397.512
392.745
388.782
384.523
380.692
376.233
371.581
365.888
359.888
352.678
344.947
335.797
326.192
315.489
304.746
293.416
282.405
271.054
259.998
248.566
237.334
225.716
214.26
202.505
191.012
179.381
168.091
156.812
145.945
135.168
124.77
114.452
104.436
94.434
84.6118
74.7201
64.9159
54.9922
45.106
35.06
25.1007
14.7991
5.39181
388.31
392.151
394.454
394.306
391.481
384.272
377.154
369.264
362.265
357.414
350.217
340.257
329.308
319.4
311.136
306.72
304.196
305.361
308.914
315.35
321.18
328.373
336.298
347.375
360.969
375.834
389.409
402.605
414.427
427.578
439.622
451.408
462.397
473.277
483.858
494.097
502.983
510.069
515.006
518.219
519.237
517.694
513.604
507.483
499.904
491.183
482.158
474.059
464.669
456.301
446.75
438.439
429.27
421.803
414.155
408.03
401.947
397.24
392.52
388.612
384.436
380.709
376.366
371.804
366.188
360.253
353.087
345.349
336.129
326.401
315.568
304.719
293.332
282.307
270.983
259.969
248.581
237.386
225.791
214.342
202.579
191.075
179.429
168.128
156.846
145.983
135.22
124.844
114.555
104.571
94.6014
84.8075
74.937
65.1455
55.2245
45.331
35.2648
25.2748
14.9154
5.44765
387.907
391.957
394.232
393.893
391.299
383.908
376.643
368.744
361.832
357.18
350.018
339.893
328.779
318.745
310.389
305.938
303.407
304.578
308.263
314.81
320.671
327.863
335.777
346.823
360.638
375.725
389.51
402.811
414.573
427.711
439.777
451.612
462.731
473.76
484.495
494.923
503.982
511.14
516.082
519.317
520.332
518.714
514.48
508.189
500.446
491.584
482.455
474.291
464.828
456.396
446.753
438.355
429.078
421.536
413.825
407.68
401.609
396.937
392.258
388.401
384.314
380.706
376.495
372.026
366.488
360.612
353.479
345.712
336.394
326.521
315.549
304.595
293.161
282.14
270.862
259.911
248.584
237.437
225.876
214.439
202.669
191.151
179.49
168.178
156.892
146.037
135.289
124.938
114.681
104.733
94.7989
85.0352
75.1872
65.4077
55.4878
45.5843
35.4938
25.4692
15.0424
5.51384
387.475
391.711
393.993
393.465
391.133
383.512
376.075
368.189
361.359
356.923
349.799
339.508
328.225
318.051
309.597
305.101
302.564
303.76
307.585
314.239
320.113
327.286
335.22
346.263
360.313
375.636
389.629
403.021
414.716
427.829
439.915
451.791
463.035
474.216
485.112
495.751
505.008
512.243
517.19
520.445
521.446
519.74
515.345
508.871
500.963
491.969
482.746
474.521
464.988
456.492
446.757
438.269
428.883
421.264
413.486
407.32
401.26
396.622
391.983
388.176
384.181
380.696
376.613
372.23
366.758
360.933
353.822
346.01
336.575
326.545
315.432
304.38
292.911
281.911
270.697
259.823
248.572
237.483
225.964
214.544
202.768
191.234
179.556
168.233
156.944
146.094
135.363
125.037
114.814
104.903
95.0069
85.2749
75.4502
65.6832
55.7643
45.85
35.7334
25.6722
15.1711
5.58639
387.01
391.389
393.688
393.014
390.967
383.11
375.467
367.606
360.852
356.643
349.553
339.08
327.611
317.29
308.73
304.194
301.652
302.854
306.833
313.611
319.495
326.653
334.644
345.705
360.006
375.57
389.794
403.287
414.913
428.005
440.108
452.016
463.373
474.7
485.764
496.649
506.158
513.497
518.452
521.723
522.707
520.908
516.344
509.679
501.6
492.464
483.14
474.848
465.233
456.662
446.819
438.227
428.708
420.994
413.131
406.934
400.88
396.272
391.665
387.902
384.008
380.665
376.725
372.427
367.012
361.224
354.118
346.233
336.654
326.455
315.198
304.059
292.575
281.619
270.492
259.719
248.564
237.55
226.083
214.687
202.905
191.349
179.651
168.314
157.02
146.177
135.464
125.165
114.979
105.109
95.2518
85.5525
75.751
65.9953
56.0747
46.1465
35.9989
25.8964
15.3109
5.67009
386.504
391.015
393.349
392.584
390.741
382.655
374.805
366.99
360.306
356.341
349.288
338.631
326.973
316.491
307.818
303.234
300.688
301.917
306.054
312.947
318.812
325.955
334.044
345.156
359.717
375.531
389.978
403.553
415.102
428.161
440.276
452.226
463.691
475.162
486.386
497.516
507.306
514.763
519.729
523.012
523.967
522.058
517.308
510.44
502.192
492.932
483.522
475.169
465.476
456.831
446.879
438.179
428.53
420.715
412.763
406.534
400.488
395.906
391.33
387.611
383.821
380.625
376.821
372.592
367.217
361.457
354.341
346.365
336.629
326.258
314.864
303.651
292.168
281.276
270.256
259.601
248.558
237.632
226.225
214.855
203.067
191.486
179.764
168.409
157.11
146.272
135.577
125.306
115.157
105.329
95.5123
85.8463
76.0685
66.3241
56.4016
46.4581
36.2774
26.1307
15.4533
5.76193
385.963
390.584
392.951
392.139
390.454
382.174
374.104
366.352
359.73
356.021
348.996
338.135
326.271
315.619
306.825
302.202
299.651
300.888
305.193
312.209
318.052
325.217
333.441
344.623
359.454
375.52
390.21
403.878
415.348
428.376
440.498
452.483
464.054
475.67
487.057
498.416
508.554
516.161
521.155
524.443
525.363
523.344
518.405
511.33
502.915
493.527
484.022
475.601
465.817
457.086
447.007
438.184
428.376
420.439
412.376
406.104
400.062
395.498
390.944
387.263
383.589
380.559
376.904
372.732
367.381
361.633
354.483
346.389
336.477
325.933
314.409
303.139
291.683
280.882
269.996
259.482
248.576
237.758
226.423
215.085
203.288
191.676
179.921
168.545
157.239
146.406
135.729
125.489
115.38
105.595
95.8206
86.1886
76.4336
66.6992
56.7707
46.8077
36.5879
26.3913
15.6116
5.86639
385.362
390.11
392.527
391.7
390.095
381.626
373.351
365.684
359.121
355.683
348.682
337.615
325.542
314.706
305.788
301.117
298.561
299.823
304.301
311.438
317.236
324.451
332.835
344.104
359.206
375.536
390.46
404.196
415.58
428.563
440.686
452.713
464.396
476.162
487.718
499.276
509.783
517.541
522.584
525.868
526.74
524.595
519.45
512.16
503.588
494.093
484.51
476.027
466.155
457.337
447.131
438.179
428.213
420.148
411.968
405.653
399.618
395.067
390.534
386.891
383.335
380.477
376.958
372.821
367.475
361.732
354.533
346.306
336.213
325.504
313.863
302.557
291.147
280.457
269.721
259.363
248.608
237.914
226.66
215.356
203.548
191.9
180.107
168.705
157.389
146.56
135.901
125.692
115.623
105.883
96.1511
86.5536
76.822
67.0972
57.1619
47.177
36.9157
26.6658
15.7789
5.97684
384.718
389.585
392.052
391.227
389.659
381.048
372.567
364.999
358.492
355.329
348.337
337.043
324.742
313.714
304.665
299.956
297.394
298.662
303.291
310.588
316.364
323.679
332.239
343.601
358.978
375.576
390.756
404.573
415.872
428.813
440.928
452.986
464.782
476.705
488.443
500.186
511.089
519.03
524.159
527.425
528.245
525.98
520.63
513.128
504.408
494.806
485.142
476.587
466.609
457.69
447.333
438.235
428.079
419.859
411.532
405.17
399.135
394.587
390.065
386.454
383.024
380.359
376.985
372.86
367.499
361.746
354.469
346.087
335.81
324.948
313.208
301.887
290.551
279.999
269.438
259.259
248.679
238.131
226.974
215.71
203.886
192.196
180.352
168.917
157.589
146.765
136.126
125.948
115.922
106.228
96.5399
86.9779
77.2688
67.5515
57.6043
47.5914
37.2825
26.9731
15.9732
6.09829
384.016
389.024
391.551
390.742
389.155
380.41
371.739
364.283
357.837
354.96
347.965
336.443
323.913
312.68
303.499
298.739
296.172
297.47
302.208
309.698
315.464
322.92
331.657
343.108
358.752
375.638
391.065
404.938
416.144
429.03
441.134
453.229
465.142
477.234
489.158
501.087
512.354
520.485
525.723
528.954
529.709
527.31
521.74
514.023
505.168
495.487
485.762
477.142
467.057
458.036
447.528
438.278
427.932
419.545
411.065
404.659
398.627
394.079
389.564
385.984
382.674
380.208
376.963
372.824
367.436
361.666
354.294
345.751
335.302
324.305
312.485
301.169
289.926
279.529
269.154
259.164
248.772
238.388
227.341
216.119
204.275
192.535
180.634
169.16
157.818
146.998
136.378
126.231
116.248
106.6
96.9556
87.4298
77.744
68.0333
58.0726
48.0285
37.6695
27.2977
16.1839
6.22684
383.275
388.414
391.002
390.215
388.568
379.751
370.882
363.54
357.173
354.58
347.558
335.783
323.005
311.559
302.238
297.439
294.862
296.19
300.975
308.681
314.508
322.184
331.11
342.639
358.537
375.721
391.42
405.364
416.484
429.316
441.397
453.515
465.547
477.823
489.945
502.072
513.684
522.075
527.444
530.608
531.293
528.773
522.994
515.08
506.106
496.351
486.557
477.858
467.643
458.5
447.812
438.389
427.817
419.23
410.566
404.108
398.07
393.509
388.99
385.436
382.243
380.008
376.884
372.706
367.274
361.474
353.978
345.266
334.659
323.548
311.671
300.385
289.262
279.043
268.875
259.094
248.914
238.722
227.808
216.63
204.759
192.96
180.987
169.467
158.11
147.295
136.692
126.576
116.636
107.036
97.4382
87.9498
78.2862
68.5792
58.5984
48.5158
38.0999
27.6602
16.4273
6.37385
382.471
387.766
390.427
389.665
387.916
379.03
369.979
362.752
356.492
354.187
347.117
335.091
322.065
310.395
300.93
296.078
293.491
294.887
299.68
307.612
313.524
321.467
330.583
342.186
358.318
375.825
391.786
405.77
416.797
429.567
441.622
453.771
465.926
478.403
490.731
503.057
514.966
523.667
529.149
532.219
532.821
530.169
524.168
516.06
506.987
497.188
487.351
478.571
468.221
458.954
448.082
438.479
427.681
418.881
410.026
403.515
397.478
392.891
388.357
384.835
381.762
379.758
376.728
372.488
367.014
361.174
353.541
344.668
333.93
322.728
310.814
299.578
288.59
278.561
268.604
259.037
249.081
239.103
228.339
217.208
205.304
193.433
181.38
169.809
158.434
147.624
137.037
126.95
117.052
107.501
97.9495
88.4988
78.858
69.1534
59.15
49.0247
38.549
28.0391
16.6829
6.53624
381.623
387.066
389.8
389.065
387.152
378.284
369.044
361.92
355.812
353.786
346.635
334.334
321.041
309.137
299.52
294.624
292.021
293.473
298.278
306.448
312.471
320.759
330.062
341.75
358.108
375.95
392.195
406.239
417.183
429.892
441.909
454.071
466.354
479.058
491.61
504.141
516.312
525.42
531.003
533.943
534.462
531.701
525.501
517.228
508.076
498.241
488.362
479.485
468.96
459.544
448.452
438.641
427.58
418.529
409.45
402.872
396.829
392.17
387.644
384.131
381.242
379.461
376.48
372.155
366.635
360.74
352.947
343.922
333.082
321.813
309.884
298.723
287.899
278.08
268.349
259.012
249.306
239.573
228.986
217.909
205.958
194.001
181.852
170.223
158.83
148.022
137.447
127.389
117.536
108.037
98.5326
89.1203
79.5008
69.7943
59.7599
49.5824
39.0392
28.4533
16.9642
6.72132
380.705
386.327
389.138
388.425
386.315
377.484
368.065
361.035
355.128
353.372
346.116
333.546
319.987
307.836
298.062
293.106
290.491
292.02
296.91
305.19
311.287
320.097
329.584
341.336
357.893
376.089
392.608
406.681
417.539
430.182
442.162
454.345
466.764
479.711
492.5
505.233
517.592
527.156
532.802
535.59
536.025
533.148
526.738
518.31
509.103
499.266
489.372
480.39
469.689
460.117
448.803
438.771
427.446
418.132
408.823
402.179
396.127
391.372
386.9
383.364
380.715
379.117
376.126
371.707
366.157
360.197
352.238
343.085
332.173
320.859
308.931
297.865
287.221
277.619
268.113
259.001
249.551
240.089
229.702
218.681
206.673
194.616
182.366
170.674
159.26
148.449
137.884
127.854
118.046
108.598
99.1405
89.7661
80.1682
70.4578
60.3885
50.153
39.5382
28.8725
17.2443
6.91473
379.753
385.533
388.417
387.721
385.342
376.669
367.058
360.085
354.455
352.951
345.552
332.687
318.843
306.433
296.492
291.488
288.875
290.442
295.488
303.78
309.88
319.421
329.143
340.977
357.707
376.239
393.054
407.188
417.976
430.557
442.486
454.668
467.226
480.45
493.504
506.441
518.962
529.035
534.699
537.327
537.7
534.744
528.16
519.614
510.378
500.551
490.662
481.537
470.609
460.849
449.264
438.977
427.344
417.728
408.152
401.433
395.346
390.48
386.116
382.553
380.178
378.712
375.648
371.141
365.56
359.509
351.372
342.118
331.169
319.83
307.925
296.98
286.541
277.171
267.907
259.032
249.859
240.697
230.542
219.583
207.498
195.327
182.965
171.206
159.764
148.947
138.389
128.388
118.629
109.231
99.82
90.4832
80.9051
71.1854
61.0703
50.765
40.0683
29.3126
17.535
7.11223
378.731
384.691
387.654
386.967
384.287
375.81
366.009
359.071
353.787
352.511
344.942
331.797
317.669
304.987
294.873
289.812
287.23
288.842
294.061
302.418
308.51
318.748
328.709
340.656
357.544
376.4
393.484
407.655
418.378
430.895
442.777
454.964
467.676
481.189
494.521
507.656
520.34
530.876
536.485
538.97
539.301
536.252
529.481
520.831
511.596
501.815
491.949
482.669
471.517
461.561
449.7
439.143
427.201
417.27
407.411
400.629
394.483
389.535
385.295
381.755
379.618
378.219
375.051
370.47
364.87
358.711
350.405
341.086
330.129
318.783
306.919
296.119
285.893
276.754
267.721
259.083
250.184
241.335
231.439
220.542
208.364
196.073
183.6
171.774
160.301
149.473
138.92
128.95
119.235
109.884
100.517
91.2168
81.6599
71.9293
61.7631
51.3792
40.5918
29.7358
17.8046
7.29098
377.675
383.783
386.83
386.145
383.086
374.94
364.928
357.96
353.127
352.052
344.277
330.828
316.395
303.431
293.141
288.045
285.536
287.117
292.524
301.034
307.191
318.06
328.245
340.364
357.443
376.587
393.943
408.183
418.862
431.324
443.145
455.311
468.182
482.009
495.657
508.99
521.905
532.864
538.348
540.713
541.037
537.931
531.011
522.299
513.096
503.38
493.544
484.057
472.643
462.453
450.258
439.386
427.084
416.8
406.613
399.764
393.51
388.497
384.421
380.967
379.013
377.624
374.321
369.678
364.046
357.753
349.288
339.947
329.014
317.676
305.88
295.256
285.267
276.365
267.565
259.18
250.575
242.059
232.447
221.613
209.322
196.906
184.316
172.42
160.913
150.071
139.525
129.589
119.919
110.611
101.285
92.023
82.4877
72.7407
62.5091
52.0281
41.1306
30.1534
18.059
7.4421
376.54
382.819
385.962
385.269
381.865
374.017
363.793
356.761
352.454
351.554
343.557
329.824
315.089
301.83
291.375
286.23
283.855
285.393
290.975
299.705
305.972
317.387
327.76
340.081
357.378
376.8
394.387
408.661
419.299
431.717
443.482
455.64
468.679
482.826
496.802
510.343
523.522
534.798
540.091
542.376
542.709
539.509
532.42
523.664
514.526
504.908
495.107
485.412
473.748
463.318
450.779
439.58
426.916
416.261
405.73
398.823
392.439
387.39
383.479
380.183
378.326
376.909
373.477
368.781
363.121
356.687
348.094
338.772
327.882
316.562
304.857
294.439
284.696
276.017
267.425
259.278
250.968
242.787
233.473
222.696
210.291
197.755
185.052
173.088
161.548
150.693
140.156
130.254
120.623
111.351
102.064
92.8442
83.3364
73.572
63.2646
52.6684
41.6404
30.5227
18.2647
7.54592
375.379
381.788
385.043
384.356
380.651
373.047
362.606
355.429
351.749
351.007
342.767
328.729
313.671
300.112
289.507
284.332
282.106
283.547
289.279
298.35
304.772
316.682
327.215
339.792
357.379
377.055
394.873
409.203
419.823
432.216
443.907
456.025
469.23
483.71
498.045
511.85
525.377
536.887
541.941
544.19
544.551
541.276
534.06
525.312
516.272
506.766
497.009
487.052
475.095
464.386
451.432
439.853
426.766
415.699
404.782
397.801
391.28
386.171
382.451
379.36
377.535
376.076
372.508
367.759
362.044
355.457
346.77
337.514
326.688
315.399
303.821
293.642
284.165
275.703
267.306
259.399
251.418
243.574
234.567
223.841
211.319
198.666
185.843
173.81
162.243
151.379
140.858
130.992
121.398
112.158
102.914
93.7467
84.2719
74.4816
64.0737
53.3296
42.1379
30.8507
18.4248
7.5995
374.148
380.705
384.097
383.422
379.478
371.984
361.355
354.016
350.98
350.384
341.908
327.591
312.214
298.352
287.619
282.42
280.244
281.666
287.57
297.052
303.658
315.988
326.633
339.481
357.401
377.339
395.352
409.69
420.293
432.681
444.307
456.393
469.769
484.579
499.276
513.397
527.276
538.915
543.71
545.972
546.352
542.927
535.563
526.848
517.94
508.575
498.86
488.649
476.415
465.421
452.042
440.071
426.545
415.052
403.739
396.668
390.035
384.851
381.34
378.479
376.63
375.122
371.427
366.628
360.861
354.132
345.401
336.243
325.481
314.236
302.823
292.911
283.697
275.422
267.183
259.486
251.831
244.32
235.611
224.931
212.31
199.552
186.615
174.519
162.933
152.061
141.56
131.73
122.17
112.964
103.77
94.6696
85.2384
75.4152
64.8826
53.9584
42.5738
31.0973
18.5144
7.59661
372.912
379.569
383.128
382.471
378.322
370.863
360.061
352.559
350.155
349.679
340.966
326.35
310.632
296.474
285.62
280.479
278.11
279.427
285.589
295.648
302.57
315.273
325.989
339.14
357.465
377.667
395.884
410.24
420.853
433.267
444.808
456.822
470.369
485.512
500.578
515.106
529.403
541.107
545.652
547.974
548.358
544.779
537.318
528.693
519.95
510.733
501.049
490.528
478
466.683
452.802
440.379
426.33
414.377
402.636
395.412
388.689
383.377
380.185
377.517
375.614
374.059
370.221
365.367
359.524
352.658
343.932
334.904
324.213
313.038
301.839
292.22
283.263
275.148
267.055
259.567
252.26
245.089
236.656
226.013
213.304
200.448
187.392
175.239
163.646
152.77
142.304
132.518
122.995
113.826
104.7
95.6886
86.306
76.4268
65.7254
54.5738
42.9583
31.2703
18.5415
7.54418
371.61
378.389
382.141
381.496
377.179
369.658
358.715
351.132
349.267
348.882
339.947
325.06
309.01
294.568
283.6
278.544
275.91
276.942
283.423
294.082
301.547
314.585
325.336
338.77
357.532
378.014
396.406
410.72
421.349
433.83
445.298
457.247
470.974
486.449
501.882
516.854
531.506
543.222
547.559
549.985
550.328
546.487
538.908
530.403
521.856
512.807
503.148
492.343
479.543
467.903
453.517
440.625
426.033
413.603
401.435
394.024
387.244
381.805
378.945
376.455
374.497
372.91
368.925
364.015
358.101
351.124
342.451
333.563
322.928
311.851
300.916
291.606
282.874
274.875
266.893
259.579
252.594
245.777
237.583
226.967
214.195
201.256
188.095
175.897
164.308
153.436
143.013
133.276
123.793
114.671
105.635
96.7354
87.4073
77.4464
66.5328
55.1143
43.2441
31.3411
18.4966
7.44678
370.316
377.159
381.133
380.512
376.054
368.41
357.345
349.727
348.332
347.999
338.84
323.657
307.254
292.543
281.471
276.489
273.614
274.193
281.016
292.179
300.35
313.803
324.628
338.361
357.622
378.396
396.984
411.264
421.944
434.536
445.907
457.751
471.66
487.495
503.343
518.8
533.816
545.513
549.707
552.275
552.532
548.413
540.776
532.448
524.128
515.249
505.586
494.467
481.374
469.375
454.408
440.964
425.735
412.791
400.185
392.512
385.705
380.195
377.625
375.27
373.307
371.701
367.541
362.558
356.542
349.473
340.899
332.157
321.577
310.642
300.022
291.031
282.494
274.577
266.698
259.564
252.935
246.488
238.46
227.847
215.023
202.006
188.745
176.518
164.951
154.096
143.736
134.056
124.624
115.564
106.653
97.8924
88.6067
78.5112
67.3204
55.5874
43.4391
31.3228
18.3938
7.31441
368.968
375.887
380.106
379.497
374.922
367.093
355.935
348.352
347.343
347.021
337.655
322.201
305.456
290.492
279.328
274.351
271.339
271.613
278.615
290.109
298.946
312.952
323.902
337.918
357.691
378.784
397.55
411.731
422.478
435.241
446.527
458.278
472.357
488.557
504.848
520.784
536.085
547.742
551.856
554.61
554.714
550.181
542.466
534.346
526.279
517.587
507.919
496.524
483.16
470.795
455.251
441.229
425.342
411.864
398.847
390.877
384.042
378.575
376.177
373.966
372.058
370.449
366.101
361.04
354.929
347.801
339.359
330.741
320.208
309.46
299.198
290.518
282.125
274.251
266.443
259.472
253.202
247.128
239.184
228.548
215.694
202.614
189.267
177.032
165.497
154.681
144.394
134.774
125.403
116.431
107.679
99.0762
89.8134
79.5264
68.0048
55.9315
43.5076
31.2023