/*--------------------------------*- C++ -*----------------------------------*\
| =========                 |                                                 |
| \\      /  F ield         | OpenFOAM: The Open Source CFD Toolbox           |
|  \\    /   O peration     | Version:  4.1                                   |
|   \\  /    A nd           | Web:      www.OpenFOAM.org                      |
|    \\/     M anipulation  |                                                 |
\*---------------------------------------------------------------------------*/
FoamFile
{
    version     2.0;
    format      ascii;
    class       surfaceScalarField;
    location    "28";
    object      phi;
}
// * * * * * * * * * * * * * * * * * * * * * * * * * * * * * * * * * * * * * //

dimensions      [0 3 -1 0 0 0 0];

internalField   nonuniform List<scalar> 
52920
(
-38.9133
22.174
7.66107
-116.036
262.24
-89.096
440.899
-29.8712
922.831
449.656
1043.75
-58.3075
1057.26
160.369
1220.98
-47.1753
1101.14
134.397
1259.7
-23.5543
1506.4
-294.111
1904.95
-360.851
2243.05
-296.198
2317.82
-193.168
2337.47
-96.7298
2403.22
-23.7761
2377.69
-27.0327
2448.18
-19.5351
2425.44
-53.616
2573.17
-95.249
2608.81
-129.06
2738.33
-92.0746
2739.31
-80.9822
2784.37
-74.5033
2689.79
-38.3505
2643.89
-3.01927
2477.99
-25.3001
2525.67
-23.7811
2453.52
-47.3983
2587.17
-87.7224
2653.68
-120.215
2797.58
-128.816
2889.61
-147.901
3028.25
-170.141
3155.55
-204.831
3374.03
-234.844
3581.8
-262.937
3843.29
-286.396
4112.12
-320.705
4437.34
-368.637
4798.11
-418.954
5187.67
-449.514
5577.36
-457.592
5958.83
-450.257
6345.18
-434.163
6692.42
-411.813
6920.51
-387.925
7282.72
-367.956
7452.76
-342.353
7801.14
-323.663
7922.07
-298.468
8232.99
-282.396
8314.07
-260.687
8579.52
-246.714
8674.11
-227.376
8926.97
-213.628
9011.54
-196.032
9231.33
-185.251
9329.96
-174.01
9542.57
-168.925
9645.48
-164.969
9848.45
-168.214
9980.82
-175.245
10202.9
-188.269
10372.6
-204.743
10626.7
-224.713
10840.9
-244.329
11133.6
-265.524
11381.2
-282.124
11699.8
-298.191
11973.8
-307.579
12308
-316.053
12592.6
-319.335
12929.9
-323.03
13221.9
-323.429
13560.9
-324.749
13853.7
-322.95
14188.4
-321.401
14478.1
-316.273
14802.8
-310.857
15079.9
-302.127
15386.5
-293.724
15648
-283.142
15934.6
-273.643
16178
-263.076
16444.2
-254.238
16672.8
-245.1
16922.5
-237.921
17138.9
-230.781
17375.3
-225.572
17583.7
-220.418
17810.8
-216.957
18013.8
-213.448
18234.4
-211.448
18435.4
-209.403
18652.8
-208.803
18853.9
-208.736
19070.6
-209.987
19280
-214.717
-224.644
198.458
-11.5723
381.947
-173.784
831.444
-66.0139
1259.45
229.582
2230.92
968.654
1708.13
808.162
1287.12
1015.78
1383.05
303.315
934.365
738.525
1117.6
34.9435
1408.96
-576.728
1838.82
-710.912
2208.55
-609.451
2236.65
-361.728
2211.43
-169.98
2253.21
-37.5759
2203.81
-44.8119
2270.09
-61.9717
2237.07
-119.034
2396.74
-204.887
2427.18
-248.62
2563.13
-181.709
2555.22
-151.567
2601.13
-152.673
2498.84
-86.5225
2444.84
-23.1529
2257.65
-55.1511
2321.73
-64.8643
2249.83
-90.2476
2395.25
-159.267
2479.33
-221.492
2656.58
-250.075
2774.86
-281.408
2941.46
-324.735
3092.44
-385.942
3336.68
-443.723
3564.37
-494.494
3841.86
-537.102
4118.76
-602.656
4446.88
-698.626
4807.29
-796.946
5195.06
-856.598
5582.42
-871.985
5962.31
-858.272
6348.58
-830.013
6698.53
-792.757
6933.41
-752.994
7303.23
-721.011
7486.16
-680.299
7846.46
-649.533
7986.35
-610.159
8314.47
-584.085
8421.36
-551.203
8709.99
-527.52
8834.66
-496.054
9114.08
-470.504
9231.41
-440.007
9479.91
-418.037
9611.49
-396.748
9852.68
-384.255
9987.69
-375.854
10218
-378.364
10379.9
-388.636
10626.7
-409.587
10823
-437.372
11099.2
-472.115
11337.2
-508.663
11649.6
-546.937
11919
-579.749
12255.4
-608.764
12548.8
-627.905
12898.6
-642.212
13200.2
-648.65
13550.9
-653.436
13857.3
-653.899
14207.3
-654.255
14512.4
-650.673
14856.1
-645.739
15156
-635.775
15488.1
-623.556
15773.7
-606.815
16086.4
-588.94
16354.7
-568.484
16646.1
-548.536
16895
-527.962
17164.8
-509.278
17397.3
-491.323
17649.3
-475.877
17868
-461.753
18105.3
-450.172
18314.5
-439.905
18541
-431.79
18743.1
-424.733
18961.5
-419.464
19159.9
-415.223
19373.3
-412.697
19569.8
-411.989
19780.9
-413.971
19981.1
-419.205
-439.957
184.792
-284.645
356.067
-519.918
773.504
-342.648
1058.21
-29.3675
1785.95
1971.82
1472.44
1012.57
1226.01
1294.66
1364.04
148.749
1057.01
1002.8
1214.93
-45.0598
1449.34
-875.848
1825.29
-1065.83
2156.34
-897.238
2190.99
-519.042
2178.23
-228.731
2230.51
-45.3696
2196.78
-58.4551
2269.88
-76.0649
2248.06
-166.446
2407.14
-312.806
2438.2
-378.957
2569.48
-278.531
2555.35
-223.488
2592.09
-221.803
2486.35
-117.58
2430.55
-11.0139
2251
-69.3049
2331.9
-119.512
2271.25
-154.992
2413.23
-265.073
2497.07
-376.972
2670.47
-423.848
2780.12
-466.174
2932.93
-527.672
3066.29
-618.725
3288.84
-702.802
3491.34
-774.582
3738.44
-830.038
3980.74
-916.257
4272.94
-1051.48
4599.6
-1198.54
4956.85
-1290.3
5317.51
-1317.13
5675.31
-1300.78
6044.18
-1261.93
6381.37
-1209.73
6608.43
-1150.29
6973.06
-1100.55
7155.6
-1038.64
7516.16
-990.314
7661.73
-931.217
7995.86
-891.202
8115.09
-843.026
8415.88
-807.156
8557.58
-761.21
8853.06
-722.847
8990.39
-678.549
9257.37
-645.619
9410.01
-615.291
9670.32
-596.93
9826.46
-585.763
10075.7
-589.861
10257.4
-607.507
10521.3
-639.407
10735.1
-683.671
11025.8
-735.934
11277.9
-790.826
11601.5
-847.256
11881.5
-894.828
12225.5
-936.241
12526
-962.573
12880.2
-981.602
13185.8
-989.57
13538.3
-994.723
13846.5
-994.382
14196.8
-993.461
14502.5
-987.449
14845.9
-978.918
15146.1
-963.53
15477.9
-944.272
15763.8
-918.623
16076.4
-890.913
16345.2
-859.698
16636.7
-828.969
16886.1
-797.606
17156.2
-768.819
17389.2
-741.352
17641.3
-717.462
17860.4
-695.691
18097.6
-677.606
18306.9
-661.543
18533
-648.649
18734.8
-637.305
18952.3
-628.603
19149.6
-621.271
19361.4
-616.529
19555.6
-613.98
19763.6
-615.933
19958.3
-618.64
-648.544
197.454
-299.833
340.904
-484.871
725.197
-258.834
1444.39
-118.609
2939.8
3204.6
1411.92
2765.53
1212.48
1829.91
1350.66
423.421
1092.48
1415.18
1239.76
-4.44054
1451.12
-1069
1799.25
-1343.07
2114.12
-1158.68
2152.34
-686.324
2144.72
-316.483
2203.24
-84.5997
2178.28
-98.2986
2254.88
-142.032
2237.08
-248.356
2395.27
-429.678
2421.05
-494.165
2541.12
-357.273
2513.19
-275.861
2539.39
-283.971
2428.71
-162.311
2371.64
-34.8365
2193.17
-112.832
2287.32
-187.05
2232.55
-211.248
2362.52
-320.765
2424.42
-454.335
2579.89
-518.129
2670.96
-565.606
2803.52
-637.166
2913.65
-747.433
3114.98
-852.014
3294.56
-942.687
3518.85
-1010.37
3734.96
-1124.33
4001.8
-1309.76
4306.11
-1510.92
4644.06
-1638.03
4986.95
-1678
5328.58
-1661.46
5683.27
-1617.64
6007.57
-1558.11
6221.87
-1491.82
6578.61
-1434.24
6751.4
-1365.07
7106.76
-1307.91
7245.34
-1243.16
7577.64
-1197.32
7694.52
-1147.02
7997.76
-1105.05
8141.67
-1053.38
8442.71
-1004.87
8584.54
-951.999
8858.31
-907.938
9016.77
-869.506
9284.43
-842.724
9446.75
-827.869
9702.9
-829.44
9890.85
-849.191
10160.9
-886.29
10380.3
-939.558
10676.2
-1003.35
10932.4
-1072.78
11259.7
-1142.97
11541.9
-1204.39
11887.7
-1255.37
12188.1
-1288.84
12541.6
-1310.45
12845
-1319.26
13195
-1323.17
13500
-1321.71
13847.3
-1318.91
14150.1
-1311.18
14491.5
-1299.36
14789.7
-1279.77
15120.6
-1254.21
15405.6
-1221.38
15718.2
-1184.77
15987.1
-1144.43
16279.4
-1103.75
16529.7
-1062.95
16801.1
-1024.66
17035.5
-988.705
17289.5
-956.722
17510.3
-928.111
17749.6
-903.706
17960.9
-882.539
18189.3
-864.943
18393.1
-849.887
18612.9
-837.654
18812.1
-827.609
19025.8
-820.3
19221.1
-815.877
19429.9
-817.397
19624.3
-816.858
-853.796
209.551
-651.937
308.827
-811.395
616.673
-518.325
1065.71
-717.972
2022.61
3152.6
1284.92
3359.6
1181.43
1911.91
1326.15
199.179
1114.61
1560.61
1250.38
-107.93
1451.28
-1337.74
1775.69
-1661.41
2070.04
-1415.93
2114.45
-837.889
2118.13
-381.403
2186.96
-111.431
2176.51
-127.867
2259.3
-166.947
2250
-301.361
2406.44
-540.473
2431
-619.301
2544.53
-442.484
2511.6
-331.693
2531
-338.558
2419.88
-188.367
2366.1
-21.7514
2192.82
-132.4
2290.23
-257.729
2235.83
-284.104
2341.99
-399.692
2373.75
-571.6
2511.22
-668.944
2584.9
-731.405
2701.39
-817.925
2796.16
-959.004
2986.54
-1092.41
3156.32
-1205.43
3370.26
-1281.82
3571.75
-1408.99
3821.93
-1631.88
4108.98
-1884.19
4428.32
-2044.62
4750.44
-2095.7
5070.44
-2076.65
5404
-2023.27
5707.29
-1949.92
5899.97
-1868.07
6239.37
-1793.76
6392.98
-1703.63
6733.79
-1629.51
6855.89
-1547.29
7177.45
-1490.25
7282.67
-1428.64
7579.83
-1377.33
7716.81
-1314.17
8015.16
-1254.23
8152.31
-1189.41
8424.61
-1134.82
8579.79
-1088.39
8846.5
-1055.81
9005.9
-1039.01
9260.87
-1042.23
9446.35
-1070.4
9715.04
-1118.57
9932
-1189.45
10226.4
-1270.84
10480
-1358.59
10805.4
-1446.25
11084.4
-1521.5
11427.4
-1583.02
11723.3
-1621.84
12072.3
-1645.69
12369.7
-1654.64
12714.1
-1657.49
13013
-1655.43
13355.7
-1651.63
13653.9
-1643.05
13992.5
-1628.83
14288.6
-1605.73
14618.8
-1574.34
14903.5
-1534.14
15217.2
-1488.55
15487.2
-1438.59
15781.7
-1387.7
16034.1
-1336.93
16308.5
-1288.88
16545.6
-1243.98
16802.9
-1203.74
17026.9
-1167.91
17269.9
-1137.1
17484.6
-1110.45
17716.9
-1088.1
17924.3
-1068.92
18148.1
-1053.06
18350.8
-1039.75
18568.1
-1029.61
18766.4
-1022.52
18977.6
-1022.72
19174.1
-1018.11
-1059.21
187.159
-549.464
281.651
-677.292
559.796
-363.266
939.491
-605.612
1685.3
3692.02
1191.31
4078.46
1152.93
2298.57
1289.45
536.231
1104.09
1910.58
1242.11
-79.003
1440.73
-1514.06
1753.88
-1911
2042.29
-1655.79
2089.71
-1006.05
2097.16
-483.093
2170.68
-171.756
2165.89
-186.587
2248.52
-251.584
2237.96
-394.273
2391.01
-661.046
2407.08
-728.085
2507.87
-508.973
2464.03
-372.15
2475.05
-391.855
2359.45
-236.991
2306.92
-60.1841
2125.98
-182.443
2220.4
-323.178
2162.6
-335.854
2269.08
-430.777
2283.89
-601.158
2398.3
-718.785
2466.74
-801.783
2591.64
-905.478
2692.68
-1062.49
2890.94
-1216.02
3065.74
-1346.2
3279.86
-1427.6
3470.74
-1572.69
3702.88
-1840.41
3968.15
-2143.31
4262.93
-2334.45
4557.64
-2393.77
4849.21
-2372.19
5155.14
-2315.11
5431.71
-2239.94
5598.21
-2156.78
5916.58
-2080.15
6047.07
-1987.62
6369.8
-1908.45
6470.75
-1826.23
6777.44
-1769.05
6865.54
-1711.91
7151.89
-1659.79
7276.26
-1595.38
7567.11
-1528.3
7693.9
-1457.33
7960.01
-1392.96
8106.67
-1339.08
8368.16
-1298.25
8519.72
-1277.64
8769.25
-1278
8947.78
-1307.1
9210.92
-1359.55
9421.44
-1438.02
9710.9
-1530.44
9958.39
-1632.35
10279.5
-1733.74
10552.4
-1822.38
10890.6
-1892.74
11179.5
-1937.1
11522.1
-1962.09
11811.6
-1970.39
12149.1
-1971.81
12440.9
-1969.15
12778.6
-1965.47
13072.7
-1957.51
13409.8
-1943.05
13705.4
-1918.36
14037.3
-1883.38
14324.3
-1838.07
14641.8
-1785.57
14915.8
-1727.8
15215.5
-1668.27
15472.8
-1608.79
15752.9
-1551.99
15995.3
-1498.94
16258.5
-1451.03
16487.9
-1408.48
16736.8
-1371.63
16956.9
-1339.95
17195
-1313.11
17407.7
-1290.19
17637.1
-1270.81
17844.9
-1254.44
18067.2
-1241.31
18269.8
-1231.53
18484.8
-1230
18684.8
-1221.58
-1265.32
243.304
-913.385
279.783
-1073.54
498.624
-597.807
701.791
-1009.95
1123.16
3153.93
1093.74
3945.63
1131.89
2188.57
1257.83
229.767
1097.71
1974.43
1235.09
-216.502
1434.67
-1786.27
1735.73
-2216.07
2011.09
-1897.48
2064.78
-1150.54
2083.58
-550.955
2166.12
-211.539
2172.74
-225.306
2258.11
-275.441
2253.3
-442.704
2404.25
-768.935
2420.18
-842.997
2517.13
-579.916
2473.88
-417.682
2479.36
-432.79
2359.88
-253.153
2307.91
-42.2722
2125.68
-189.188
2211.42
-381.152
2149.81
-404.558
2252.47
-513.482
2249.18
-695.138
2346.46
-843.278
2416.4
-982.321
2544.63
-1115.5
2647.71
-1302.7
2847.46
-1485.26
3021.25
-1635.06
3226.98
-1709.91
3399.36
-1845.37
3606.8
-2135.33
3845.4
-2483.29
4111.93
-2703.29
4377.16
-2770.2
4640.43
-2745.91
4920.72
-2681.24
5173.47
-2596.63
5316.43
-2497.8
5616.24
-2405.08
5724.68
-2291.49
6029.49
-2193.79
6107.63
-2095.27
6396.79
-2027.25
6463.26
-1961.6
6733.6
-1900.94
6838.83
-1827.52
7115.73
-1749.29
7225.09
-1668.74
7478.68
-1594.21
7610.39
-1534.36
7861.1
-1488.07
7999.46
-1467.45
8239.26
-1470.1
8406.72
-1510.03
8661.12
-1574.59
8861.94
-1673.3
9143.8
-1784.94
9382.54
-1906.71
9697.07
-2026.34
9961.61
-2129.39
10293.2
-2209.21
10573.2
-2258.06
10908
-2283.37
11188.1
-2291.81
11518.2
-2292.39
11803
-2291.9
12136.9
-2290.36
12429
-2286.2
12767.5
-2273.46
13066.1
-2249.59
13403.9
-2211.95
13697.3
-2161.98
14023.1
-2102.22
14305.4
-2036.16
14614.2
-1967.03
14880.2
-1897.98
15169.5
-1831.38
15420.4
-1769.26
15692.3
-1712.75
15929.5
-1662.66
16186.4
-1619.04
16413.9
-1581.57
16659.4
-1549.62
16878.9
-1522.21
17115
-1498.7
17328.9
-1478.39
17557.2
-1461.53
17764.7
-1448.01
17984.1
-1443.64
18188.2
-1430.57
-1473.97
261.187
-738.025
291.821
-759.981
469.91
-302.035
660.028
-781.32
1035.56
3444.45
1042.88
4170.36
1116.19
2492.3
1208.5
670.481
1072.84
2280.83
1218.63
-211.321
1421.57
-1966.86
1718.31
-2456.96
1992.71
-2128.27
2049.83
-1321.45
2071.69
-665.376
2157.2
-287.225
2166.12
-294.993
2248.08
-369.412
2239.72
-540.689
2388.04
-892.124
2396.2
-947.833
2481.39
-639.131
2428.08
-453.382
2419.47
-473.509
2286.74
-294.61
2233.8
-90.376
2038.96
-234.846
2119.13
-431.223
2051.93
-448.089
2154.81
-541.257
2157.36
-714.448
2254.32
-878.127
2321.49
-1051.94
2460.85
-1210.73
2572.89
-1407.88
2780.09
-1603.66
2957.49
-1763.47
3160.99
-1826.98
3318.82
-1963.21
3505.95
-2290.02
3724.07
-2686.6
3970.63
-2935.1
4215.57
-3008.6
4460.02
-2983.12
4723.64
-2920
4960.91
-2838.29
5087.39
-2743.69
5374.68
-2649.88
5464.46
-2534.36
5753.1
-2430.51
5807.02
-2332.18
6075.82
-2264.54
6114.82
-2205.11
6362.58
-2144.96
6440.15
-2071.85
6694.58
-1987.9
6776.85
-1903.45
7009.06
-1821.14
7116.76
-1755.92
7348.94
-1703.21
7466.43
-1680.86
7690.09
-1682.54
7840.69
-1724.18
8081.24
-1793.64
8267.91
-1900.01
8538.59
-2023.6
8765.02
-2160.7
9070.31
-2295.42
9323.79
-2412.52
9646.45
-2501.45
9915.34
-2554.91
10240.5
-2581.15
10510.5
-2589.18
10833.2
-2590.88
11112.4
-2593.6
11445.1
-2597.96
11739
-2600.42
12083.6
-2593.7
12390.6
-2573.24
12739.5
-2536.25
13044.9
-2483.94
13384
-2419.22
13679.2
-2346.17
14001.4
-2268.72
14279.8
-2190.56
14581.3
-2114.62
14843.4
-2043.36
15126
-1978.24
15373
-1920.35
15639.3
-1869.81
15875.1
-1826.4
16128.9
-1789.23
16355.8
-1757.26
16599.1
-1729.44
16819.2
-1705.07
17053.4
-1684.22
17265.9
-1666.76
17490
-1659.32
17698.1
-1641.95
-1683.76
446.143
-1280.13
383.652
-1197.43
452.234
-488.722
568.893
-1084.71
861.66
2892.04
995.001
3879.37
1105.57
2287.65
1177.58
337.963
1058.52
2288.18
1206.57
-378.224
1413.44
-2247.3
1703.56
-2758.06
1969.57
-2363.57
2033.45
-1465.12
2066.14
-739.686
2158.76
-337.488
2175.75
-338.5
2258.24
-390.825
2255.27
-586.448
2403.36
-1000.63
2413.5
-1057.27
2495.74
-699.916
2442.38
-490.897
2430.06
-499.117
2291.59
-292.92
2233.92
-64.8971
2039.32
-229.488
2111.69
-476.369
2045.19
-516.212
2146.23
-629.03
2150.42
-827.161
2237.39
-1004.24
2291.64
-1232.34
2427.48
-1443.67
2534.17
-1669.94
2736.91
-1892.64
2910.77
-2070.48
3107.6
-2113.11
3251.34
-2219.27
3422.72
-2561.07
3627.28
-3004.9
3861.44
-3283.29
4094.48
-3364.91
4329.41
-3339.06
4585.91
-3272.01
4816.16
-3181.99
4933.31
-3073.42
5212.73
-2960.3
5287.72
-2815.07
5561.83
-2685.3
5592.14
-2562.69
5839.12
-2478.34
5847.73
-2405.04
6068.33
-2331.99
6111.99
-2246.98
6336.88
-2149.31
6383.6
-2055.82
6585.98
-1963.53
6660.36
-1895.23
6865.34
-1838.86
6953.3
-1821.1
7153.64
-1828.59
7280.59
-1887.24
7501.92
-1972.41
7669.14
-2104.42
7924.33
-2250.86
8134.41
-2411.19
8427.13
-2565.77
8666.28
-2699.32
8977.38
-2796.98
9232.9
-2855.64
9547.72
-2882.34
9807.92
-2894.25
10125.8
-2899.89
10403.6
-2912.65
10740.8
-2927.34
11043
-2942.36
11400.7
-2944.56
11722.8
-2930.76
12089.1
-2894.72
12411.8
-2839.62
12768.7
-2767.96
13080.3
-2685.93
13418.5
-2597.46
13711
-2507.87
14025.8
-2420.05
14299.4
-2337.6
14592.8
-2261.85
14849
-2194.54
15123.9
-2135.55
15367.1
-2084.87
15627.9
-2041.27
15860.9
-2003.57
16109.9
-1970.43
16334.9
-1940.89
16573.8
-1915.13
16790
-1892.48
17017.5
-1881.03
17228.2
-1857.84
-1895
348.562
-1098.67
341.338
-771.033
400.849
-12.9229
528.151
-819.396
793.819
3089.65
969.683
3967.17
1103.84
2574.61
1136.63
858.767
1034.21
2572.47
1189.14
-391.773
1400.04
-2435.01
1689.11
-2998.02
1957.22
-2592.82
2025
-1642.79
2059.63
-867.016
2153.13
-424.761
2169.76
-414.584
2247.49
-491.733
2240.9
-690.92
2387.28
-1129.96
2387.6
-1160.57
2454.04
-751.399
2387.37
-520.593
2362.6
-533.147
2212.94
-329.825
2153.24
-119.559
1943.3
-271.767
2010.53
-515.642
1940.51
-559.561
2042.24
-656.834
2050.91
-854.541
2151.4
-1044.23
2200.47
-1284.53
2331.41
-1524.25
2443.08
-1764.5
2653.05
-1995.64
2835.81
-2182.71
3041.65
-2204.9
3183.76
-2301.08
3350.74
-2680.89
3553.02
-3177.98
3786.09
-3485.49
4017.51
-3572.82
4251.54
-3547.1
4507.48
-3484.32
4736.08
-3400.88
4849.37
-3296.74
5125.21
-3181.46
5190.13
-3028.46
5453.24
-2886.47
5463.37
-2757.12
5690.69
-2668.38
5670.34
-2596.38
5864.05
-2520.4
5872.88
-2431.8
6065.95
-2326.11
6073.29
-2227.59
6240.91
-2127.89
6275.87
-2055.2
6447.25
-1994.7
6498.64
-1979.05
6668.82
-1990.37
6765.76
-2054.22
6961.69
-2147.3
7104.26
-2289.43
7339.77
-2451.18
7529.39
-2630.24
7805.81
-2803.11
8026.9
-2952.66
8323.35
-3061.8
8564.47
-3127.61
8870.13
-3160.65
9125.45
-3179.26
9445.28
-3195.67
9730.73
-3221.69
10081.6
-3252.64
10401.4
-3282.79
10779.8
-3297.56
11123.6
-3290.7
11511.8
-3256.74
11854.7
-3198.58
12230.3
-3120.08
12558.4
-3028.18
12911.2
-2928.27
13215.9
-2826.2
13541.3
-2725.89
13823.5
-2631.21
14124.3
-2544.16
14386.3
-2466.61
14666.2
-2398.72
14913.5
-2340.42
15177.9
-2290.32
15413.7
-2246.95
15665.5
-2208.62
15892.6
-2174.15
16133.6
-2143.5
16351
-2115.73
16579.4
-2100.29
16789.9
-2071.22
-2104.32
348.639
-1607.66
275.253
-1232.01
301.8
-263.573
475.942
-1154.71
711.084
2562.97
935.837
3557.5
1089.04
2286.67
1111.03
479.647
1018.49
2530.83
1174.75
-585.103
1389.89
-2724.1
1675.28
-3297.64
1937.94
-2824.38
2012.88
-1785.11
2057.69
-944.054
2156.88
-480.236
2180.19
-458.156
2258.28
-505.601
2258.03
-732.266
2405.02
-1238.33
2406.7
-1257.58
2469.3
-791.536
2404.22
-544.223
2379.6
-544.776
2227.35
-309.678
2162.59
-79.4066
1956.81
-248.893
2019.49
-548.859
1951.59
-628.415
2052.77
-748.332
2060.16
-978.692
2149.31
-1181.69
2184.39
-1459.66
2304.67
-1758.25
2406.16
-2042.47
2610.54
-2307.54
2794
-2526.33
3002.72
-2523.73
3142.68
-2571.67
3308.11
-2961.89
3511.46
-3509.86
3745.65
-3847.71
3977.48
-3942.09
4212.86
-3916.49
4470.51
-3850.78
4700.03
-3758.06
4812.77
-3632.75
5087.33
-3494.03
5147.44
-3301.03
5403.88
-3125.52
5400.98
-2960.29
5614.52
-2847.82
5572.72
-2751.2
5745.17
-2655.62
5724.6
-2545.69
5889.26
-2420.26
5859.57
-2306.51
5992.92
-2193.75
5987.28
-2115.73
6122.46
-2051.57
6133.68
-2043.24
6270.08
-2065.35
6333.1
-2154.04
6500.37
-2269.31
6614.63
-2444.41
6826.78
-2634.81
6991.17
-2840.75
7246.08
-3034.63
7444.56
-3203.99
7725.27
-3326.38
7955.62
-3406.85
8260.95
-3452.68
8523.47
-3489.48
8858.92
-3523.6
9164.85
-3571.52
9540.13
-3622.13
9885.45
-3670.4
10289.1
-3696.58
10656
-3695.44
11064.8
-3659.55
11424.8
-3593.75
11814.5
-3503.18
12153.1
-3396.77
12514
-3280.89
12824.2
-3162.68
13153.5
-3046.54
13437.5
-2937.17
13739.2
-2836.67
14000.8
-2747.37
14280
-2669.31
14525.7
-2602.43
14788.7
-2545.08
15022.8
-2495.4
15273.1
-2451.33
15498.5
-2411.12
15737.6
-2374.77
15952.6
-2340.76
16178.3
-2320.29
16385.4
-2283.84
-2312.34
216.223
-1177.92
138.924
-782.757
202.737
120.904
472.999
-1069.3
696.589
2715.03
913.697
3631.19
1079.44
2579.06
1080.44
1024.55
995.91
2801.32
1156.35
-613.732
1375.66
-2920.14
1662.1
-3541.48
1928.99
-3056.35
2008.2
-1970.95
2054.16
-1082.45
2153.37
-575.29
2175.62
-537.221
2248.62
-611.46
2244.91
-843.389
2390.04
-1373.01
2379.57
-1356.44
2424.95
-833.208
2347.47
-570.079
2312.03
-576.824
2148.46
-343.404
2079.25
-136.897
1856.85
-290.439
1917.36
-583.949
1843.67
-672.47
1942.28
-776.391
1951.44
-1011.99
2053.15
-1227.14
2085.84
-1500.39
2203.78
-1827.3
2309.46
-2130.14
2522.91
-2404.71
2722.33
-2641.22
2952.07
-2616.86
3101.51
-2645.8
3273.34
-3077.79
3483.94
-3682.52
3724.01
-4046.42
3958.67
-4142.08
4195.61
-4114.3
4453.81
-4053.31
4684.01
-3966.78
4798.07
-3846.88
5074.8
-3703.96
5135.87
-3500.88
5391.95
-3309.17
5384.11
-3131.9
5591.59
-3010.69
5537.15
-2909.65
5696.08
-2805.89
5654.23
-2684.66
5796.81
-2544.88
5736.28
-2419.5
5839.46
-2294.9
5796.67
-2207.83
5897.32
-2137.92
5869.29
-2132.43
5971.14
-2162.4
5999.67
-2258.81
6136.3
-2384.97
6220.11
-2572.31
6404.86
-2780.17
6537.95
-3005.29
6765.17
-3220.68
6939.86
-3414.64
7210.19
-3565.96
7443.72
-3675.14
7766.01
-3749.74
8054.87
-3810.45
8420.95
-3867.07
8758.78
-3933.6
9163.61
-4001.62
9535.48
-4062.14
9960.83
-4095.7
10345.1
-4094.36
10766.3
-4052.94
11134.4
-3976.43
11528.3
-3871.95
11868
-3749.41
12227.6
-3616.86
12534.2
-3481.87
12858.6
-3349.79
13136.6
-3225.47
13431.6
-3111.66
13686
-3010.71
13958
-2922.98
14196.5
-2848.27
14452.9
-2784.65
14680.5
-2729.78
14925
-2680.93
15144.5
-2635.95
15377.9
-2594.4
15586.9
-2554.95
15806.8
-2529.94
16008.1
-2487.58
-2515.46
244.449
-1686.61
79.4491
-1120.29
143.054
-223.161
453.709
-1513.54
667.621
2224.85
886.672
3208.3
1061.09
2244.55
1063.33
622.978
981.624
2736.72
1140.44
-820.666
1363.44
-3214.94
1648.36
-3843.4
1912.4
-3289.61
1999.03
-2117.22
2054.6
-1165.19
2159.06
-636.14
2187.38
-581.379
2260.35
-621.433
2263.83
-885.463
2411.26
-1484.31
2402.54
-1442.16
2444.72
-855.27
2370.32
-585.004
2334.28
-578.372
2168.15
-308.529
2094.43
-86.1149
1879.97
-259.031
1940.4
-613.965
1869.54
-741.933
1970.21
-872.059
1974.25
-1142.33
2065.97
-1376.36
2087.04
-1673.53
2186.99
-2053.47
2281.61
-2421.18
2488.96
-2739.9
2690.79
-3026.83
2928.61
-2980.33
3081.6
-2940.03
3257.26
-3379.73
3471.84
-4035.48
3712.55
-4423.26
3945.09
-4519.31
4180.04
-4488.97
4437.37
-4425.24
4668.65
-4331.35
4786.35
-4195.39
5067.55
-4030.66
5134.79
-3784.35
5395.26
-3555.65
5390.27
-3334.58
5598.11
-3184.57
5539.89
-3048.54
5691.93
-2917.97
5636.84
-2763.27
5763.54
-2595.56
5679.67
-2444.25
5758.49
-2300.04
5684.37
-2199.17
5754.4
-2121.55
5691.21
-2121.05
5761.94
-2165.11
5759.17
-2292.35
5866.71
-2446.08
5918.45
-2668.4
6070.36
-2903.08
6165.4
-3151.97
6362.48
-3393.9
6521.23
-3629.61
6799.46
-3828.54
7060.44
-3986.27
7422.52
-4099.95
7754.59
-4190.73
8160.02
-4267.25
8531.09
-4349.47
8960.94
-4428.47
9351.11
-4495.92
9787.76
-4530.39
10178.1
-4524.11
10600.5
-4471.65
10965.9
-4378.79
11353.9
-4255.36
11685.3
-4112.3
12034.8
-3959.45
12330.1
-3804.75
12642.3
-3654.49
12907.4
-3513.71
13189.6
-3385.55
13430.9
-3272.43
13690.5
-3174.83
13917
-3092.25
14162.2
-3022.46
14379.2
-2962.27
14613.8
-2908.51
14823.7
-2858.22
15047.9
-2811.11
15248
-2765.68
15459.4
-2735.64
15652.7
-2686.87
-2714.79
88.1189
-1142.94
3.79834
-718.137
107.52
80.1323
459.196
-1353.24
665.007
2392.88
873.471
3324.59
1052.46
2568.04
1043.08
1187
961.478
3012.52
1121.04
-853.492
1348.16
-3417.04
1635.81
-4094.21
1905.82
-3528.68
1997.09
-2314.32
2053.59
-1315.77
2157.98
-739.34
2184.75
-663.987
2251.81
-732.866
2252.98
-1007.46
2400.33
-1629.22
2376.72
-1536.83
2398.39
-887.047
2311.37
-610.698
2265.23
-611.341
2087.38
-342.548
2007.21
-150.353
1773.18
-306.359
1832.5
-653.208
1755.84
-789.124
1850.21
-900.867
1846.99
-1170.4
1951.89
-1427.89
1994.87
-1725.61
2095.13
-2103.09
2178.76
-2486.1
2395.77
-2828.77
2617.25
-3142.13
2884.24
-3077.36
3051.35
-3008.14
3235.24
-3493.2
3455.48
-4204.39
3697.15
-4608.3
3926.47
-4697.16
4157.95
-4661.8
4413.34
-4605.42
4646.11
-4527.13
4769.93
-4404.56
5059.86
-4241.67
5137.52
-3988.37
5407.14
-3742.12
5409.3
-3506.34
5621.35
-3343.42
5562.8
-3197.82
5711.32
-3052.79
5647.07
-2878.92
5761.93
-2689.73
5660.19
-2519.95
5719.69
-2357.97
5620.41
-2241.35
5665.76
-2154.12
5574.15
-2155.37
5618.43
-2209.47
5588.58
-2342.67
5667.28
-2503.05
5684.32
-2729.53
5797.77
-2973.22
5852.1
-3240.69
6025.69
-3527.79
6190.17
-3834.74
6503.51
-4115.48
6818.39
-4339.19
7235.73
-4496.12
7617.17
-4605
8057.83
-4687.37
8453.32
-4768.09
8895.62
-4845.59
9291.54
-4909.29
9726.94
-4938.24
10112.8
-4921.6
10526.7
-4855.54
10881.7
-4745.71
11257
-4603.33
11574.5
-4440.4
11908.8
-4268.08
12188.2
-4094.73
12484.2
-3927.26
12732.8
-3770.86
12998.6
-3629.19
13223.7
-3504.82
13467.7
-3398.43
13679.1
-3309.38
13910.2
-3234.83
14113.5
-3170.97
14335.5
-3113.82
14533.1
-3060.08
14746.2
-3008.86
14935.4
-2959.07
15136.2
-2924.97
15319.2
-2871.6
-2904.89
58.2367
-1656.51
-33.1342
-1102.41
93.3403
-323.694
437.343
-1946.85
647.553
1896.66
857.468
2873.05
1037.55
2189.17
1034.45
736.321
948.204
2935.02
1103.35
-1069.67
1333.89
-3717.38
1621.79
-4399.1
1890.92
-3764.43
1990.03
-2463.27
2056.21
-1401.78
2165.81
-803.781
2198.09
-706.574
2264.73
-734.299
2274.88
-1050.45
2426.69
-1744.73
2404.92
-1603.5
2422.99
-880.183
2341.12
-612.371
2295.01
-597.809
2113.66
-283.606
2027.2
-78.2193
1803.57
-259.172
1865
-678.292
1793.78
-858.257
1891.97
-994.117
1880.25
-1289.53
1971.99
-1582.57
2007.57
-1923.4
2090.62
-2323.23
2156.89
-2767.61
2364.56
-3187.12
2586.14
-3578.62
2862.14
-3504.31
3033.15
-3337.78
3219.16
-3818.54
3438.1
-4572.54
3673.15
-4989.14
3894.54
-5073.45
4121.62
-5038.48
4377.26
-4986.42
4614.94
-4910.77
4747.93
-4776.6
5048.2
-4596
5138.27
-4298.7
5417.55
-4012.15
5428.46
-3725.18
5644.79
-3526.46
5587.52
-3335.95
5732.88
-3155.81
5661.59
-2938.57
5766.6
-2714.32
5651.21
-2511.19
5695.62
-2323.6
5576.76
-2185.53
5602.26
-2086.11
5488.39
-2090.57
5512.18
-2160.09
5460.33
-2324.97
5511.98
-2508.2
5491.92
-2757.38
5563.68
-3015.83
5582.6
-3315.02
5752.86
-3675.42
5954.7
-4092.05
6331.15
-4477.84
6715.72
-4771.42
7189.37
-4959.83
7610.95
-5072.61
8072.25
-5145.84
8476.13
-5216.03
8915.94
-5285.29
9304.84
-5342.1
9729.01
-5363.27
10102.7
-5335.66
10502.9
-5254.66
10843.7
-5124.87
11203.9
-4960.97
11505.8
-4775.11
11824
-4580.98
12086.8
-4386.54
12366
-4200.17
12597.4
-4026.73
12846.1
-3870.76
13054.1
-3734.56
13281.5
-3619.24
13476.6
-3523.36
13692.1
-3443.97
13880.4
-3376.11
14088.5
-3315.65
14273
-3257.99
14473.7
-3202.37
14650.2
-3146.94
14838.2
-3107.42
15008.3
-3048.27
-3087.73
-66.0423
-1124.17
-80.6471
-804.992
148.091
-166.035
440.856
-1360.51
650.02
2101.31
854.278
3020.83
1031.63
2546.42
1023.18
1303.89
929.348
3224.46
1082.67
-1102.32
1317.65
-3926.07
1609.79
-4660
1886.32
-4013.19
1990.62
-2672.44
2057.89
-1564.13
2167.27
-913.542
2197.29
-790.089
2257.48
-848.864
2266.88
-1185.37
2418.74
-1900.6
2379.63
-1690.99
2374.72
-898.097
2279.64
-637.904
2222.85
-630.77
2029.12
-314.563
1934.01
-144.633
1685.17
-310.075
1744.03
-720.904
1666.05
-911.04
1754.83
-1024.29
1729.14
-1305.66
1833.03
-1639.32
1897.97
-2001.81
2010.09
-2385.61
2068.49
-2812.78
2264.02
-3256.85
2503.48
-3701.13
2812.81
-3620.18
2997.96
-3408.05
3188.07
-3932.6
3406
-4734.64
3635.51
-5155.42
3851.03
-5229.43
4076.87
-5194.21
4335.74
-5159.55
4580.91
-5108.56
4724.83
-4996.17
5037.8
-4818.52
5140.6
-4515.44
5430.32
-4207.65
5448.41
-3901.43
5668.09
-3682.78
5609.25
-3477.64
5750.74
-3276.87
5671.61
-3035.87
5768.03
-2785.83
5640.68
-2562.39
5673.09
-2353.72
5538.71
-2196.94
5550.22
-2086.44
5420.91
-2093.98
5428.96
-2174.04
5357.96
-2335.38
5381.4
-2507.48
5321.1
-2740.91
5351.86
-3002.53
5351.41
-3354.32
5547.44
-3838.74
5817.29
-4406.26
6270.53
-4911.28
6722
-5261.7
7236.38
-5457.39
7678.89
-5546.49
8141.13
-5589.32
8536.93
-5632.3
8960.9
-5683.84
9333.39
-5728.44
9739.79
-5740.28
10097.9
-5701.49
10482.8
-5606.76
10809.4
-5460.14
11155.4
-5276.85
11443.3
-5070.8
11747.3
-4856.61
11995.8
-4643.06
12260.2
-4438.84
12476.6
-4249.36
12710.1
-4079.57
12902.7
-3932.18
13114.9
-3808.37
13294.6
-3706.72
13495.5
-3623.63
13669.6
-3553.75
13864.7
-3491.77
14036.4
-3432.27
14224.6
-3373.22
14387.6
-3312.89
14561.6
-3268.5
14718.6
-3206.03
-3258.26
-97.407
-1646.61
-103.927
-1236.91
119.501
-685.482
255.173
-2011.46
638.417
1408.85
847.179
2543.75
1019.56
2146.75
1020.49
820.139
915.883
3154.8
1063.09
-1318.8
1301.79
-4231.28
1595.92
-4972.15
1873.45
-4256.42
1986.02
-2829.19
2062.84
-1657.41
2176.77
-982.257
2211.25
-831.011
2271.02
-845.375
2290.8
-1235.88
2446.76
-2022.21
2408.27
-1739.51
2400.11
-865.006
2311.09
-630.571
2253.9
-605.675
2057.57
-237.475
1957.15
-56.8402
1722.15
-251.798
1784.94
-743.185
1712.97
-981.996
1807.12
-1116
1794.27
-1431.33
1890.02
-1805.49
1931.66
-2216.21
2015.59
-2612.93
2048.78
-3072.87
2229.89
-3611.65
2465.66
-4183.57
2781.85
-4105.47
2968.28
-3763.47
3155.84
-4269.29
3366.3
-5103.26
3585.38
-5526.77
3795.18
-5600.2
4023.63
-5576.59
4290.94
-5557.72
4547.22
-5516.54
4703.41
-5400.84
5027.56
-5205.75
5141.67
-4855.3
5439.1
-4500.92
5462.42
-4134.24
5682.96
-3870.15
5621.46
-3611.38
5757.92
-3368.13
5671.19
-3078.27
5759.82
-2789.37
5622.56
-2530.47
5645.34
-2292.7
5498.71
-2110.72
5499.07
-1985.78
5358.42
-1999.23
5355.74
-2094.85
5269.1
-2280.52
5264.26
-2455.89
5161.97
-2690.32
5159.72
-2972.26
5167
-3417.01
5420.6
-4072.15
5775.35
-4811.15
6299.48
-5422.51
6797.65
-5802.56
7328.54
-5979.73
7769.2
-6029.95
8214.4
-6033.74
8588.52
-6049.38
8987.74
-6085.69
9338.17
-6122.98
9724.34
-6130.09
10066.2
-6084.77
10437
-5978.98
10751.6
-5814.64
11086.2
-5611.04
11363.3
-5382.34
11656.6
-5146.31
11894.2
-4911.06
12147.3
-4687.29
12352
-4479.92
12573.4
-4295.23
12753.3
-4135.39
12952.6
-4002.39
13119.3
-3894.01
13307.7
-3806.97
13469.9
-3734.3
13653.6
-3670.2
13813.5
-3606.79
13989.5
-3542.5
14139.1
-3474.65
14300.2
-3424.48
14444.7
-3357.7
-3421.83
-174.5
-1166.27
-131.77
-1020.75
104.27
-580.631
155.484
-1405.79
646.798
1391.77
851.77
2725.59
1015.1
2551.62
1016.15
1396.4
897.084
3474.54
1041.07
-1344.87
1284.96
-4446.26
1584.83
-5246.09
1871.07
-4518.56
1989.4
-3053.56
2067.26
-1833.28
2180.26
-1098.34
2211.92
-915.644
2265.42
-965.09
2284.86
-1387.53
2438.37
-2188.22
2378.57
-1818.47
2347.71
-873.125
2247.2
-662.148
2178.35
-642.324
1969.27
-271.906
1859.94
-132.963
1597.29
-313.141
1657.33
-794.075
1577.91
-1042.47
1659.33
-1148.85
1624.56
-1451.63
1723.57
-1865.22
1794.22
-2303.71
1923.38
-2685.79
1972.03
-3106.72
2132.98
-3646.09
2366.05
-4285.1
2715.14
-4229.74
2917.05
-3822.9
3105.5
-4369.61
3310.77
-5243.47
3523.88
-5664.31
3734.22
-5735.31
3971.48
-5723.75
4250.94
-5731.08
4519.17
-5722.7
4687.33
-5630.68
5022.97
-5438.9
5146.9
-5080.57
5452.03
-4699.11
5477.91
-4306.61
5698.53
-4014.87
5631.09