/*--------------------------------*- C++ -*----------------------------------*\
| =========                 |                                                 |
| \\      /  F ield         | OpenFOAM: The Open Source CFD Toolbox           |
|  \\    /   O peration     | Version:  4.1                                   |
|   \\  /    A nd           | Web:      www.OpenFOAM.org                      |
|    \\/     M anipulation  |                                                 |
\*---------------------------------------------------------------------------*/
FoamFile
{
    version     2.0;
    format      ascii;
    class       volVectorField;
    location    "28";
    object      U;
}
// * * * * * * * * * * * * * * * * * * * * * * * * * * * * * * * * * * * * * //

dimensions      [0 1 -1 0 0 0 0];

internalField   nonuniform List<vector> 
26785
(
(-1.29144e-13 0.0860002 -0.919293)
(-1.5701e-13 0.0941328 0.124365)
(-2.50369e-13 0.18768 0.889638)
(-3.39219e-13 0.40931 2.87411)
(7.1655e-14 2.7426 4.72261)
(-2.10232e-13 1.64556 6.6752)
(-6.55378e-14 0.182863 6.8428)
(-1.46749e-13 0.200231 7.33039)
(-1.52395e-13 0.20949 7.31915)
(-1.71651e-13 0.144091 6.94059)
(-9.74306e-14 -0.00820065 8.1409)
(-6.71214e-14 -0.0557394 9.83286)
(-4.61294e-14 -0.0638896 11.6159)
(-3.53593e-14 -0.0426389 12.2926)
(-2.94921e-14 -0.0127305 12.2896)
(-2.5116e-14 0.0118613 12.1706)
(-1.68646e-14 0.0138601 12.0136)
(-9.06088e-15 0.017521 11.8193)
(-3.51347e-15 0.00778214 11.6963)
(-7.43857e-14 -0.00511342 11.6878)
(-9.89366e-15 -0.0151409 11.9013)
(3.79654e-15 -0.00213299 11.9889)
(-6.82243e-14 0.00247003 12.0485)
(3.23432e-15 0.00598329 11.8867)
(-6.13147e-14 0.0200794 11.5334)
(-1.83595e-14 0.0319287 11.0619)
(-1.82527e-15 0.0227215 10.3585)
(1.21766e-14 0.0223713 9.92439)
(-5.49972e-14 0.0141766 9.72326)
(-6.23787e-14 -8.23182e-07 9.60624)
(-3.56128e-14 -0.0120209 9.81864)
(6.83756e-14 -0.0165316 10.0534)
(-4.1417e-14 -0.0245452 10.288)
(3.19397e-14 -0.0335268 10.5418)
(-9.28582e-14 -0.0467023 10.8096)
(-2.52088e-14 -0.0582288 11.2483)
(-5.0776e-15 -0.0688649 11.7642)
(-2.85132e-15 -0.0776626 12.361)
(1.12961e-16 -0.0900488 13.0253)
(-4.43659e-15 -0.107024 13.7932)
(9.56962e-14 -0.124708 14.672)
(1.84166e-14 -0.135471 15.6279)
(2.7892e-14 -0.138173 16.6052)
(-7.75544e-14 -0.135039 17.5359)
(1.70762e-15 -0.12849 18.427)
(-7.94487e-14 -0.119342 19.2787)
(-6.19437e-15 -0.109626 19.8511)
(2.17918e-15 -0.101503 20.41)
(5.43426e-16 -0.0913073 20.8743)
(-5.68473e-15 -0.0836153 21.3376)
(7.7547e-14 -0.0735928 21.6859)
(1.91185e-14 -0.0668963 22.0051)
(1.08065e-14 -0.0582183 22.2374)
(9.59377e-15 -0.0523645 22.4264)
(8.75531e-15 -0.0446734 22.6037)
(1.50667e-14 -0.0390847 22.7821)
(-5.73774e-14 -0.0321811 22.9279)
(-7.87565e-15 -0.0278133 23.0408)
(1.57934e-15 -0.0233688 23.1533)
(-6.60138e-14 -0.0212197 23.2673)
(-1.19739e-14 -0.0195423 23.3742)
(-6.72774e-15 -0.0205542 23.4748)
(-3.4994e-15 -0.0230016 23.5994)
(-6.76175e-14 -0.0276609 23.7527)
(-2.27077e-14 -0.0334929 23.9412)
(-1.5844e-14 -0.0405118 24.1668)
(-1.57751e-14 -0.0472805 24.4324)
(-1.5465e-14 -0.0545205 24.7421)
(-1.61979e-14 -0.0599643 25.0787)
(-1.55375e-14 -0.0651442 25.4405)
(-6.1599e-14 -0.0678426 25.8187)
(-1.84874e-14 -0.0702024 26.2109)
(-2.03881e-14 -0.0706897 26.6025)
(-2.02405e-14 -0.0713798 26.9927)
(-2.04067e-14 -0.0709304 27.3786)
(-4.81858e-16 -0.0708789 27.7623)
(-1.95939e-14 -0.0697462 28.1361)
(-1.79774e-14 -0.0687618 28.501)
(-1.78314e-14 -0.0665296 28.8528)
(-1.85191e-14 -0.0642414 29.1906)
(-1.85788e-14 -0.0607907 29.5073)
(-2.39677e-15 -0.0574988 29.8024)
(-2.07279e-14 -0.0534511 30.0748)
(-1.88177e-14 -0.04983 30.3246)
(-3.67206e-14 -0.04585 30.5512)
(-2.38668e-14 -0.0425253 30.7556)
(-2.55506e-14 -0.0391159 30.9414)
(-2.64857e-14 -0.0364388 31.1094)
(-3.55859e-14 -0.0337945 31.2625)
(-1.8772e-14 -0.0318663 31.4012)
(-2.40619e-14 -0.0299717 31.5301)
(-2.35972e-14 -0.0287008 31.6487)
(-2.36106e-14 -0.0274218 31.7603)
(-2.37829e-14 -0.0266935 31.8646)
(-2.37476e-14 -0.0259537 31.9648)
(-2.05068e-14 -0.0257238 32.0621)
(-2.43079e-14 -0.0257144 32.1538)
(-2.43422e-14 -0.0260573 32.2551)
(-2.43459e-14 -0.0279015 32.3249)
(-2.43113e-14 -0.0314143 32.5105)
(-2.96502e-13 0.0161347 -0.648538)
(-2.97912e-13 -0.0629209 3.12971)
(-2.4525e-13 -0.0238941 4.15042)
(-4.79105e-13 0.0107104 8.00314)
(1.6623e-12 -1.07457 14.7637)
(-7.83887e-13 -0.468072 11.7608)
(9.4096e-14 0.388126 9.40206)
(1.25156e-13 -0.0504967 8.69751)
(1.97192e-13 0.258718 7.26416)
(-8.62251e-14 -0.0351259 5.85044)
(-1.99268e-14 -0.291218 7.66503)
(-1.07077e-14 -0.348797 9.3754)
(1.6745e-15 -0.275773 11.329)
(2.29115e-14 -0.139358 11.9568)
(-1.07645e-13 -0.0342686 11.7381)
(-2.49666e-14 0.0415122 11.4272)
(2.31323e-14 0.0371634 11.2062)
(2.55984e-14 0.0359046 10.9425)
(1.17453e-14 0.0044517 10.8236)
(3.00963e-14 -0.0393605 10.8332)
(-1.16639e-14 -0.0655778 11.0953)
(-2.4269e-14 -0.0261539 11.1818)
(-1.27726e-14 -0.0108941 11.2719)
(1.56333e-14 -0.00893667 11.0846)
(4.55758e-14 0.0287406 10.7393)
(-1.05761e-14 0.0640902 10.2824)
(-2.65634e-14 0.044178 9.49522)
(4.38533e-15 0.0429091 9.07061)
(7.21417e-15 0.0258835 8.95646)
(-6.5718e-14 -0.0153053 8.84592)
(1.11869e-13 -0.0515088 9.10821)
(-1.46496e-14 -0.0656236 9.47762)
(-8.07641e-15 -0.0838872 9.82338)
(1.9597e-14 -0.107216 10.1879)
(-3.11877e-14 -0.141366 10.5482)
(-4.77432e-14 -0.172279 11.0804)
(-1.01416e-14 -0.199974 11.673)
(-6.28592e-15 -0.222873 12.3343)
(-3.77156e-15 -0.257456 13.0385)
(-2.27997e-15 -0.307077 13.8236)
(-5.44137e-15 -0.357899 14.7038)
(1.07347e-13 -0.387521 15.6542)
(1.23951e-14 -0.393111 16.6238)
(1.02046e-13 -0.382837 17.5477)
(3.16857e-14 -0.364184 18.4357)
(2.76861e-14 -0.33982 19.2903)
(-6.80552e-14 -0.314398 19.8768)
(4.09961e-15 -0.293625 20.4559)
(-7.67921e-14 -0.267536 20.9498)
(7.33934e-14 -0.247474 21.4454)
(-6.09684e-14 -0.222039 21.836)
(-6.84714e-15 -0.204661 22.2011)
(6.52598e-15 -0.182907 22.4899)
(-7.4686e-14 -0.167426 22.7397)
(-5.86983e-14 -0.147452 22.9843)
(1.56295e-14 -0.131731 23.2306)
(-6.20683e-14 -0.112968 23.4479)
(-1.73363e-14 -0.0998506 23.6315)
(5.65178e-14 -0.0869152 23.8148)
(9.73866e-15 -0.0793757 23.9963)
(9.11511e-15 -0.0737222 24.1694)
(-5.30775e-14 -0.0745645 24.3321)
(-1.17878e-14 -0.0794897 24.5152)
(4.65015e-14 -0.0902839 24.7215)
(4.56834e-15 -0.104643 24.9592)
(6.16006e-15 -0.122664 25.2294)
(5.10159e-15 -0.141118 25.5361)
(3.51602e-15 -0.160641 25.8826)
(-4.23087e-14 -0.176491 26.2535)
(4.81876e-15 -0.190735 26.6462)
(9.30494e-15 -0.199067 27.0528)
(-2.68498e-15 -0.205336 27.4697)
(-5.46485e-15 -0.206983 27.8836)
(-2.18706e-15 -0.208228 28.2927)
(2.39344e-14 -0.206827 28.6949)
(-3.33117e-16 -0.205762 29.0916)
(-3.49279e-15 -0.202249 29.4764)
(1.12656e-15 -0.198403 29.8496)
(-1.70534e-14 -0.191568 30.2079)
(5.18009e-16 -0.183887 30.55)
(1.38381e-15 -0.173496 30.8696)
(1.8371e-14 -0.162885 31.1659)
(5.25814e-15 -0.150658 31.4382)
(-1.8564e-15 -0.139063 31.6866)
(-3.64792e-15 -0.126938 31.9106)
(1.58852e-14 -0.116164 32.1112)
(-6.72347e-15 -0.105612 32.2919)
(3.72596e-17 -0.096708 32.4535)
(9.98785e-15 -0.0883501 32.599)
(3.00221e-15 -0.0816345 32.729)
(1.06878e-15 -0.075459 32.8478)
(1.53019e-15 -0.0706925 32.9553)
(1.65431e-16 -0.0663287 33.0544)
(-4.40748e-15 -0.0631693 33.145)
(4.1751e-15 -0.0603989 33.2304)
(9.21238e-16 -0.058763 33.3114)
(2.15115e-15 -0.0580486 33.386)
(3.05052e-15 -0.0586006 33.4666)
(1.99221e-15 -0.0619813 33.5216)
(2.06302e-15 -0.072449 33.6659)
(-1.59583e-13 -0.203481 -0.816333)
(-2.34884e-13 -0.321407 2.91551)
(-2.22979e-13 -0.207019 4.17134)
(-1.33611e-13 0.0820802 7.00188)
(2.56265e-13 2.62736 11.6368)
(-4.81922e-13 0.855337 10.1225)
(3.31208e-13 0.788912 8.3911)
(8.05747e-14 0.222573 8.46091)
(1.70809e-14 0.698471 7.56601)
(-2.93286e-15 0.101069 6.70855)
(-1.31481e-14 -0.421084 7.93573)
(-7.27898e-15 -0.538425 9.4442)
(3.8535e-15 -0.443672 11.1328)
(1.89828e-14 -0.224911 11.6841)
(2.41545e-14 -0.0500867 11.5243)
(-9.80406e-14 0.0675248 11.2848)
(1.55088e-14 0.0652659 11.1281)
(-6.39688e-14 0.0582542 10.9271)
(1.00567e-13 0.010298 10.8434)
(1.53508e-14 -0.0674207 10.8932)
(-1.49238e-14 -0.101742 11.1395)
(5.89753e-14 -0.0387221 11.2212)
(7.10328e-14 -0.0058726 11.2929)
(-3.82571e-14 -0.00305745 11.0639)
(2.84022e-14 0.0605659 10.6798)
(-4.02351e-14 0.12405 10.234)
(-7.05538e-14 0.0930765 9.43227)
(-1.31316e-15 0.0728087 9.07002)
(9.05317e-15 0.0520094 9.04375)
(6.002e-15 -0.0117609 8.92266)
(1.71274e-14 -0.07329 9.17318)
(1.49541e-13 -0.100205 9.54265)
(8.46268e-14 -0.127945 9.86402)
(-1.31472e-13 -0.167399 10.1876)
(2.24005e-14 -0.223686 10.4932)
(1.02495e-14 -0.276436 10.9572)
(1.15672e-14 -0.322167 11.473)
(1.25553e-14 -0.358957 12.0443)
(1.51775e-14 -0.413738 12.6456)
(1.3905e-14 -0.495315 13.3209)
(1.13819e-14 -0.580846 14.096)
(1.16552e-14 -0.632558 14.9538)
(1.13439e-14 -0.645135 15.8447)
(4.56122e-15 -0.631603 16.7054)
(-1.01903e-15 -0.604363 17.5463)
(-5.53145e-15 -0.568412 18.3692)
(-5.19238e-15 -0.529317 18.9391)
(-3.52453e-15 -0.49706 19.5123)
(-3.52915e-15 -0.457112 20.0123)
(-7.03471e-15 -0.425454 20.5191)
(-8.83362e-15 -0.386873 20.9309)
(-1.03249e-14 -0.359793 21.3224)
(-1.23049e-14 -0.327379 21.6482)
(-1.37913e-14 -0.302819 21.9405)
(-1.32519e-14 -0.272073 22.2346)
(-7.18007e-14 -0.246308 22.5324)
(-1.92712e-14 -0.21677 22.8053)
(4.75519e-14 -0.194537 23.0448)
(-5.95057e-15 -0.173595 23.2852)
(5.1886e-14 -0.160113 23.5222)
(2.97676e-15 -0.150618 23.7504)
(-9.39895e-16 -0.150455 23.966)
(1.53941e-15 -0.157807 24.1999)
(4.25873e-15 -0.173907 24.4533)
(-4.44871e-14 -0.196665 24.735)
(-7.13744e-15 -0.224647 25.0443)
(-3.90636e-14 -0.2541 25.3863)
(1.07828e-14 -0.284592 25.7627)
(6.41263e-15 -0.309909 26.1595)
(6.17699e-15 -0.331645 26.573)
(4.96331e-15 -0.344518 26.9968)
(7.7519e-15 -0.353084 27.4263)
(3.94259e-14 -0.354986 27.8497)
(1.85856e-14 -0.35538 28.265)
(4.28651e-15 -0.352387 28.6713)
(3.61974e-15 -0.349229 29.0701)
(2.6582e-15 -0.34296 29.456)
(1.88184e-15 -0.335419 29.8296)
(1.33107e-15 -0.323771 30.1881)
(1.07598e-15 -0.31006 30.5302)
(8.31752e-16 -0.292595 30.85)
(-3.15958e-15 -0.274122 31.1466)
(-2.98484e-14 -0.253617 31.4195)
(5.46282e-15 -0.233595 31.6684)
(9.19443e-16 -0.213255 31.8933)
(9.01935e-18 -0.194635 32.0947)
(-7.54558e-16 -0.17687 32.2762)
(-1.45092e-15 -0.16139 32.4386)
(-1.39632e-15 -0.147246 32.5847)
(-9.07406e-15 -0.13542 32.7151)
(-1.97881e-15 -0.124871 32.8341)
(-2.20557e-15 -0.116294 32.9413)
(-1.29433e-14 -0.108714 33.0399)
(-5.36569e-15 -0.102769 33.1296)
(-3.42665e-15 -0.0977352 33.2135)
(-4.79634e-15 -0.0942649 33.2923)
(-3.4608e-15 -0.0923084 33.364)
(-2.5931e-15 -0.0928276 33.4389)
(-3.52656e-15 -0.09513 33.492)
(-3.61922e-15 -0.112312 33.6171)
(-7.4939e-15 -0.223869 -0.337981)
(5.1428e-14 -0.349696 2.67018)
(-4.94705e-14 -0.219322 4.13548)
(-1.04727e-13 -0.167337 6.27971)
(-6.38962e-14 0.643156 23.2446)
(7.31736e-14 1.38721 9.51461)
(2.69203e-14 1.23363 8.22545)
(-1.43964e-13 0.289992 8.35497)
(-7.81928e-14 0.978422 7.64487)
(-2.5676e-14 0.103372 6.97397)
(-3.18118e-14 -0.571897 7.96175)
(-1.03156e-14 -0.733364 9.36918)
(-5.76347e-16 -0.603756 10.9308)
(3.21679e-14 -0.297571 11.4646)
(2.21798e-14 -0.0558305 11.3277)
(1.62435e-14 0.0977496 11.1286)
(2.51527e-14 0.0942077 11.0091)
(6.63834e-14 0.0788315 10.8477)
(3.38897e-14 0.014751 10.7769)
(2.58964e-14 -0.0957696 10.8475)
(3.68171e-14 -0.135971 11.0769)
(1.28538e-13 -0.0457338 11.1169)
(8.3655e-14 0.00583255 11.1413)
(6.84218e-14 0.00469721 10.8565)
(6.12032e-14 0.0866484 10.4278)
(5.76532e-14 0.17116 10.0041)
(5.24147e-14 0.122095 9.18438)
(4.74849e-14 0.077545 8.85621)
(4.38043e-14 0.0573098 8.90623)
(5.19166e-14 -0.0204245 8.77555)
(1.43865e-13 -0.10829 8.94096)
(5.5421e-14 -0.150008 9.23924)
(8.7806e-14 -0.183494 9.505)
(8.76039e-14 -0.232698 9.77046)
(2.05458e-14 -0.306919 10.0023)
(1.54128e-13 -0.376838 10.4007)
(-7.03585e-14 -0.437769 10.8456)
(1.71975e-14 -0.484493 11.3528)
(1.39243e-13 -0.55774 11.8839)
(-7.70635e-14 -0.672438 12.488)
(1.05628e-14 -0.795802 13.1982)
(1.16637e-13 -0.872107 14.0034)
(1.85848e-14 -0.893016 14.8511)
(-8.97413e-14 -0.877524 15.6745)
(-2.05253e-14 -0.843422 16.4846)
(-3.19861e-14 -0.797839 17.2829)
(5.53239e-14 -0.747971 17.8303)
(7.25082e-14 -0.705427 18.3895)
(-4.47245e-15 -0.653911 18.8794)
(-1.01009e-13 -0.611458 19.3804)
(-3.7378e-14 -0.562361 19.7895)
(-9.59162e-14 -0.526752 20.1838)
(6.85394e-14 -0.486574 20.5183)
(1.36206e-14 -0.454005 20.8254)
(-3.30468e-14 -0.414554 21.1397)
(-3.9487e-14 -0.379093 21.4615)
(-2.44787e-14 -0.340052 21.7605)
(-5.17859e-14 -0.308479 22.0271)
(-1.54956e-14 -0.279965 22.2955)
(3.0659e-14 -0.259918 22.5604)
(-2.00784e-14 -0.246616 22.8164)
(4.3814e-14 -0.244584 23.0589)
(-1.99443e-15 -0.253729 23.3191)
(-8.06628e-15 -0.273952 23.5974)
(-1.21959e-14 -0.304178 23.9026)
(3.43777e-14 -0.340914 24.2339)
(2.68557e-14 -0.380492 24.5957)
(-8.56211e-14 -0.420768 24.9897)
(-8.45857e-16 -0.45469 25.4015)
(-1.26892e-14 -0.482719 25.8274)
(5.78122e-14 -0.49919 26.2608)
(-3.16881e-14 -0.508915 26.697)
(-1.56064e-14 -0.510257 27.1248)
(-1.5967e-14 -0.509004 27.5423)
(-3.98478e-14 -0.504022 27.9498)
(-6.00728e-15 -0.498485 28.3492)
(-2.91495e-14 -0.489509 28.7362)
(-1.04882e-14 -0.478337 29.1116)
(-2.87681e-14 -0.462116 29.4728)
(-2.82306e-14 -0.442553 29.8189)
(-2.88607e-14 -0.418302 30.1436)
(-3.00638e-14 -0.392155 30.4459)
(-3.01626e-14 -0.363614 30.7254)
(-1.48509e-14 -0.335316 30.9816)
(-3.19728e-14 -0.306931 31.2143)
(-3.35338e-14 -0.280544 31.4239)
(-1.2796e-14 -0.255636 31.6141)
(-3.53208e-14 -0.233585 31.7853)
(-3.24578e-14 -0.213641 31.9404)
(-4.15862e-14 -0.196645 32.08)
(-2.48461e-14 -0.18164 32.2081)
(-2.57657e-14 -0.169136 32.3245)
(-4.64164e-14 -0.158175 32.4322)
(-3.05853e-14 -0.149232 32.5308)
(-3.14429e-14 -0.141627 32.6234)
(-2.75431e-14 -0.135966 32.7103)
(-3.08595e-14 -0.132217 32.7898)
(-2.65582e-14 -0.132151 32.8703)
(-2.93782e-14 -0.131973 32.9304)
(-2.8632e-14 -0.154438 33.0562)
(6.30964e-14 -0.419821 -0.202403)
(6.08456e-14 -0.498889 2.60451)
(1.75203e-15 -0.244165 3.87997)
(-1.24637e-13 -0.230011 4.96683)
(8.71703e-14 2.64942 15.2602)
(2.56758e-13 2.32541 8.45204)
(1.8478e-13 1.49809 7.8301)
(-6.17922e-14 0.459503 8.20514)
(2.84865e-15 1.23244 7.65525)
(-5.05794e-14 0.128431 7.10271)
(-4.26535e-14 -0.699148 7.95132)
(9.70798e-14 -0.907018 9.30469)
(1.88981e-14 -0.752538 10.739)
(4.22981e-14 -0.381391 11.2411)
(6.03168e-14 -0.0786639 11.1507)
(-3.44974e-14 0.108714 11.0186)
(4.74616e-14 0.107731 10.9607)
(5.64377e-14 0.0872651 10.8569)
(5.82972e-14 0.00981954 10.8143)
(6.20766e-14 -0.130701 10.9139)
(7.28887e-14 -0.172148 11.1203)
(9.40677e-14 -0.0532861 11.1449)
(9.59301e-14 0.0200772 11.1464)
(8.98009e-14 0.01876 10.8414)
(8.92472e-14 0.119649 10.3661)
(1.01222e-13 0.228724 9.98391)
(1.49855e-13 0.16164 9.16856)
(5.88956e-14 0.0895483 8.86034)
(9.65815e-14 0.072885 8.9282)
(6.69448e-14 -0.00582877 8.78417)
(6.75287e-14 -0.116523 8.78847)
(6.52363e-14 -0.173615 9.01906)
(3.47648e-14 -0.214306 9.22576)
(8.80794e-14 -0.276285 9.44044)
(4.44525e-15 -0.372049 9.62008)
(7.36009e-14 -0.463217 9.98054)
(4.46386e-14 -0.541895 10.3954)
(4.08552e-14 -0.598776 10.8782)
(3.43545e-14 -0.688961 11.3773)
(2.85043e-14 -0.836883 11.94)
(1.53571e-14 -0.999232 12.6035)
(3.48272e-15 -1.10098 13.3606)
(5.62278e-14 -1.1314 14.1559)
(-4.47733e-14 -1.11545 14.9237)
(-4.02117e-14 -1.07617 15.6795)
(-4.39588e-14 -1.0225 16.4273)
(-4.64787e-14 -0.964169 16.9238)
(-4.70013e-14 -0.912525 17.4393)
(-4.0476e-14 -0.850437 17.8896)
(-1.23578e-13 -0.798176 18.3564)
(-6.15375e-14 -0.740044 18.735)
(-1.59504e-13 -0.697388 19.1058)
(-2.71554e-14 -0.651236 19.4238)
(-3.11703e-14 -0.611889 19.7215)
(-3.22323e-14 -0.564944 20.0327)
(3.81926e-14 -0.5204 20.3561)
(-1.74583e-14 -0.472628 20.6594)
(-2.73217e-14 -0.431957 20.9318)
(-1.19878e-13 -0.396343 21.2073)
(-7.98633e-15 -0.369854 21.4801)
(1.71174e-14 -0.353133 21.7439)
(2.53773e-14 -0.349356 21.9943)
(-1.5353e-14 -0.360791 22.2625)
(-2.4109e-14 -0.385284 22.5486)
(-1.47638e-14 -0.423367 22.8615)
(-3.30157e-14 -0.468864 23.2004)
(-4.6464e-14 -0.518546 23.569)
(-2.46195e-14 -0.568382 23.9694)
(-1.71437e-14 -0.610651 24.3866)
(-4.06804e-14 -0.644377 24.8167)
(-4.17542e-14 -0.663881 25.2527)
(-3.16391e-14 -0.673937 25.6897)
(1.13679e-15 -0.674281 26.1165)
(-6.11114e-14 -0.670896 26.532)
(-5.73705e-14 -0.664022 26.9372)
(-5.66585e-14 -0.656198 27.3353)
(-5.8381e-14 -0.645056 27.7226)
(-2.27852e-14 -0.630634 28.1004)
(-4.10733e-14 -0.610464 28.4664)
(-1.54899e-14 -0.585406 28.8193)
(-3.50317e-14 -0.554832 29.1525)
(-5.14484e-14 -0.521219 29.4648)
(-3.1696e-14 -0.48494 29.7555)
(-5.30872e-14 -0.448454 30.0238)
(-5.42849e-14 -0.412194 30.2693)
(-4.02787e-14 -0.378036 30.4923)
(-3.98234e-14 -0.34606 30.6961)
(-3.91666e-14 -0.317372 30.8811)
(-3.80326e-14 -0.291643 31.0502)
(-2.54562e-14 -0.269379 31.2037)
(-4.16735e-14 -0.249894 31.3458)
(-3.8524e-14 -0.233334 31.4761)
(-3.18632e-14 -0.218916 31.5977)
(-4.0316e-14 -0.206774 31.71)
(-3.91249e-14 -0.196409 31.816)
(-4.02036e-14 -0.18821 31.9158)
(-4.39426e-14 -0.182257 32.0076)
(-3.83854e-14 -0.180995 32.099)
(-3.94495e-14 -0.177723 32.1694)
(-3.71722e-14 -0.203496 32.3055)
(7.51329e-14 -0.460477 -0.408559)
(8.01924e-14 -0.495562 2.42313)
(1.38013e-13 -0.28305 3.65792)
(1.4372e-13 -0.475233 4.44145)
(1.90775e-13 2.13172 12.6639)
(-5.77059e-14 2.8008 7.56638)
(-1.24247e-14 1.63369 7.60102)
(1.027e-13 0.37072 7.9831)
(6.90428e-14 1.42383 7.54241)
(1.59462e-14 0.11518 7.07472)
(-5.47451e-14 -0.833428 7.8809)
(1.03725e-13 -1.08031 9.21146)
(3.87174e-14 -0.894081 10.5951)
(4.97346e-14 -0.450707 11.1013)
(6.52346e-14 -0.0903994 11.0244)
(5.19399e-14 0.125986 10.9224)
(5.40701e-14 0.124371 10.8904)
(4.22915e-14 0.0970559 10.8072)
(4.04119e-14 0.00703335 10.756)
(6.22731e-14 -0.164078 10.8559)
(1.08591e-13 -0.206385 11.0337)
(9.71961e-14 -0.056532 11.0007)
(1.51396e-13 0.0358378 10.9581)
(1.8103e-13 0.0266836 10.6288)
(2.65208e-14 0.137097 10.0859)
(8.14407e-14 0.26211 9.75536)
(8.96785e-14 0.178224 8.92036)
(9.04503e-14 0.0825206 8.58049)
(9.40412e-14 0.0712688 8.65389)
(7.03615e-15 -0.00298326 8.51283)
(5.28848e-14 -0.126177 8.51348)
(-5.79881e-14 -0.204365 8.6356)
(7.77867e-14 -0.260258 8.78439)
(6.85464e-14 -0.330633 9.04403)
(1.98666e-13 -0.440229 9.25193)
(1.54929e-13 -0.546462 9.64651)
(2.05164e-14 -0.638305 10.0848)
(3.68014e-14 -0.700222 10.5852)
(3.00292e-14 -0.802797 11.074)
(3.09075e-14 -0.981833 11.5953)
(-9.07936e-14 -1.18244 12.1982)
(-1.30325e-13 -1.30907 12.8862)
(-3.95981e-14 -1.34766 13.6067)
(-1.45998e-13 -1.3308 14.2957)
(-7.10272e-14 -1.28739 14.975)
(-5.77802e-14 -1.2284 15.6524)
(-5.47537e-14 -1.16456 16.0818)
(-4.71752e-14 -1.10672 16.5413)
(-3.85607e-14 -1.0365 16.9406)
(-2.37246e-14 -0.976389 17.3623)
(-1.13948e-14 -0.911751 17.6986)
(-2.84998e-15 -0.864532 18.0338)
(2.21654e-16 -0.815184 18.322)
(-7.51273e-16 -0.771333 18.597)
(-1.13478e-15 -0.718816 18.8916)
(-1.99032e-15 -0.666492 19.2035)
(-1.48921e-15 -0.611004 19.4981)
(-9.86663e-15 -0.561826 19.7641)
(-1.14566e-13 -0.519417 20.035)
(-6.25501e-15 -0.486599 20.305)
(-7.65587e-15 -0.466441 20.5665)
(8.11873e-14 -0.460805 20.8151)
(-2.39072e-14 -0.474134 21.0821)
(-2.25853e-14 -0.502663 21.3675)
(-1.0671e-13 -0.548374 21.6801)
(-6.11083e-14 -0.602743 22.0196)
(1.90053e-14 -0.66267 22.3889)
(-8.1206e-14 -0.722297 22.7907)
(-4.09121e-14 -0.772905 23.209)
(-7.6969e-14 -0.812216 23.6398)
(-2.19407e-14 -0.834276 24.0752)
(-2.26493e-14 -0.84425 24.51)
(-2.72211e-14 -0.843133 24.9333)
(-2.87088e-14 -0.837603 25.3449)
(3.26478e-15 -0.82904 25.7471)
(-3.30659e-14 -0.819633 26.1445)
(-2.83092e-14 -0.80713 26.534)
(-1.09196e-14 -0.790491 26.9176)
(-2.81565e-14 -0.767227 27.2929)
(-2.65099e-14 -0.737543 27.6582)
(-2.31488e-14 -0.701262 28.0063)
(2.52677e-15 -0.660754 28.3355)
(-1.60265e-14 -0.617064 28.6443)
(-1.26362e-14 -0.572685 28.9317)
(-2.30463e-14 -0.528641 29.1967)
(-3.17994e-14 -0.486801 29.4394)
(-2.15202e-14 -0.447693 29.6629)
(-2.68172e-14 -0.412333 29.8675)
(-2.59475e-14 -0.380683 30.0558)
(-2.66563e-14 -0.353073 30.2282)
(-1.95188e-14 -0.32896 30.3889)
(-2.92573e-14 -0.308256 30.5375)
(-4.18341e-14 -0.290209 30.6769)
(-2.50645e-14 -0.274721 30.8066)
(-1.90701e-14 -0.261327 30.9294)
(-2.85435e-14 -0.2503 31.0454)
(-3.06288e-14 -0.241723 31.1525)
(-3.09919e-14 -0.238669 31.2579)
(-2.95877e-14 -0.231987 31.3405)
(-3.3526e-14 -0.259331 31.4919)
(6.81086e-14 -0.65971 -0.162036)
(5.74825e-14 -0.721609 2.81417)
(8.25527e-14 -0.29668 3.52882)
(1.10639e-13 -0.432046 3.79699)
(1.8024e-13 3.02794 7.68748)
(-3.61727e-14 2.97643 6.73636)
(-1.58512e-14 1.79307 7.34468)
(2.35829e-14 0.609822 7.83609)
(-1.61561e-13 1.6172 7.43706)
(-5.29592e-14 0.12048 7.04157)
(-1.41286e-14 -0.958871 7.82352)
(2.74139e-14 -1.24266 9.14548)
(4.47855e-14 -1.0346 10.4583)
(5.51906e-14 -0.540356 10.9484)
(7.30228e-14 -0.129546 10.9167)
(9.63855e-14 0.114395 10.877)
(2.65376e-14 0.118594 10.8948)
(7.9822e-14 0.0911091 10.8491)
(6.07981e-14 -0.00675959 10.8094)
(5.74866e-14 -0.204399 10.9316)
(-2.53676e-14 -0.240642 11.0855)
(2.18754e-14 -0.0587244 11.0451)
(1.3415e-13 0.0543517 10.9995)
(7.52459e-14 0.0468005 10.6776)
(5.68874e-14 0.170541 10.0664)
(9.60935e-14 0.316128 9.76477)
(7.07265e-14 0.223126 8.93317)
(-1.00167e-14 0.104846 8.55761)
(-1.09049e-14 0.0935496 8.60799)
(5.74551e-15 0.022621 8.46261)
(4.12942e-14 -0.101642 8.45024)
(5.32048e-14 -0.200487 8.44673)
(5.59848e-14 -0.28108 8.5989)
(5.33827e-14 -0.370996 8.87855)
(5.58288e-14 -0.501778 9.09877)
(1.53287e-13 -0.63028 9.50261)
(2.45579e-14 -0.738872 9.94536)
(3.17492e-14 -0.804162 10.4332)
(2.19153e-14 -0.913035 10.8816)
(1.8561e-14 -1.11853 11.3358)
(-1.16884e-13 -1.35522 11.8583)
(-3.4762e-14 -1.50497 12.4628)
(-1.50141e-13 -1.55166 13.0981)
(-6.74698e-14 -1.53515 13.7045)
(-5.43933e-14 -1.48928 14.3103)
(-4.89548e-14 -1.42709 14.9248)
(-4.65126e-14 -1.35793 15.2946)
(4.44688e-14 -1.29431 15.7053)
(6.21158e-14 -1.21631 16.0574)
(1.58804e-13 -1.1483 16.435)
(4.10321e-14 -1.0781 16.7256)
(1.83911e-13 -1.02699 17.0186)
(3.77435e-14 -0.975902 17.2665)
(1.50394e-14 -0.928276 17.5052)
(7.95251e-15 -0.871443 17.767)
(2.63957e-15 -0.811854 18.0501)
(5.58554e-16 -0.749846 18.3185)
(9.58525e-14 -0.692642 18.5612)
(1.85802e-14 -0.644447 18.8121)
(-2.71492e-14 -0.605692 19.0651)
(-2.25367e-14 -0.582987 19.3117)
(-2.5852e-14 -0.575895 19.548)
(-2.26502e-14 -0.592057 19.8049)
(6.79162e-14 -0.624968 20.0822)
(-4.06642e-14 -0.678982 20.3884)
(2.77517e-14 -0.742578 20.723)
(2.6148e-14 -0.81316 21.0884)
(-5.8268e-15 -0.882791 21.4875)
(-4.78399e-14 -0.94203 21.9033)
(-5.28949e-14 -0.986642 22.3315)
(-4.44281e-14 -1.0111 22.7634)
(-3.61804e-14 -1.0204 23.1936)
(-1.22322e-14 -1.01789 23.6118)
(-3.6503e-14 -1.01031 24.0189)
(-3.33613e-14 -1.00103 24.4189)
(-2.29987e-14 -0.991101 24.8182)
(-4.42738e-16 -0.978788 25.2145)
(-2.15111e-14 -0.961251 25.6105)
(-3.76524e-14 -0.936248 26.0029)
(-3.73403e-14 -0.902856 26.3895)
(-1.81456e-14 -0.861597 26.7618)
(-3.17663e-14 -0.814551 27.1172)
(-4.26393e-15 -0.763651 27.4533)
(-1.91511e-14 -0.711335 27.7685)
(-3.01269e-14 -0.659381 28.0613)
(-3.02409e-14 -0.609591 28.3311)
(-2.86114e-14 -0.56306 28.581)
(-2.8171e-14 -0.520677 28.811)
(-3.19622e-14 -0.482776 29.0238)
(-2.26735e-14 -0.44948 29.2197)
(-2.76013e-14 -0.420437 29.4029)
(-2.91204e-14 -0.395279 29.5731)
(-4.01498e-14 -0.373302 29.7333)
(-2.59827e-14 -0.35412 29.8829)
(-2.85111e-14 -0.337298 30.0247)
(-2.02231e-14 -0.322961 30.1585)
(-3.07788e-14 -0.311218 30.2822)
(-2.7824e-14 -0.305648 30.4029)
(-2.87996e-14 -0.295199 30.4985)
(-3.13808e-14 -0.322407 30.6672)
(-9.40734e-14 -0.669205 -0.197268)
(1.04487e-13 -0.585167 2.98059)
(1.90653e-13 -0.267414 3.59029)
(3.65644e-14 -0.634678 3.55022)
(3.881e-13 2.18111 7.06724)
(-2.18759e-14 3.04172 6.3113)
(1.61781e-14 1.82469 7.21675)
(2.92525e-13 0.326394 7.60644)
(-5.60239e-14 1.73827 7.25053)
(6.37669e-15 0.0784721 6.93562)
(1.5972e-14 -1.1043 7.73154)
(3.6792e-14 -1.41486 9.05715)
(3.98608e-14 -1.17164 10.3539)
(4.39189e-14 -0.608722 10.8614)
(5.57912e-14 -0.144835 10.8413)
(9.01851e-14 0.125407 10.8235)
(8.12126e-14 0.132355 10.8538)
(5.00087e-14 0.102307 10.8086)
(2.54901e-14 -0.00591946 10.7474)
(2.39633e-14 -0.234522 10.8665)
(2.97174e-14 -0.266817 10.9957)
(3.09045e-14 -0.0505482 10.8999)
(1.22312e-13 0.0787485 10.8188)
(1.37915e-13 0.0650506 10.4749)
(7.14779e-14 0.193437 9.73482)
(8.13171e-14 0.345193 9.4791)
(1.07239e-13 0.240173 8.62436)
(1.11305e-13 0.099451 8.1849)
(7.6362e-14 0.0864335 8.24475)
(7.06723e-14 0.0139792 8.09542)
(7.07879e-14 -0.113692 8.08209)
(6.90575e-14 -0.228191 8.13705)
(6.53173e-14 -0.342955 8.24281)
(5.35029e-14 -0.450469 8.56726)
(3.92506e-14 -0.590634 8.8326)
(1.66085e-13 -0.729637 9.27184)
(4.12962e-14 -0.846511 9.73154)
(3.00511e-14 -0.904598 10.2278)
(1.4244e-14 -1.01125 10.6533)
(2.2016e-14 -1.23987 11.0541)
(-5.13355e-14 -1.51272 11.5127)
(-1.74277e-13 -1.6859 12.0557)
(-1.44899e-13 -1.73921 12.6331)
(-5.3606e-14 -1.72213 13.1851)
(-4.08918e-14 -1.67462 13.7445)
(-2.96269e-14 -1.61038 14.3205)
(-1.98635e-14 -1.53801 14.6515)
(-1.93917e-14 -1.46936 15.031)
(7.15025e-14 -1.38397 15.3469)
(9.17759e-14 -1.30789 15.6854)
(1.07166e-14 -1.23257 15.9282)
(8.32461e-14 -1.17828 16.171)
(1.68285e-14 -1.1268 16.3641)
(4.23207e-15 -1.07668 16.5481)
(2.43818e-15 -1.01695 16.7551)
(4.91079e-15 -0.951378 16.9858)
(-7.04637e-14 -0.884399 17.2033)
(7.93511e-14 -0.820536 17.3985)
(-3.58074e-14 -0.767883 17.6062)
(3.95723e-14 -0.724321 17.8212)
(-2.48787e-14 -0.700155 18.0341)
(-3.41495e-14 -0.692502 18.2414)
(-3.62911e-14 -0.712026 18.4744)
(-3.89387e-14 -0.749892 18.7316)
(-4.65261e-14 -0.812859 19.021)
(-4.98097e-14 -0.886548 19.3428)
(-1.59005e-14 -0.968611 19.6971)
(-1.30127e-13 -1.04903 20.0877)
(-8.40355e-14 -1.11725 20.4958)
(-8.51504e-14 -1.16732 20.917)
(-7.41766e-14 -1.19382 21.3414)
(-7.04729e-14 -1.20233 21.7638)
(-7.3847e-14 -1.19842 22.175)
(-7.10547e-14 -1.18957 22.5778)
(-4.76798e-14 -1.18074 22.9784)
(-6.49784e-14 -1.1721 23.3849)
(-4.21613e-14 -1.16184 23.7958)
(-3.67622e-14 -1.14531 24.2137)
(-5.08209e-14 -1.12001 24.6343)
(-4.50568e-14 -1.08405 25.0538)
(-6.32293e-14 -1.03842 25.4618)
(-7.2324e-14 -0.985137 25.8542)
(-4.61596e-14 -0.926929 26.2276)
(-3.35004e-14 -0.866404 26.5795)
(-1.49083e-14 -0.806024 26.9076)
(-2.55156e-14 -0.747718 27.2111)
(-2.3078e-14 -0.693079 27.4929)
(-2.29883e-14 -0.643031 27.7528)
(-2.35791e-14 -0.598214 27.9937)
(-1.34174e-14 -0.558663 28.2158)
(-1.82875e-14 -0.524138 28.4237)
(-1.28203e-14 -0.494058 28.6172)
(-1.26907e-14 -0.467665 28.7993)
(-1.48455e-14 -0.44433 28.9695)
(-1.44836e-14 -0.423557 29.1306)
(-2.15302e-14 -0.405401 29.2824)
(-1.26621e-14 -0.389915 29.4229)
(-2.01464e-14 -0.381237 29.5587)
(-1.77765e-14 -0.366793 29.6676)
(-1.92465e-14 -0.392288 29.8533)
(7.82542e-16 -0.920856 0.459942)
(2.14965e-13 -1.17498 4.60734)
(3.85423e-13 -0.377163 4.00118)
(1.53953e-13 -0.503485 3.19664)
(6.07566e-14 2.58485 5.48112)
(-5.77968e-14 3.04631 5.97418)
(1.30268e-14 1.94493 7.07198)
(-4.04476e-14 0.787142 7.48788)
(-1.67402e-14 1.91811 7.11279)
(8.30865e-14 0.0495452 6.85609)
(3.72846e-14 -1.23962 7.66184)
(5.00975e-14 -1.57521 8.99266)
(4.27473e-14 -1.30813 10.249)
(7.74471e-14 -0.701369 10.7534)
(7.33336e-14 -0.193988 10.7793)
(6.36923e-14 0.100983 10.8157)
(6.25965e-14 0.117419 10.8809)
(1.72756e-14 0.0903444 10.8558)
(-3.12151e-14 -0.0240103 10.8008)
(5.56688e-15 -0.279447 10.9461)
(2.99464e-14 -0.301792 11.0605)
(3.1382e-15 -0.051659 10.9662)
(7.84466e-14 0.0971668 10.8841)
(6.32313e-14 0.0929851 10.5369)
(3.70996e-14 0.234031 9.75611)
(8.89129e-14 0.397424 9.47846)
(7.63034e-14 0.292859 8.64437)
(1.66839e-14 0.134607 8.16015)
(5.51299e-14 0.114625 8.20958)
(7.9823e-14 0.0424986 8.08059)
(-9.46698e-14 -0.0888416 8.04231)
(3.83129e-14 -0.21105 8.12544)
(3.6468e-14 -0.360889 8.14436)
(-4.42063e-14 -0.495367 8.46426)
(-5.28132e-14 -0.655048 8.71537)
(2.09334e-14 -0.815078 9.14137)
(2.54255e-14 -0.947018 9.58733)
(-1.92503e-15 -0.998941 10.069)
(-1.5769e-14 -1.09956 10.4646)
(-1.56999e-14 -1.34969 10.8206)
(-3.30574e-14 -1.65888 11.2339)
(-2.79388e-14 -1.85475 11.738)
(-1.34306e-13 -1.91598 12.2805)
(-3.55452e-14 -1.90069 12.8035)
(-1.72536e-14 -1.85377 13.3436)
(-7.23218e-15 -1.78815 13.9061)
(8.96906e-15 -1.71278 14.2183)
(2.17508e-14 -1.6375 14.5806)
(2.91277e-14 -1.54155 14.8686)
(2.97256e-14 -1.45496 15.173)
(2.77981e-14 -1.37211 15.3672)
(2.23788e-14 -1.31311 15.5557)
(1.91995e-14 -1.26002 15.6848)
(1.66758e-14 -1.20669 15.8013)
(1.41178e-14 -1.14407 15.9363)
(1.13273e-14 -1.0728 16.0949)
(-7.68745e-14 -1.0023 16.239)
(-1.67429e-14 -0.933109 16.3636)
(3.05859e-14 -0.87823 16.5041)
(-1.06612e-13 -0.831612 16.6575)
(-1.19355e-13 -0.808632 16.8141)
(-5.78476e-14 -0.802541 16.9731)
(-5.46045e-14 -0.828202 17.165)
(-5.83832e-14 -0.872583 17.388)
(-2.50645e-14 -0.946213 17.6484)
(-7.55934e-14 -1.03113 17.9465)
(-1.23859e-13 -1.12586 18.2807)
(-1.39131e-13 -1.2178 18.6548)
(-9.05337e-14 -1.29608 19.0483)
(-9.03242e-14 -1.35172 19.4561)
(-3.04078e-14 -1.3808 19.8678)
(-6.78853e-14 -1.38869 20.2793)
(-6.82914e-14 -1.38466 20.6835)
(-7.81138e-14 -1.3761 21.0859)
(-8.39717e-14 -1.37028 21.4945)
(-4.04687e-14 -1.36559 21.9191)
(-6.31005e-15 -1.36015 22.3578)
(-3.57308e-14 -1.34683 22.8119)
(-6.83246e-16 -1.3229 23.2747)
(-3.88288e-14 -1.28522 23.7401)
(-2.1652e-14 -1.23545 24.195)
(-1.89894e-15 -1.17562 24.6339)
(-1.9898e-14 -1.10946 25.0518)
(-2.54989e-14 -1.03985 25.4457)
(-4.97581e-14 -0.970062 25.8126)
(-8.51906e-15 -0.902218 26.1519)
(-1.94398e-14 -0.838473 26.4663)
(-2.04163e-14 -0.779826 26.7559)
(-1.90102e-14 -0.727243 27.0238)
(-1.78179e-14 -0.680689 27.2705)
(-1.82236e-14 -0.640016 27.501)
(-2.99809e-14 -0.604421 27.7152)
(-2.4141e-14 -0.573052 27.9165)
(-1.07632e-14 -0.545028 28.1044)
(-1.49522e-14 -0.519754 28.2821)
(-4.80793e-15 -0.497268 28.4491)
(-2.19613e-15 -0.477441 28.6037)
(-8.43281e-15 -0.465186 28.7523)
(-4.78704e-15 -0.446298 28.8724)
(-4.50376e-15 -0.468345 29.0712)
(1.42874e-13 -0.741129 0.459689)
(1.38352e-13 -0.468047 3.37291)
(1.93248e-13 -0.231578 3.89311)
(1.36881e-13 -0.673177 3.06652)
(1.81866e-13 2.07519 4.81092)