/*--------------------------------*- C++ -*----------------------------------*\
| =========                 |                                                 |
| \\      /  F ield         | OpenFOAM: The Open Source CFD Toolbox           |
|  \\    /   O peration     | Version:  4.1                                   |
|   \\  /    A nd           | Web:      www.OpenFOAM.org                      |
|    \\/     M anipulation  |                                                 |
\*---------------------------------------------------------------------------*/
FoamFile
{
    version     2.0;
    format      ascii;
    class       volScalarField;
    location    "10";
    object      p;
}
// * * * * * * * * * * * * * * * * * * * * * * * * * * * * * * * * * * * * * //

dimensions      [0 2 -2 0 0 0 0];

internalField   nonuniform List<scalar> 
26785
(
2.36947
2.30519
2.44696
2.4148
2.40918
2.44783
2.54464
2.6994
2.71946
2.56333
2.33948
1.93726
1.39904
0.702827
0.0350244
-0.632324
-1.29876
-1.86115
-2.15498
-2.21639
-2.12199
-1.88342
-1.62873
-1.30223
-0.889151
-0.47467
-0.136052
0.162138
0.423095
0.712058
1.05316
1.44358
1.80035
2.12189
2.40453
2.65509
2.79327
2.80015
2.66598
2.42204
2.09351
1.71752
1.31334
0.8939
0.469411
0.0587815
-0.325472
-0.676423
-1.08227
-1.44184
-1.80505
-2.08546
-2.34282
-2.52934
-2.69584
-2.81586
-2.91993
-2.99008
-3.03799
-3.05847
-3.05574
-3.02842
-2.96991
-2.88795
-2.77864
-2.66153
-2.52875
-2.39534
-2.24665
-2.09551
-1.92768
-1.76184
-1.58871
-1.42804
-1.26697
-1.11854
-0.968433
-0.828687
-0.686497
-0.553649
-0.420602
-0.300028
-0.183986
-0.0824008
0.0126921
0.0935142
0.167127
0.226874
0.278573
0.316469
0.34555
0.361195
0.367374
0.360011
0.342478
0.310823
0.269804
0.210677
0.146564
0.0316945
2.35232
2.3044
2.44902
2.4145
2.40825
2.44802
2.54443
2.70021
2.72047
2.56347
2.33971
1.93854
1.39965
0.703557
0.0352341
-0.632516
-1.30128
-1.86432
-2.15707
-2.21653
-2.12247
-1.88346
-1.62924
-1.30165
-0.886881
-0.471891
-0.135009
0.161853
0.421051
0.70827
1.04865
1.43995
1.7979
2.11958
2.40255
2.65465
2.7946
2.80207
2.66727
2.42227
2.09341
1.7174
1.31281
0.892831
0.469107
0.0603449
-0.322724
-0.673613
-1.08114
-1.44215
-1.80649
-2.08707
-2.34476
-2.53124
-2.69797
-2.81818
-2.92257
-2.99284
-3.04064
-3.06133
-3.0588
-3.03156
-2.97255
-2.88982
-2.77935
-2.66147
-2.52818
-2.39486
-2.24614
-2.09474
-1.92621
-1.75973
-1.58616
-1.42556
-1.2649
-1.11713
-0.967747
-0.828658
-0.686939
-0.554299
-0.421317
-0.300707
-0.184641
-0.0829535
0.0122243
0.093252
0.167026
0.226999
0.278828
0.316918
0.346122
0.361975
0.368281
0.361122
0.343691
0.312029
0.271547
0.211298
0.165925
0.00948255
2.32053
2.30357
2.45283
2.4139
2.40694
2.44878
2.54392
2.70194
2.72297
2.56405
2.34085
1.9413
1.40127
0.704534
0.0354136
-0.634198
-1.30791
-1.87277
-2.16271
-2.21827
-2.12421
-1.88484
-1.63115
-1.30119
-0.882051
-0.465239
-0.130915
0.163337
0.419266
0.703365
1.04297
1.43652
1.79701
2.11908
2.40249
2.65731
2.80013
2.80807
2.67124
2.42331
2.09273
1.71583
1.30978
0.888215
0.465293
0.0593082
-0.321665
-0.672291
-1.08243
-1.44505
-1.81039
-2.09027
-2.34784
-2.53356
-2.70026
-2.82021
-2.92482
-2.99483
-3.04246
-3.06342
-3.06152
-3.03454
-2.97514
-2.89128
-2.7793
-2.66019
-2.5264
-2.39331
-2.24478
-2.09288
-1.92322
-1.75538
-1.58087
-1.41993
-1.25962
-1.11248
-0.964006
-0.825683
-0.684609
-0.552231
-0.419466
-0.298952
-0.183109
-0.0815415
0.0134724
0.0945003
0.168217
0.228217
0.279982
0.318097
0.347291
0.363248
0.369635
0.36264
0.345349
0.313687
0.27352
0.212177
0.172837
0.0110253
2.27746
2.30584
2.45899
2.41312
2.40496
2.45011
2.5433
2.70498
2.72652
2.56383
2.34204
1.94504
1.40399
0.706466
0.0373908
-0.635145
-1.31715
-1.88599
-2.17116
-2.22075
-2.12617
-1.8861
-1.6329
-1.3
-0.874
-0.454798
-0.124336
0.16542
0.417006
0.697064
1.03681
1.43402
1.79801
2.11904
2.40151
2.65828
2.80401
2.81159
2.67148
2.41875
2.0851
1.70606
1.29776
0.87437
0.453132
0.0508678
-0.327494
-0.676923
-1.08971
-1.45203
-1.8173
-2.09439
-2.35125
-2.53472
-2.70131
-2.81976
-2.92474
-2.99342
-3.04115
-3.06188
-3.06133
-3.03447
-2.97566
-2.89082
-2.77841
-2.65838
-2.52534
-2.39306
-2.2459
-2.09379
-1.92378
-1.7545
-1.57945
-1.41784
-1.25799
-1.11097
-0.963416
-0.825392
-0.685033
-0.55258
-0.420243
-0.299687
-0.184379
-0.0828971
0.0116428
0.0927109
0.166124
0.226207
0.277717
0.315937
0.344971
0.36108
0.367416
0.360702
0.343498
0.312283
0.271674
0.211559
0.160325
0.0254154
2.2263
2.31453
2.46817
2.41317
2.40281
2.45191
2.54187
2.70849
2.7311
2.5631
2.34363
1.9494
1.40733
0.708569
0.0408517
-0.635292
-1.32736
-1.90122
-2.18022
-2.22302
-2.12789
-1.88787
-1.63527
-1.30092
-0.868756
-0.447381
-0.119383
0.165825
0.413146
0.688753
1.02935
1.43044
1.79813
2.11697
2.39694
2.65346
2.80022
2.80556
2.6611
2.40286
2.06556
1.68368
1.27299
0.848899
0.431107
0.0339125
-0.341252
-0.689281
-1.10334
-1.46373
-1.8268
-2.09985
-2.35468
-2.53525
-2.70071
-2.81692
-2.92113
-2.98775
-3.03494
-3.05528
-3.05593
-3.02956
-2.97173
-2.88658
-2.77425
-2.65397
-2.5225
-2.39218
-2.24736
-2.09611
-1.92641
-1.75628
-1.58083
-1.41879
-1.25938
-1.11266
-0.965916
-0.828271
-0.688418
-0.555922
-0.423802
-0.30322
-0.188198
-0.0867466
0.00761901
0.0888514
0.162313
0.222623
0.274208
0.312672
0.341829
0.358166
0.364629
0.35821
0.341234
0.310547
0.269603
0.210686
0.150667
0.0358242
2.17032
2.33155
2.48103
2.41498
2.40052
2.45409
2.54022
2.71277
2.73652
2.56089
2.34439
1.95217
1.40992
0.710137
0.0465083
-0.631809
-1.33315
-1.91308
-2.18632
-2.22427
-2.12975
-1.89113
-1.63948
-1.30658
-0.871196
-0.449876
-0.12407
0.156812
0.400256
0.670872
1.01222
1.41744
1.78933
2.10537
2.38205
2.63841
2.78609
2.78852
2.63888
2.3747
2.03346
1.64866
1.23573
0.811789
0.398607
0.00779268
-0.363471
-0.710525
-1.12394
-1.48171
-1.84051
-2.10967
-2.36147
-2.53943
-2.70249
-2.81582
-2.91739
-2.98076
-3.02575
-3.04516
-3.04642
-3.0208
-2.96384
-2.87852
-2.7658
-2.64511
-2.51523
-2.38763
-2.24577
-2.096
-1.92689
-1.7563
-1.58075
-1.41874
-1.26013
-1.11427
-0.968838
-0.832057
-0.692961
-0.56069
-0.429001
-0.308661
-0.194092
-0.0928632
0.00119295
0.0824709
0.156005
0.216611
0.268404
0.307245
0.336669
0.353313
0.359945
0.353798
0.337056
0.306865
0.265773
0.207942
0.143187
0.0407444
2.10961
2.34988
2.49214
2.41694
2.39777
2.45636
2.53812
2.71776
2.74372
2.5595
2.34529
1.95275
1.41015
0.709036
0.0497537
-0.630231
-1.3376
-1.92227
-2.19104
-2.2272
-2.13501
-1.89895
-1.64828
-1.3178
-0.880562
-0.45921
-0.134524
0.143632
0.383494
0.648634
0.989888
1.39965
1.77561
2.08868
2.36177
2.61851
2.76603
2.76309
2.60563
2.33426
1.98872
1.60175
1.18739
0.764641
0.357322
-0.0254359
-0.391768
-0.737585
-1.14951
-1.50432
-1.85779
-2.12251
-2.37095
-2.54663
-2.70707
-2.81741
-2.91567
-2.97517
-3.0168
-3.03436
-3.03552
-3.01071
-2.95464
-2.86921
-2.75595
-2.63472
-2.50609
-2.38118
-2.24231
-2.09416
-1.92547
-1.75448
-1.57912
-1.41756
-1.25994
-1.11518
-0.971278
-0.835622
-0.69725
-0.565263
-0.434055
-0.314204
-0.20023
-0.099376
-0.00566498
0.0755306
0.149117
0.209998
0.262079
0.301357
0.331215
0.348341
0.355316
0.349503
0.333069
0.303353
0.26232
0.205489
0.138099
0.0437124
2.05848
2.37243
2.50349
2.42095
2.39593
2.46011
2.53791
2.72501
2.75259
2.55758
2.34386
1.94756
1.40494
0.703473
0.0493449
-0.631355
-1.34142
-1.92799
-2.1926
-2.22778
-2.13891
-1.90514
-1.65627
-1.32843
-0.888984
-0.467849
-0.147884
0.125773
0.361069
0.61863
0.957503
1.37155
1.75069
2.05848
2.32733
2.58529
2.73172
2.72105
2.55391
2.27585
1.9277
1.54074
1.12695
0.707053
0.307416
-0.0650816
-0.425062
-0.768607
-1.17771
-1.52862
-1.87649
-2.1364
-2.38119
-2.55491
-2.71274
-2.82004
-2.91432
-2.96908
-3.00642
-3.02114
-3.02137
-2.99728
-2.94229
-2.85689
-2.74275
-2.6209
-2.49363
-2.37132
-2.23542
-2.08905
-1.92073
-1.7491
-1.57426
-1.41387
-1.25776
-1.11442
-0.972401
-0.838219
-0.700686
-0.568984
-0.438329
-0.319266
-0.206339
-0.106295
-0.0132663
0.0675665
0.140992
0.202049
0.254451
0.294263
0.324634
0.342318
0.349751
0.34434
0.32827
0.299067
0.258277
0.20237
0.133718
0.0449404
2.02324
2.39391
2.51195
2.42467
2.39326
2.46305
2.5366
2.73168
2.76153
2.5554
2.3407
1.9389
1.3959
0.694902
0.0453507
-0.636914
-1.34915
-1.935
-2.19536
-2.22901
-2.14313
-1.91159
-1.66457
-1.33892
-0.896932
-0.475002
-0.160053
0.107543
0.337859
0.586607
0.921034
1.33855
1.72054
2.02158
2.2856
2.5448
2.68757
2.6664
2.48851
2.20553
1.85743
1.47253
1.06098
0.645262
0.254233
-0.107132
-0.46031
-0.80132
-1.20672
-1.5523
-1.89442
-2.15015
-2.39156
-2.56358
-2.71929
-2.82404
-2.91407
-2.96336
-2.99565
-3.00709
-3.00605
-2.98248
-2.92885
-2.84391
-2.72879
-2.60604
-2.4803
-2.36057
-2.22722
-2.08246
-1.91455
-1.74219
-1.56783
-1.40907
-1.25478
-1.11299
-0.972888
-0.840269
-0.703574
-0.57214
-0.441947
-0.323685
-0.211989
-0.11314
-0.0210505
0.0592287
0.132372
0.193487
0.246261
0.286771
0.317862
0.336115
0.344035
0.339108
0.323473
0.294821
0.254417
0.199386
0.130366
0.0455928
2.00837
2.40941
2.51765
2.42789
2.38964
2.46562
2.53454
2.73715
2.76814
2.55016
2.33306
1.92495
1.37909
0.677392
0.0342001
-0.647629
-1.36239
-1.94662
-2.20149
-2.23247
-2.14777
-1.91519
-1.668
-1.34332
-0.899691
-0.478891
-0.170601
0.0893702
0.314337
0.553288
0.880037
1.29754
1.68061
1.97363
2.23173
2.4911
2.627
2.59398
2.40609
2.12014
1.77513
1.39479
0.98774
0.57779
0.196116
-0.153746
-0.499719
-0.837669
-1.23828
-1.57701
-1.91187
-2.16366
-2.40212
-2.57241
-2.726
-2.82846
-2.91396
-2.95704
-2.98297
-2.99006
-2.98742
-2.96417
-2.91213
-2.82808
-2.71194
-2.58803
-2.46357
-2.34641
-2.21532
-2.07195
-1.90452
-1.73171
-1.55791
-1.40109
-1.24893
-1.10891
-0.970936
-0.840041
-0.704393
-0.573499
-0.444119
-0.326853
-0.216493
-0.119138
-0.0284557
0.050941
0.12355
0.184539
0.23758
0.278783
0.310692
0.329586
0.337836
0.333341
0.318165
0.290131
0.250245
0.196119
0.12732
0.0457136
2.01474
2.41221
2.51891
2.43051
2.38604
2.46883
2.5308
2.73828
2.76803
2.53655
2.31725
1.9042
1.35562
0.651984
0.0176842
-0.660571
-1.37822
-1.96104
-2.21022
-2.23926
-2.15529
-1.91893
-1.66941
-1.34408
-0.899343
-0.48234
-0.180936
0.0722246
0.292397
0.521551
0.838373
1.25217
1.63431
1.92002
2.1727
2.43058
2.55653
2.51153
2.31557
2.02859
1.68898
1.31469
0.913737
0.511001
0.138819
-0.200562
-0.539715
-0.874286
-1.26932
-1.60051
-1.92758
-2.17529
-2.41196
-2.58054
-2.73214
-2.83273
-2.91386
-2.95066
-2.96995
-2.97197
-2.9676
-2.9448
-2.89456
-2.81181
-2.6948
-2.56995
-2.44651
-2.33143
-2.20225
-2.05987
-1.89292
-1.72005
-1.54697
-1.39198
-1.24186
-1.1036
-0.967705
-0.838486
-0.703925
-0.573794
-0.445488
-0.329394
-0.22035
-0.124458
-0.0353708
0.0429079
0.114822
0.175556
0.228817
0.270683
0.303415
0.323004
0.331546
0.327371
0.312692
0.285328
0.246075
0.192869
0.124582
0.0457401
2.05709
2.41711
2.523
2.43611
2.38351
2.47313
2.52427
2.73409
2.75824
2.51197
2.29313
1.87783
1.32752
0.622241
-0.000634768
-0.671924
-1.39252
-1.97609
-2.22047
-2.24856
-2.16468
-1.92118
-1.66675
-1.33957
-0.894963
-0.48623
-0.193976
0.0545477
0.271797
0.490522
0.793817
1.19966
1.57811
1.8572
2.10512
2.35887
2.47248
2.41654
2.21474
1.92791
1.59543
1.22844
0.83479
0.4409
0.0789903
-0.251014
-0.583634
-0.914051
-1.30218
-1.62501
-1.94385
-2.18686
-2.42162
-2.58837
-2.73748
-2.83629
-2.91299
-2.94328
-2.95569
-2.95183
-2.94465
-2.92235
-2.87398
-2.79251
-2.67475
-2.54973
-2.42705
-2.31313
-2.18531
-2.04384
-1.87748
-1.70495
-1.53279
-1.37942
-1.23117
-1.09477
-0.96116
-0.83385
-0.700754
-0.571872
-0.445128
-0.330533
-0.223037
-0.128693
-0.0414013
0.0354221
0.106368
0.166691
0.220061
0.262504
0.295962
0.316195
0.324978
0.321028
0.306898
0.280279
0.241771
0.189529
0.121882
0.0457355
2.10898
2.41403
2.522
2.43833
2.37849
2.47412
2.51344
2.7259
2.74189
2.48148
2.26514
1.84933
1.29791
0.591925
-0.0185128
-0.681562
-1.40478
-1.99014
-2.23118
-2.2596
-2.17485
-1.92263
-1.66172
-1.33137
-0.88889
-0.492514
-0.209966
0.0367887
0.253226
0.461725
0.749253
1.14456
1.51788
1.79179
2.03544
2.28261
2.38281
2.31749
2.11199
1.8264
1.50187
1.14315
0.757296
0.3728
0.0214843
-0.300735
-0.627617
-0.953356
-1.33368
-1.64789
-1.95904
-2.19753
-2.43006
-2.59511
-2.7415
-2.83864
-2.91119
-2.93539
-2.94141
-2.9317
-2.92112
-2.89917
-2.85301
-2.77225
-2.65431
-2.53037
-2.40846
-2.29479
-2.16734
-2.0267
-1.86094
-1.68894
-1.51771
-1.36562
-1.21896
-1.08443
-0.953094
-0.827723
-0.696259
-0.568944
-0.443968
-0.331045
-0.225209
-0.132429
-0.0469024
0.0283131
0.0981711
0.158043
0.211516
0.254501
0.28863
0.30944
0.31848
0.314771
0.30124
0.275418
0.237717
0.186461
0.119482
0.0458245
2.1538
2.40648
2.51911
2.43873
2.37412
2.4738
2.50254
2.71786
2.7206
2.4459
2.23398
1.81871
1.2659
0.562361
-0.0345348
-0.688487
-1.41472
-2.004
-2.24282
-2.27214
-2.18501
-1.92121
-1.6528
-1.31803
-0.880368
-0.503448
-0.232825
0.016816
0.235673
0.433956
0.701876
1.08413
1.45082
1.72026
1.95939
2.19756
2.28418
2.21114
2.00353
1.72004
1.40384
1.05432
0.676739
0.301927
-0.0383234
-0.353428
-0.674876
-0.995208
-1.36663
-1.67196
-1.9754
-2.20948
-2.43827
-2.60093
-2.74413
-2.83944
-2.90777
-2.92634
-2.92604
-2.91036
-2.89547
-2.87331
-2.82908
-2.74812
-2.63086
-2.50902
-2.3883
-2.27387
-2.14573
-2.00587
-1.84072
-1.66915
-1.4989
-1.34818
-1.20314
-1.07072
-0.941806
-0.818539
-0.689056
-0.563763
-0.440866
-0.329948
-0.22609
-0.135123
-0.0514962
0.0218863
0.0904544
0.149778
0.203295
0.24674
0.281444
0.302707
0.311993
0.308585
0.29571
0.270713
0.233858
0.183619
0.11743
0.0459456
2.1855
2.3957
2.51407
2.43679
2.37138
2.47147
2.49184
2.71011
2.6964
2.40931
2.20375
1.78991
1.23447
0.535885
-0.0485256
-0.69389
-1.42364
-2.01756
-2.25478
-2.28497
-2.19448
-1.91751
-1.64259
-1.30266
-0.872408
-0.520327
-0.260262
-0.00365675
0.21952
0.407935
0.654229
1.02294
1.38337
1.64903
1.88294
2.11063
2.18467
2.10535
1.89668
1.61629
1.30843
0.968659
0.599353
0.233891
-0.0959381
-0.404477
-0.72098
-1.03557
-1.39775
-1.69436
-1.99089
-2.22099
-2.44551
-2.60504
-2.74532
-2.83864
-2.90276
-2.91671
-2.91069
-2.88926
-2.8703
-2.84761
-2.80446
-2.72281
-2.60764
-2.48825
-2.36963
-2.25378
-2.12417
-1.98464
-1.81953
-1.64795
-1.47879
-1.32973
-1.18635
-1.05601
-0.929284
-0.807951
-0.680502
-0.557432
-0.436766
-0.328058
-0.226324
-0.137288
-0.0555558
0.0159734
0.0832435
0.14206
0.195657
0.239534
0.274744
0.296352
0.305862
0.302792
0.290566
0.266364
0.230369
0.18115
0.115877
0.0461202
2.20651
2.38528
2.50869
2.4361
2.37263
2.47009
2.48311
2.7038
2.66898
2.37061
2.1732
1.75983
1.20184
0.511882
-0.0623331
-0.698088
-1.43142
-2.03171
-2.26735
-2.29786
-2.20114
-1.91007
-1.63153
-1.28558
-0.865401
-0.547836
-0.294049
-0.0239235
0.203632
0.381621
0.603403
0.957728
1.31178
1.57374
1.80122
2.01695
2.07993
1.99544
1.7863
1.50984
1.20989
0.880447
0.519398
0.163276
-0.156623
-0.458234
-0.769097
-1.07755
-1.43024
-1.71819
-2.00798
-2.23404
-2.45319
-2.60798
-2.74518
-2.83578
-2.89557
-2.90573
-2.89407
-2.86681
-2.84406
-2.81948
-2.77555
-2.69401
-2.58213
-2.46582
-2.34882
-2.23157
-2.10045
-1.95982
-1.79377
-1.62218
-1.45463
-1.30772
-1.16622
-1.03814
-0.913602
-0.794355
-0.669334
-0.548873
-0.430854
-0.324682
-0.225287
-0.138329
-0.0585738
0.0110321
0.0769727
0.13529
0.188884
0.233061
0.268566
0.290283
0.2999
0.297163
0.285553
0.262127
0.22698
0.178748
0.114447
0.0461872
2.22269
2.37739
2.50298
2.43679
2.37697
2.46943
2.47619
2.69769
2.63987
2.33305
2.14582
1.73099
1.17291
0.493669
-0.0738015
-0.702541
-1.43889
-2.04556
-2.27961
-2.31032
-2.20341
-1.89978
-1.62176
-1.27089
-0.863244
-0.587129
-0.325507
-0.0405312
0.18771
0.354668
0.552109
0.893397
1.24202
1.50069
1.72056
1.92336
1.97699
1.8881
1.67918
1.40745
1.11491
0.795994
0.44318
0.0960275
-0.215182
-0.510319
-0.814785
-1.11703
-1.46066
-1.74025
-2.02418
-2.24656
-2.46054
-2.6096
-2.74392
-2.83113
-2.88675
-2.89387
-2.87689
-2.84442
-2.81888
-2.79115
-2.74526
-2.66539
-2.55728
-2.44578
-2.32857
-2.21023
-2.07721
-1.93339
-1.76585
-1.59495
-1.4298
-1.2856
-1.14631
-1.02047
-0.897788
-0.780469
-0.657859
-0.539987
-0.424651
-0.320979
-0.223786
-0.138757
-0.0608789
0.00688314
0.071619
0.129527
0.183085
0.227424
0.262988
0.284562
0.294165
0.291732
0.280715
0.258025
0.223635
0.17628
0.112913
0.0460811
2.23475
2.37187
2.49797
2.43954
2.38439
2.47048
2.47248
2.69236
2.60729
2.29401
2.11944
1.69685
1.14559
0.480062
-0.0839203
-0.71075
-1.44721
-2.05989
-2.29284
-2.32272
-2.19934
-1.88581
-1.61167
-1.25829
-0.8664
-0.643259
-0.352881
-0.055215
0.167107
0.325385
0.498069
0.826566
1.16944
1.42439
1.63579
1.82525
1.87052
1.77761
1.5696
1.30306
1.01757
0.709287
0.364932
0.0267963
-0.276428
-0.565399
-0.861758
-1.15711
-1.49212
-1.76347
-2.0416
-2.26062
-2.46868
-2.61083
-2.74168
-2.8244
-2.87637
-2.88032
-2.85749
-2.82079
-2.79207
-2.75987
-2.71127
-2.63417
-2.52999
-2.42491
-2.30583
-2.18614
-2.04939
-1.90136
-1.73324
-1.56432
-1.40273
-1.26185
-1.12492
-1.00108
-0.879883
-0.764424
-0.644374
-0.529164
-0.4167
-0.315627
-0.220682
-0.137578
-0.0616453
0.00419717
0.0676589
0.125073
0.178353
0.222609
0.257899
0.278984
0.288358
0.286197
0.27575
0.253736
0.219976
0.173414
0.11095
0.0457065
2.24263
2.36716
2.49416
2.44336
2.39365
2.47176
2.47167
2.68683
2.57355
2.25705
2.09622
1.66221
1.12558
0.471014
-0.0946024
-0.723727
-1.45825
-2.07487
-2.30775
-2.33624
-2.19081
-1.87068
-1.60252
-1.24969
-0.876529
-0.710032
-0.376194
-0.070953
0.143543
0.294738
0.444467
0.761714
1.09965
1.35111
1.55352
1.73033
1.76766
1.67088
1.46425
1.20311
0.924697
0.626844
0.291072
-0.038327
-0.334541
-0.618162
-0.905922
-1.19365
-1.52082
-1.78443
-2.05762
-2.27398
-2.47636
-2.61198
-2.73874
-2.81638
-2.86548
-2.86543
-2.83634
-2.79713
-2.76529
-2.72919
-2.67779
-2.60358
-2.50465
-2.40461
-2.28418
-2.16152
-2.01946
-1.86745
-1.70005
-1.53462
-1.37762
-1.24024
-1.10527
-0.982644
-0.862078
-0.748062
-0.630377
-0.517712
-0.408114
-0.309587
-0.216796
-0.135481
-0.0614606
0.00248289
0.0647805
0.121653
0.174452
0.218461
0.253274
0.273608
0.282525
0.280559
0.270647
0.249214
0.215975
0.170164
0.108602
0.0451043
2.24715
2.36307
2.49253
2.44844
2.40531
2.4743
2.474
2.68161
2.53698
2.21979
2.07137
1.62537
1.10959
0.463328
-0.108431
-0.740041
-1.47463
-2.09411
-2.32775
-2.35233
-2.18141
-1.85478
-1.59292
-1.24101
-0.894761
-0.783562
-0.400552
-0.0934073
0.115923
0.26023
0.389133
0.694884
1.02753
1.27471
1.46825
1.6339
1.66327
1.56257
1.35713
1.10117
0.829989
0.541856
0.215184
-0.105321
-0.394967
-0.673286
-0.951956
-1.23022
-1.5496
-1.80606
-2.07449
-2.2884
-2.48428
-2.61376
-2.73499
-2.80677
-2.85368
-2.84828
-2.81194
-2.77113
-2.73605
-2.69736
-2.64259
-2.5706
-2.47891
-2.38042
-2.25972
-2.13244
-1.98423
-1.82947
-1.66442
-1.50389
-1.35195
-1.2178
-1.08407
-0.961839
-0.841429
-0.728881
-0.613808
-0.503908
-0.397468
-0.301664
-0.211178
-0.131695
-0.059788
0.00214816
0.0633259
0.119351
0.171451
0.214945
0.24894
0.268245
0.27652
0.274741
0.265293
0.244299
0.211483
0.166413
0.105753
0.0442344
2.24831
2.35803
2.49187
2.45347
2.4182
2.47696
2.47881
2.67655
2.50043
2.18605
2.04717
1.59519
1.09882
0.455783
-0.125208
-0.759309
-1.49709
-2.11773
-2.35397
-2.36934
-2.17253
-1.84075
-1.58586
-1.23523
-0.920581
-0.849476
-0.427484
-0.121037
0.0851719
0.220137
0.335337
0.630893
0.958761
1.20095
1.38631
1.54312
1.56454
1.45959
1.25478
1.00354
0.739738
0.460238
0.143463
-0.168341
-0.452148
-0.725375
-0.995649
-1.26322
-1.57463
-1.82505
-2.08966
-2.3017
-2.49195
-2.61601
-2.73115
-2.79636
-2.84171
-2.82971
-2.78575
-2.7435
-2.70628
-2.66606
-2.60957
-2.53962
-2.45552
-2.35568
-2.23542
-2.10264
-1.94815
-1.79225
-1.63145
-1.47621
-1.32878
-1.19718
-1.06378
-0.941111
-0.82035
-0.709134
-0.596633
-0.489533
-0.386293
-0.293139
-0.204932
-0.12726
-0.0575207
0.00255218
0.062669
0.117623
0.169109
0.21188
0.244754
0.262863
0.270521
0.268975
0.259841
0.239102
0.206634
0.162312
0.102572
0.0431978
2.24818
2.35303
2.49251
2.45814
2.43288
2.48056
2.48564
2.67215
2.4615
2.1527
2.01691
1.56682
1.08935
0.446285
-0.145673
-0.781171
-1.52575
-2.14593
-2.38521
-2.38722
-2.16398
-1.82666
-1.5796
-1.23013
-0.958645
-0.898392
-0.45797
-0.157876
0.0489725
0.172483
0.280717
0.566009
0.888379
1.12353
1.30126
1.45241
1.46576
1.35577
1.151
0.903846
0.64707
0.375023
0.0693354
-0.233473
-0.511468
-0.779311
-1.04128
-1.29708
-1.59905
-1.84407
-2.10526
-2.31553
-2.50005
-2.61901
-2.72719
-2.78523
-2.8287
-2.80864
-2.75691
-2.71319
-2.6743
-2.63148
-2.57457
-2.50745
-2.42918
-2.32747
-2.20632
-2.06891
-1.90845
-1.75362
-1.59893
-1.44894
-1.30496
-1.1747
-1.04077
-0.917279
-0.796269
-0.686741
-0.57714
-0.473132
-0.373242
-0.282879
-0.197151
-0.121511
-0.0541212
0.00432161
0.0631735
0.116838
0.167586
0.209357
0.240621
0.257345
0.264525
0.263237
0.254209
0.233557
0.201407
0.157857
0.099026
0.0420319
2.2468
2.348
2.49284
2.46155
2.44858
2.48442
2.49438
2.66762
2.42314
2.12323
1.98533
1.54484
1.08168
0.433647
-0.16886
-0.804976
-1.55893
-2.17638
-2.4194
-2.40583
-2.1583
-1.81761
-1.57607
-1.23008
-1.00617
-0.93731
-0.497811
-0.197399
0.00764626
0.119964
0.227148
0.504046
0.821859
1.05042
1.22108
1.36828
1.3732
1.25687
1.05222
0.808766
0.558253
0.293282
-0.000844355
-0.294589
-0.566695
-0.829369
-1.08374
-1.32797
-1.61956
-1.85991
-2.1193
-2.32851
-2.50804
-2.62172
-2.72252
-2.77466
-2.81514
-2.78497
-2.72818
-2.68268
-2.64276
-2.59827
-2.53997
-2.47682
-2.40214
-2.29942
-2.17529
-2.03468
-1.86986
-1.71838
-1.57055
-1.42539
-1.2838
-1.15351
-1.01793
-0.893174
-0.772056
-0.664213
-0.557479
-0.456649
-0.359882
-0.272359
-0.18906
-0.115513
-0.0505224
0.00673841
0.0642811
0.11667
0.166637
0.207193
0.236459
0.251745
0.258602
0.257447
0.248359
0.227738
0.195982
0.153254
0.0953185
0.0408967
2.24413
2.3444
2.49337
2.46427
2.46557
2.49076
2.50443
2.66131
2.38253
2.09432
1.9488
1.5246
1.07118
0.416307
-0.19545
-0.830848
-1.59616
-2.2097
-2.45625
-2.42518
-2.15223
-1.81102
-1.57113
-1.23455
-1.05928
-0.983494
-0.55105
-0.239682
-0.0390311
0.0625045
0.168541
0.438396
0.751545
0.976936
1.14205
1.28485
1.28088
1.15618
0.951774
0.711771
0.46683
0.208823
-0.0743861
-0.358216
-0.623856
-0.88108
-1.12722
-1.3593
-1.6395
-1.87537
-2.1339
-2.34204
-2.51582
-2.62513
-2.71598
-2.76342
-2.79888
-2.75697
-2.70073
-2.65248
-2.60827
-2.56341
-2.50129
-2.44301
-2.36993
-2.26756
-2.14015
-1.99803
-1.83097
-1.68473
-1.54279
-1.40158
-1.26178
-1.13007
-0.991898
-0.865836
-0.745227
-0.639499
-0.535917
-0.438555
-0.3449
-0.260536
-0.179606
-0.108347
-0.0456897
0.0104921
0.0665256
0.117658
0.166566
0.205526
0.23244
0.24612
0.252669
0.251429
0.242172
0.221624
0.190406
0.148575
0.091476
0.0398535
2.23982
2.34105
2.49303
2.46676
2.48223
2.49893
2.51574
2.65275
2.34284
2.06956
1.91638
1.50766
1.0595
0.396397
-0.223341
-0.858362
-1.63659
-2.24468
-2.4951
-2.44423
-2.14671
-1.80877
-1.5665
-1.24299
-1.11601
-1.03664
-0.614554
-0.285089
-0.0890883
0.00234252
0.106848
0.372016
0.680437
0.907189
1.07213
1.20902
1.19553
1.06048
0.855798
0.619196
0.379051
0.128083
-0.14619
-0.418864
-0.67789
-0.929293
-1.16663
-1.38676
-1.65546
-1.8877
-2.14827
-2.35499
-2.52387
-2.62897
-2.70931
-2.75136
-2.78006
-2.7299
-2.67637
-2.62409
-2.57234
-2.52521
-2.46243
-2.40931
-2.33563
-2.23563
-2.10672
-1.96321
-1.79705
-1.65696
-1.51901
-1.37994
-1.24138
-1.10701
-0.965633
-0.838468
-0.718679
-0.615361
-0.514729
-0.42073
-0.33004
-0.24886
-0.17013
-0.101255
-0.0402299
0.0148131
0.0692425
0.119359
0.167037
0.204031
0.228546
0.240558
0.246719
0.245262
0.235805
0.215431
0.184904
0.144
0.0877288
0.0389865
2.23444
2.33819
2.49249
2.46941
2.49884
2.50943
2.52691
2.63915
2.30049
2.04492
1.8844
1.48927
1.04411
0.373308
-0.253311
-0.887763
-1.68121
-2.28183
-2.53368
-2.46321
-2.13765
-1.80659
-1.56535
-1.2468
-1.17303
-1.09576
-0.685269
-0.338121
-0.142763
-0.0610295
0.0402817
0.301466
0.605469
0.836082
1.00458
1.13435
1.11054
0.963313
0.757235
0.52451
0.288532
0.0443791
-0.223922
-0.482927
-0.735319
-0.979867
-1.20684
-1.41405
-1.66951
-1.89889
-2.16385
-2.37043
-2.53565
-2.62873
-2.70426
-2.73761
-2.75647
-2.70522
-2.65331
-2.5915
-2.5318
-2.4815
-2.4214
-2.37264
-2.29626
-2.20058
-2.07179
-1.92659
-1.76379
-1.63051
-1.49523
-1.35671
-1.2189
-1.0805
-0.936087
-0.80866
-0.69023
-0.58988
-0.492144
-0.401567
-0.313922
-0.235713
-0.159491
-0.0929996
-0.0331687
0.0205792
0.0734285
0.122499
0.168478
0.20291
0.224878
0.235178
0.240816
0.239001
0.229327
0.20927
0.179494
0.139471
0.0840601
0.0381502
2.2291
2.33498
2.49129
2.47231
2.51444
2.52031
2.53768
2.62142
2.25964
2.02395
1.85667
1.4725
1.02844
0.349309
-0.282892
-0.918257
-1.72922
-2.31975
-2.57081
-2.48285
-2.12947
-1.80754
-1.57253
-1.25579
-1.22501
-1.15383
-0.758313
-0.396927
-0.197978
-0.124853
-0.0268362
0.230786
0.532242
0.771289
0.945316
1.06694
1.03099
0.871583
0.663216
0.434845
0.201888
-0.0362038
-0.299541
-0.54416
-0.790087
-1.02722
-1.24315
-1.43683
-1.67825
-1.90571
-2.17684
-2.38556
-2.55084
-2.62706
-2.70139
-2.72377
-2.7315
-2.68298
-2.62958
-2.55785
-2.49147
-2.43796
-2.3817
-2.33545
-2.25668
-2.16557
-2.03754
-1.89234
-1.73528
-1.60754
-1.4739
-1.33519
-1.19737
-1.0538
-0.906913
-0.779708
-0.663088
-0.565625
-0.470436
-0.382984
-0.298148
-0.222493
-0.148907
-0.084414
-0.0256143
0.0269748
0.0785134
0.126494
0.170415
0.201821
0.221226
0.229984
0.23497
0.232683
0.222874
0.203246
0.174133
0.134852
0.0803959
0.0370949
2.2239
2.33239
2.48975
2.47499
2.52941
2.5316
2.5465
2.59579
2.2154
2.00046
1.82942
1.45339
1.00909
0.323292
-0.313442
-0.951342
-1.78103
-2.35704
-2.60311
-2.50283
-2.12193
-1.8083
-1.57323
-1.26938
-1.27485
-1.21558
-0.833992
-0.460563
-0.254419
-0.189848
-0.0967785
0.155883
0.456397
0.706905
0.886742
1.00019
0.94947
0.777887
0.566403
0.343325
0.113696
-0.119587
-0.377666
-0.6078
-0.847341
-1.07666
-1.28063
-1.46059
-1.68626
-1.91131
-2.19044
-2.40444
-2.56617
-2.63004
-2.69773
-2.70916
-2.70799
-2.66027
-2.59873
-2.52357
-2.4516
-2.39329
-2.33895
-2.29309
-2.21377
-2.12697
-2.00049
-1.85715
-1.70788
-1.58341
-1.45039
-1.31198
-1.17339
-1.02408
-0.875832
-0.749816
-0.635573
-0.540602
-0.447645
-0.363091
-0.280808
-0.207618
-0.136605
-0.0739258
-0.0162139
0.0352943
0.0854941
0.132113
0.173368
0.201101
0.217539
0.224829
0.229028
0.22623
0.216412
0.19725
0.168637
0.129946
0.0767003
0.0357153
2.21848
2.32938
2.48726
2.47761
2.5428
2.54158
2.55252
2.56635
2.1713
1.97642
1.80494
1.43633
0.990224
0.297709
-0.342875
-0.986781
-1.83636
-2.39373
-2.63159
-2.5232
-2.12124
-1.81212
-1.56163
-1.28069
-1.32196
-1.27631
-0.910997
-0.524416
-0.307776
-0.252708
-0.165915
0.080918
0.384635
0.648121
0.834604
0.938276
0.870492
0.687479
0.472619
0.255486
0.0313823
-0.198493
-0.450919
-0.667572
-0.900838
-1.12217
-1.31437
-1.48488
-1.69499
-1.91737
-2.20655
-2.42678
-2.58121
-2.63584
-2.69092
-2.69616
-2.68972
-2.63943
-2.56692
-2.49176
-2.41435
-2.35071
-2.2966
-2.24856
-2.17177
-2.08933
-1.96602
-1.82618
-1.68417
-1.56112
-1.4282
-1.29013
-1.14979
-0.995162
-0.846677
-0.72273
-0.610782
-0.517331
-0.425906
-0.343644
-0.26356
-0.192591
-0.123655
-0.0626657
-0.00598159
0.0445768
0.0935848
0.138592
0.176674
0.20027
0.213367
0.219228
0.222705
0.219515
0.209808
0.191014
0.162686
0.124485
0.0728011
0.0340073
2.21304
2.32653
2.48416
2.47991
2.55486
2.55
2.55302
2.52914
2.12285
1.94432
1.7784
1.41572
0.967545
0.271279
-0.374365
-1.02577
-1.89531
-2.43153
-2.65744
-2.54081
-2.1238
-1.81079
-1.53748
-1.29323
-1.36983
-1.34159
-0.99003
-0.589914
-0.361029
-0.314397
-0.236343
0.00391093
0.315789
0.588937
0.781886
0.873172
0.786391
0.593759
0.3756
0.163552
-0.0508909
-0.277468
-0.524532
-0.729375
-0.956111
-1.16883
-1.34816
-1.51325
-1.70821
-1.93044
-2.22535
-2.45079
-2.59607
-2.63851
-2.6803
-2.68506
-2.67631
-2.61882
-2.53691
-2.46211
-2.37677
-2.30746
-2.25181
-2.19894
-2.12749
-2.04906
-1.92937
-1.79357
-1.65852
-1.53655
-1.40423
-1.26564
-1.12242
-0.964323
-0.81745
-0.696694
-0.586389
-0.493775
-0.403257
-0.322641
-0.244614
-0.175646
-0.108427
-0.0489219
0.00675991
0.05633
0.103907
0.146436
0.180397
0.199164
0.208496
0.212858
0.215742
0.212395
0.202907
0.184368
0.156206
0.118572
0.0688603
0.032241
2.20735
2.32333
2.4809
2.48237
2.56478
2.55567
2.54764
2.48679
2.0751
1.91203
1.75233
1.39506
0.94554
0.246418
-0.404882
-1.06685
-1.95744
-2.47266
-2.68304
-2.55584
-2.12769
-1.80107
-1.51604
-1.31548
-1.41873
-1.4073
-1.06541
-0.656233
-0.416091
-0.372576
-0.303918
-0.0722492
0.254737
0.535777
0.733669
0.80974
0.704266
0.504115
0.283644
0.075781
-0.128389
-0.350149
-0.591533
-0.787594
-1.00754
-1.21123
-1.37873
-1.53522
-1.72119
-1.94609
-2.2445
-2.47205
-2.60818
-2.6369
-2.67058
-2.67968
-2.66796
-2.60223
-2.51388
-2.4374
-2.34375
-2.26927
-2.20873
-2.14902
-2.08497
-2.00941
-1.89291
-1.76189
-1.63406
-1.51307
-1.38165
-1.24153
-1.09479
-0.935401
-0.791633
-0.673677
-0.563924
-0.471991
-0.381815
-0.302008
-0.225634
-0.158416
-0.0926251
-0.0341712
0.020668
0.0692864
0.115256
0.154299
0.183268
0.196844
0.202524
0.205466
0.207958
0.204696
0.195446
0.177018
0.148995
0.112147
0.0647174
0.0304185
2.20225
2.32029
2.47703
2.48395
2.5725
2.5588
2.53598
2.43776
2.02429
1.87789
1.72362
1.36959
0.918824
0.220765
-0.436992
-1.11139
-2.02308
-2.51418
-2.70254
-2.56358
-2.13616
-1.78106
-1.50201
-1.35097
-1.47187
-1.47299
-1.13832
-0.728865
-0.481006
-0.42943
-0.368443
-0.15091
0.195436
0.483502
0.682814
0.742966
0.61915
0.411452
0.190968
-0.0133908
-0.209311
-0.422604
-0.65817
-0.84883
-1.06107
-1.25507
-1.41058
-1.55738
-1.73711
-1.96395
-2.26457
-2.49075
-2.61785
-2.63544
-2.66562
-2.68139
-2.66394
-2.58865
-2.49622
-2.41514
-2.31494
-2.2351
-2.16576
-2.09797
-2.03952
-1.96594
-1.85196
-1.72611
-1.60626
-1.48719
-1.35628
-1.2141
-1.06378
-0.905616
-0.767091
-0.650495
-0.540942
-0.45003
-0.360483
-0.280508
-0.205184
-0.13951
-0.0748288
-0.0169314
0.0372108
0.0846633
0.128151
0.162187
0.184956
0.193042
0.195469
0.197297
0.199669
0.196703
0.187674
0.169255
0.14147
0.105655
0.0606806
0.0284473
2.19737
2.31682
2.47219
2.48451
2.57745
2.5594
2.51965
2.38697
1.97616
1.84607
1.69551
1.34608
0.892226
0.195761
-0.467391
-1.15851
-2.08978
-2.55326
-2.71545
-2.5678
-2.15098
-1.77856
-1.50412
-1.39388
-1.52223
-1.52623
-1.20456
-0.808589
-0.553178
-0.483368
-0.42683
-0.226864
0.139641
0.436331
0.635618
0.679495
0.536097
0.320377
0.103822
-0.0981967
-0.286809
-0.48978
-0.718612
-0.905845
-1.11064
-1.295
-1.43735
-1.57654
-1.75177
-1.98149
-2.28561
-2.50767
-2.62648
-2.63925
-2.66879
-2.69074
-2.66508
-2.57972
-2.48448
-2.39748
-2.29465