/*--------------------------------*- C++ -*----------------------------------*\
| =========                 |                                                 |
| \\      /  F ield         | OpenFOAM: The Open Source CFD Toolbox           |
|  \\    /   O peration     | Version:  4.1                                   |
|   \\  /    A nd           | Web:      www.OpenFOAM.org                      |
|    \\/     M anipulation  |                                                 |
\*---------------------------------------------------------------------------*/
FoamFile
{
    version     2.0;
    format      ascii;
    class       surfaceScalarField;
    location    "10";
    object      phi;
}
// * * * * * * * * * * * * * * * * * * * * * * * * * * * * * * * * * * * * * //

dimensions      [0 3 -1 0 0 0 0];

internalField   nonuniform List<scalar> 
52920
(
1710.47
-78.5166
1782.22
-74.9287
1856.82
-72.7046
1922.39
-68.1476
1990.22
-61.2603
2048.4
-59.94
2106.32
-59.5069
2180.34
-68.1109
2258.5
-77.2198
2343.6
-82.7412
2433.03
-86.8284
2519.01
-89.3577
2604.6
-90.1284
2699.19
-89.4746
2791.29
-88.2988
2878.55
-86.3686
2967.53
-82.7221
3043.31
-76.8224
3118.23
-70.1791
3183.39
-64.9145
3248.37
-61.8041
3313.3
-60.5292
3377.55
-57.6814
3434.79
-52.4086
3494.73
-50.878
3553.13
-55.8017
3624.53
-65.4111
3703.7
-76.2635
3790.27
-83.3129
3878.44
-84.9998
3966.62
-86.3768
4062.05
-91.3037
4159.53
-96.3985
4259.55
-98.8005
4361.43
-103.784
4476.65
-114.264
4599.33
-124.571
4728.2
-129.609
4854.86
-129.236
4979.82
-125.75
5099.21
-121.572
5215.77
-117.753
5328.36
-114.675
5438.88
-112.252
5546.22
-110.123
5651.28
-107.701
5753.29
-104.188
5852.35
-99.7802
5943.11
-94.3596
6032.5
-88.8564
6111.39
-82.7139
6190.08
-77.4491
6258.58
-72.1221
6328.32
-67.9186
6389.52
-63.6706
6452.66
-60.5162
6507.93
-57.3721
6565.77
-55.3323
6617.97
-53.4138
6673.02
-52.3755
6723.47
-51.1783
6776.25
-50.3888
6825.65
-49.3826
6876.83
-48.8456
6925.88
-48.5674
6976.92
-49.004
7027.65
-49.8029
7080.46
-50.9448
7133.87
-52.2274
7189.23
-53.7792
7246.43
-55.7241
7305.94
-58.1869
7368.91
-61.2189
7434.56
-64.5417
7504.47
-68.0399
7576.72
-71.3793
7653.17
-74.5182
7731.16
-77.2974
7812.86
-79.8182
7895.39
-82.04
7981.3
-84.0609
8067.51
-85.8408
8156.65
-87.429
8245.7
-88.8144
8337.32
-90.0168
8428.55
-91.0729
8521.95
-91.9805
8614.78
-92.7703
8709.46
-93.4152
8803.41
-93.9526
8898.82
-94.3536
8993.42
-94.6824
9089.24
-94.9155
9184.27
-95.1662
9280.4
-95.3819
9375.72
-95.5439
9472.23
-95.9087
9566.92
-94.9366
9665.08
-97.699
-88.3567
1841.17
-165.614
1923.92
-159.963
2009.93
-156.395
2084.47
-145.832
2163.47
-133.662
2230.85
-130.333
2299.36
-129.857
2388.66
-151.23
2481.83
-170.488
2581.99
-181.703
2685.39
-188.376
2783.59
-192.499
2880.92
-192.916
2990.01
-192.707
3097.55
-190.98
3200.94
-187.922
3307.43
-182.094
3400.62
-170.533
3494.05
-158.364
3578.17
-148.274
3663.21
-142.761
3748.68
-139.352
3834.15
-133.987
3913.23
-124.054
3995.77
-122.206
4076.45
-132.087
4168.9
-150.779
4266.89
-170.509
4369.36
-181.877
4470.31
-182.592
4568.46
-182.634
4671.16
-189.862
4773.4
-198.2
4875.23
-201.907
4976.23
-210.319
5088.14
-229.366
5205.81
-247.79
5328.41
-256.251
5448.26
-254.739
5566.34
-247.938
5679.42
-240.064
5790.51
-233.254
5898.79
-227.994
6006.38
-224.361
6112.45
-221.432
6218.1
-218.101
6322.59
-212.941
6425.87
-205.551
6522.95
-196.6
6620.2
-186.947
6708.75
-176.308
6798.14
-166.676
6878.65
-157.136
6960.92
-149.092
7035.39
-141.166
7111.76
-134.625
7180.38
-128.312
7250.93
-123.395
7315.32
-118.87
7381.42
-115.479
7441.92
-111.909
7503.22
-108.632
7559.61
-104.977
7615.78
-101.744
7667.67
-98.911
7718.97
-97.0554
7767.2
-95.7894
7814.49
-94.9647
7859.24
-94.3852
7902.65
-94.1904
7944.45
-94.6874
7985.07
-96.133
8025.53
-98.5945
8065.12
-101.743
8105.47
-105.282
8144.96
-108.822
8185.66
-112.162
8225.25
-115.183
8266.16
-117.903
8305.85
-120.397
8347.11
-122.677
8387.13
-124.814
8428.81
-126.753
8469.34
-128.583
8511.67
-130.221
8552.98
-131.809
8596.08
-133.246
8638.32
-134.649
8682.37
-135.899
8725.73
-137.118
8770.79
-138.209
8815.38
-139.317
8861.72
-140.39
8907.89
-141.602
8955.97
-142.853
9004.16
-144.128
9054.39
-145.681
9105.28
-146.197
9155.12
-147.174
-139.65
1996.04
-263.655
2089.99
-257.286
2187.73
-252.52
2276.03
-236.655
2369.55
-220.408
2454.25
-216.374
2540.61
-217.8
2645.39
-250.562
2752.25
-276.151
2863.34
-290.123
2975.77
-298.149
3082.96
-301.925
3189.41
-302.745
3306.95
-305.454
3423.86
-304.461
3537.32
-300.618
3653.06
-292.103
3756.06
-274.519
3858
-256.007
3949.99
-240.32
4040.61
-230.902
4128.93
-224.722
4213.99
-214.017
4288.89
-195.753
4361.54
-187.356
4426.04
-195.045
4494.29
-213.961
4560.78
-234.764
4625.28
-243.615
4682.58
-237.054
4731.69
-230.19
4780.12
-234.182
4823.18
-239.915
4861.18
-237.419
4895.13
-244.479
4939.06
-270.116
4989.39
-298.15
5046.46
-312.226
5103.75
-313.082
5163.41
-306.758
5223.05
-300.521
5286.38
-296.374
5353
-295.527
5425.53
-297.479
5503.48
-301.303
5588.03
-304.407
5678.14
-304.474
5773.34
-300.636
5868.16
-294.694
5968.45
-285.839
6064.01
-275.564
6163.58
-264.189
6256.1
-253.235
6351.83
-242.286
6440.1
-231.88
6530.2
-221.474
6611.27
-211.563
6692.67
-201.811
6765.36
-192.892
6837.2
-184.3
6900.2
-175.836
6960.89
-166.714
7012.89
-157.177
7060.79
-147.2
7099.74
-137.625
7133.25
-128.543
7158.25
-120.122
7176.82
-111.761
7187.15
-103.738
7190.51
-96.0814
7186.64
-89.4476
7176.02
-84.2904
7159.94
-80.7179
7137.78
-78.5924
7111.82
-77.2854
7080.6
-76.8559
7047.15
-76.452
7009.18
-76.6328
6970.19
-76.5771
6927.45
-77.2704
6884.91
-77.7082
6839.41
-79.0342
6795.05
-80.0142
6748.55
-81.9495
6704.12
-83.4481
6658.36
-85.9844
6615.35
-88.0725
6571.82
-91.1564
6531.65
-93.7442
6491.72
-97.2803
6455.59
-100.371
6420.5
-104.405
6389.79
-108.173
6361.03
-113.079
6337.3
-117.84
6316.34
-123.549
6300.46
-128.737
6289.97
-136.119
6279.78
-136.21
-138.888
2151.43
-365.431
2254.98
-362.356
2362.02
-357.668
2460.12
-337.495
2562.12
-316.789
2654.82
-311.578
2746.41
-310.544
2852.34
-351.081
2957.67
-381.708
3064.98
-396.545
3172.6
-404.639
3274.94
-408.75
3375.99
-408.843
3486.39
-411.109
3594.39
-408.518
3696.67
-401.53
3798.4
-387.489
3885.23
-361.93
3967.96
-333.589
4037.2
-308.487
4100.63
-289.466
4157.09
-273.385
4204.63
-250.387
4233.64
-215.418
4250.64
-190.616
4249
-186.984
4241.65
-197.339
4224.05
-211.186
4198.14
-211.464
4159.15
-193.028
4105.71
-174.064
4046.75
-168.98
3976.8
-168.883
3896.65
-159.523
3810.27
-167.525
3739.27
-204.821
3681.35
-249.486
3638.34
-276.256
3603.62
-288.1
3581.69
-292.332
3570.66
-298.996
3575.59
-309.139
3595.69
-324.251
3633.68
-343.155
3688.05
-364.195
3759.06
-383.03
3844.28
-396.248
3941.69
-402.126
4043.75
-404.505
4157.07
-400.729
4268.52
-394.396
4388.17
-383.897
4502.01
-373.482
4622.12
-361.08
4735.34
-349.302
4852.6
-335.761
4960.55
-322.608
5070.04
-307.925
5169.95
-294.088
5269.34
-279.561
5358.46
-265.012
5444.82
-248.719
5520.51
-231.465
5590.76
-212.717
5649.51
-193.874
5700.7
-174.889
5740.27
-156.138
5770.42
-136.941
5788.61
-117.862
5796.17
-98.9846
5792.71
-81.5209
5778.83
-66.1728
5756.14
-53.165
5723.85
-42.4217
5684.87
-33.3306
5637.4
-25.9669
5585.36
-19.4814
5525.94
-14.3122
5463.74
-9.7448
5395.42
-6.63064
5326.24
-4.15882
5252.26
-3.21871
5178.98
-2.79479
5102.26
-3.8725
5027.77
-5.35306
4951.17
-8.37217
4878.03
-11.7836
4804.13
-16.5775
4734.82
-21.675
4665.96
-28.0287
4602.43
-34.6772
4540.53
-42.5779
4484.8
-50.9544
4431.97
-60.7898
4386.3
-71.196
4344.71
-82.776
4310.6
-93.9102
4281.96
-108.207
4262
-115.766
-124.755
2281.98
-472.741
2387.96
-471.37
2494.61
-462.907
2590.38
-435.517
2686.67
-406.809
2770.64
-396.239
2848.81
-389.855
2936.98
-434.343
3021.67
-465.15
3106.58
-478.817
3191.09
-486.695
3269.72
-489.447
3345.46
-487.897
3428.03
-488.892
3505.15
-482.188
3573.82
-469.48
3640.71
-448.161
3692.36
-414.782
3740.41
-376.782
3774.22
-342.399
3801.36
-313.668
3820.33
-288.78
3827.91
-251.694
3809.95
-193.425
3773.19
-143.41
3710.45
-121.987
3638.58
-117.651
3553.32
-121.898
3458.82
-112.111
3348.92
-77.902
3221.02
-43.2724
3089.29
-29.6669
2946.78
-24.0455
2793.76
-2.20943
2637.34
-11.3805
2512.34
-73.6104
2413.55
-150.305
2340.9
-201.2
2283.84
-232.326
2248.89
-255.529
2232.8
-283.791
2240.97
-316.504
2269.95
-354.267
2320.9
-394.69
2389.53
-435.547
2475.04
-470.972
2573.63
-496.269
2681.93
-509.841
2790.51
-517.488
2908.64
-516.419
3020.96
-511.784
3141.44
-501.049
3253.45
-490.353
3372.91
-476.597
3484.33
-463.924
3602.01
-448.583
3710.28
-433.746
3822.99
-416.293
3926.98
-399.805
4033.36
-381.654
4130.39
-363.253
4227.26
-341.968
4314.76
-319.251
4399.28
-293.92
4473.62
-267.958
4542.5
-241.133
4601.01
-213.893
4651.57
-185.288
4691.36
-156.569
4721.89
-127.774
4742.24
-100.302
4752.73
-75.2658
4754.93
-53.241
4747.79
-34.2024
4734.56
-17.6855
4713.1
-3.73594
4687.46
8.86984
4653.97
19.7772
4617.34
29.7246
4573.5
37.6147
4528.1
44.2654
4476.49
48.7042
4424.64
52.0735
4367.61
53.3466
4311.51
53.7902
4251.2
52.0787
4192.83
49.4531
4131.56
44.7167
4073.46
39.1362
4013.84
31.5655
3958.27
23.2532
3902.54
13.0199
3851.83
1.81491
3802.49
-11.6625
3759.47
-26.4029
3719.39
-43.1009
3686.54
-59.597
3657.27
-79.3783
3637.56
-95.1255
-110.3
2355.56
-565.631
2448.64
-565.524
2540.63
-553.132
2620.83
-518.353
2699.01
-479.156
2761.52
-460.602
2812.66
-441.174
2869.02
-484.856
2917.41
-513.698
2962.75
-523.1
3005.66
-529.057
3040.77
-529.563
3071.15
-524.521
3108.04
-521.606
3140.02
-510.753
3166.3
-495.178
3197.06
-472.093
3219.64
-438.692
3247.73
-398.617
3268.38
-361.428
3288.77
-326.719
3306.18
-294.367
3314.96
-242.884
3294.41
-157.498
3253.33
-79.9654
3186.13
-43.133
3115.1
-30.6386
3034.43
-29.433
2948.23
-13.4492
2847.02
32.8176
2727.02
81.4996
2608.71
99.1403
2481.66
105.312
2340.28
135.417
2191.79
121.424
2079.11
29.4779
1991.46
-77.3024
1926.79
-148.256
1875.58
-196.563
1848.05
-240.481
1841.14
-291.827
1859.47
-347.294
1897.39
-405.454
1954.96
-464.165
2027
-520.417
2112.42
-567.453
2206.96
-600.104
2307.28
-616.409
2403.73
-624.622
2507.19
-622.686
2601.2
-615.965
2702.1
-602.674
2792.24
-589.226
2890.23
-573.319
2979.33
-558.698
3076.12
-541.734
3163.43
-525.131
3257.21
-505.758
3343.03
-487.195
3433.88
-467.067
3516.95
-446.148
3602.65
-421.802
3680.6
-395.028
3757.97
-364.823
3826.89
-333.168
3892.96
-300.489
3950.88
-266.701
4003.32
-230.896
4046.97
-194.549
4083.18
-157.62
4110.83
-121.891
4130.3
-88.9766
4143.14
-59.5887
4147.63
-33.4216
4146.87
-10.3966
4138.49
9.29226
4126.77
26.9537
4107.62
42.8786
4085.72
57.5127
4056.49
69.9952
4025.47
80.754
3987.57
89.089
3948.89
95.6304
3904.32
99.7237
3860.29
102.228
3811.3
102.387
3763.68
100.915
3712.12
97.1417
3662.66
91.9664
3610.1
84.6422
3560.31
75.7441
3508.93
64.3898
3461.54
51.0058
3414.42
34.7178
3372.93
16.1635
3333.66
-4.94311
3301.29
-26.4465
3272.05
-51.1172
3251.24
-73.8613
-95.0004
2329.55
-645.434
2407.31
-646.026
2482.47
-626.988
2543.65
-581.839
2598.89
-527.378
2632.89
-495.316
2647.14
-457.11
2659.87
-492.089
2657.31
-509.697
2645.83
-508.186
2628.06
-508.016
2600.06
-503.989
2568.29
-496.808
2549.71
-496.137
2534.95
-490.97
2525.8
-484.751
2535.65
-473.113
2550.25
-454.64
2584.37
-426.168
2621.36
-398.627
2667.49
-369.186
2716.42
-338.684
2756.23
-274.756
2762.23
-158.954
2748.01
-52.7689
2709.2
-2.90163
2671.85
14.9448
2629.21
16.7047
2582.52
38.4825
2517.29
103.549
2427.94
173.883
2336.67
199.522
2228.86
216.295
2091.21
280.271
1933.99
281.191
1810.22
163.995
1709.99
26.8187
1634.79
-67.2873
1580.34
-140.494
1558.05
-213.453
1561.95
-294.032
1592.9
-374.904
1642.35
-453.741
1709.03
-529.473
1787.42
-599.997
1876.61
-657.452
1972.23
-695.73
2070.9
-713.42
2163.18
-720.735
2260.49
-716.468
2346.07
-706.487
2437.13
-689.316
2515.4
-672.446
2600.85
-653.739
2676.24
-637.316
2759.55
-619.06
2832.85
-601.452
2913.32
-580.957
2985.7
-561.442
3064.17
-540.439
3135.32
-518.677
3210.57
-492.816
3278.95
-463.806
3348.19
-430.271
3409.76
-394.579
3469.8
-357.63
3522.98
-319.267
3572.32
-277.991
3614.34
-235.677
3650.24
-191.877
3678.55
-148.801
3699.76
-108.995
3715.9
-73.7155
3724.99
-41.7091
3729.69
-12.8015
3727.11
12.3398
3721.59
35.0889
3708.78
55.9944
3693.62
75.4463
3671.37
92.4044
3647.79
107.368
3617.34
119.667
3585.97
130.073
3548.03
137.71
3510.17
143.261
3466.79
145.816
3424.71
146.057
3378.62
143.216
3335.01
138.57
3288.11
131.525
3243.65
122.922
3196.61
111.332
3152.95
97.0697
3108.83
78.7011
3070.09
56.9963
3033.15
31.6311
3003.05
5.38077
2975.82
-24.311
2956.4
-53.4107
-80.7319
2241.39
-702.309
2296.87
-702.601
2345.82
-674.226
2376.92
-615.908
2398.11
-541.263
2393.34
-491.608
2361.03
-423.926
2321.86
-445.335
2258.97
-446.586
2179.32
-426.455
2088.74
-416.794
1987.15
-410.027
1889.54
-409.243
1823.23
-424.59
1778.5
-442.483
1755.51
-462.112
1767.16
-476.299
1793.58
-483.924
1848.9
-473.716
1910.27
-457.948
1984.96
-433.486
2067.64
-404.354
2147.49
-330.508
2194.48
-185.395
2216.9
-45.9977
2212.46
17.2661
2212.84
34.6587
2205.01
41.4359
2188.2
73.0734
2148.06
156.953
2074.95
252.997
1992.96
293.719
1890.38
321.525
1745.15
421.138
1570.3
437.926
1436.14
287.725
1333.92
112.612
1267.45
-14.4866
1233.05
-123.736
1237.38
-232.386
1268.18
-341.846
1322.23
-443.216
1389.17
-535.726
1467.77
-621.756
1553.75
-700.522
1647.59
-763.796
1745.56
-804.084
1844.49
-819.999
1935.35
-823.756
2030.09
-815.059
2111.67
-799.785
2197.67
-776.814
2269.28
-754.166
2347.45
-730.99
2414.58
-711.057
2489.67
-690.378
2554.33
-670.823
2626.65
-648.562
2690.55
-627.099
2760.91
-604.613
2823.97
-581.353
2892.1
-554.072
2953.97
-522.885
3017.9
-486.453
3074.64
-446.604
3130.4
-405.17
3179.81
-362.226
3226.53
-316.336
3267.18
-269.303
3302.85
-219.774
3331.55
-170.11
3353.38
-123.789
3370.78
-83.2449
3382.17
-46.6183
3390.17
-12.9341
3391.31
16.9474
3390.02
43.9614
3381.68
69.2166
3371.16
92.8968
3353.42
114.035
3334.64
132.513
3309.5
147.853
3284.18
161.01
3252.34
171.757
3220.4
180.171
3182.57
185.199
3145.88
187.023
3104.74
185.333
3066
181.01
3024.35
173.71
2985.8
164.501
2944.35
152.793
2905.67
137.823
2865.73
117.78
2830.83
93.088
2797.33
63.8581
2770.54
33.0324
2746.38
-1.26428
2729.44
-36.0159
-68.8514
2081.48
-730.01
2096.03
-719.984
2101.16
-677.504
2089.84
-607.506
2072.84
-514.839
2033.46
-453.135
1962.92
-356.402
1882.51
-356.851
1767.36
-329.533
1625.62
-278.901
1470.92
-256.034
1311.84
-256.093
1178.24
-282.829
1108.2
-342.388
1079.73
-405.358
1079.99
-459.754
1116.13
-498.831
1161.22
-530.449
1233.57
-536.455
1308.55
-532.81
1397.02
-516.733
1501.25
-501.733
1615.49
-434.38
1699.49
-264.388
1754.02
-85.7716
1772.45
-0.98089
1795.92
19.7726
1813.61
26.2964
1821.9
69.8468
1802.93
182.217
1743.34
316.009
1664.67
382.321
1558.38
431.79
1401.57
589.925
1215.89
630.386
1087.74
432.2
1004.94
203.267
968.674
31.0918
969.24
-119.651
1005.6
-261.217
1060.82
-392.848
1131.06
-507.704
1206.91
-608.277
1288.93
-700.551
1374.71
-785.893
1466.55
-854.95
1561.8
-897.593
1657.43
-912.735
1744.48
-913.676
1835.21
-901.097
1912.25
-881.236
1993.49
-852.528
2059.2
-824.501
2131.13
-796.838
2191.31
-774.184
2259.63
-751.742
2317.12
-731.239
2382.94
-708.337
2440.41
-686.433
2504.71
-663.201
2561.3
-639.422
2623.55
-611.647
2679.97
-579.829
2739.48
-541.859
2792.43
-499.552
2845.04
-454.775
2891.22
-408.031
2934.91
-357.86
2973.44
-307.249
3008.19
-253.094
3036.76
-197.567
3058.85
-144.991
3076.74
-99.348
3089.21
-58.6587
3099.4
-21.0563
3103.41
12.9988
3105.57
44.2018
3100.97
73.7493
3094.59
101.891
3081.07
127.378
3066.54
149.995
3045.44
168.827
3024.85
184.65
2998.45
198.003
2972.2
209.61
2939.69
217.615
2908.2
221.639
2871.99
221.421
2838.01
218.07
2800.52
211.141
2766.48
201.479
2730.03
189.161
2696.39
174.201
2660.82
153.322
2629.96
126.369
2600.11
93.4162
2576.93
58.18
2556.13
19.161
2542.15
-20.8958
-59.6255
1811.34
-683.237
1758.94
-669.39
1713.4
-630.247
1667.75
-566.065
1633.1
-469.094
1587.94
-407.955
1507.1
-273.504
1412.19
-247.808
1268.44
-184.864
1092.33
-97.2116
917.613
-78.2025
764.68
-119.473
669.984
-206.624
662.997
-326.793
691.923
-428.984
731.072
-499.977
789.018
-545.694
838.465
-584.62
908.337
-596.433
974.883
-596.449
1053.82
-580.944
1149.55
-572.623
1262.3
-513.617
1349.35
-324.471
1410.3
-109.17
1431.33
-1.23878
1459.74
16.6644
1490.62
20.1372
1516.45
69.5806
1511.76
206.123
1459.33
376.508
1382.21
472.802
1267.51
547.123
1097.03
754.533
916.046
792.449
813.157
524.768
766.231
232.282
768.979
12.9031
803.51
-173.698
863.711
-337.925
932.469
-480.507
1007.95
-599.184
1083.1
-700.286
1160.67
-793.709
1240.23
-881.942
1325.57
-954.19
1414.75
-998.277
1504.8
-1011.73
1586.66
-1009.01
1672.38
-991.684
1744.31
-966.273
1820.63
-931.15
1880.88
-896.082
1947.03
-862.513
2000.82
-835.441
2062.96
-810.129
2113.92
-787.518
2173.67
-763.154
2225.37
-740.087
2284.58
-715.683
2335.74
-690.025
2392.66
-660.86
2443.94
-627.802
2499.23
-588.304
2548.55
-543.242
2598.36
-494.987
2641.84
-443.746
2682.54
-388.713
2718.56
-334.958
2751.92
-277.34
2780
-216.983
2802.05
-158.8
2820.12
-108.217
2833.05
-63.9364
2844.63
-23.4513
2850.77
13.6935
2855.77
47.979
2854.4
80.9271
2851.7
112.536
2842.06
141.637
2831.73
167.547
2814.61
189.561
2797.89
207.694
2775.85
222.678
2754.67
236.315
2727.11
246.994
2700.43
252.989
2668.8
254.141
2639.32
251.523
2606.03
244.944
2575.76
234.891
2543.25
221.561
2514.09
205.609
2482.85
183.618
2456.14
154.453
2430.21
118.001
2410.97
78.4551
2393.97
35.0262
2383.45
-9.87026
-53.9029
1378.18
-573.972
1282.15
-576.784
1216.15
-561.29
1168.03
-522.362
1149.51
-434.753
1133.53
-393.795
1069.3
-216.321
991.466
-152.284
854.655
-42.3396
693.502
77.7817
569.677
59.2288
490.913
-48.8164
472.553
-197.502
526.534
-363.4
587.654
-478.156
635.539
-543.693
689.069
-581.621
724.093
-620.825
776.004
-636.792
821.408
-641.957
879.955
-633.163
955.695
-639.053
1050.57
-594.834
1120.96
-389.478
1171.86
-143.972
1180.71
-12.6801
1200.3
5.01872
1234.71
-12.6651
1270.89
37.379
1273.13
210.388
1220.79
432.033
1139.14
564.352
1010.79
680.656
832.39
952.673
677.339
959.943
614.924
608.704
608.39
250.82
645.244
-11.2242
702.993
-223.629
775.324
-399.971
847.764
-546.06
921.235
-664.37
990.699
-764.058
1060.48
-858.131
1131.62
-950.706
1209.17
-1028.95
1291.61
-1077.07
1375.61
-1091.54
1452.08
-1087.13
1532.72
-1066.38
1599.46
-1036.64
1670.93
-995.924
1726.14
-955.354
1787.23
-916.424
1835.27
-885.977
1891.86
-858.768
1937
-835.329
1991.32
-810.669
2037.74
-788.246
2092.61
-764.266
2139.46
-738.378
2192.08
-708.399
2238.88
-675.214
2290.43
-635.48
2336.52
-589.462
2383.86
-539.247
2425.2
-484.95
2463.24
-424.727
2496.37
-367.826
2527.69
-307.481
2554.64
-243.126
2576.06
-179.7
2593.86
-124.478
2606.66
-76.7475
2618.81
-33.7891
2626.33
5.75445
2633.61
42.8454
2634.96
79.0653
2635.56
114.335
2629.43
147.215
2622.96
176.825
2609.77
202.32
2596.86
223.581
2578.39
240.764
2561.39
256.507
2538.17
269.948
2515.8
278.527
2488.27
281.443
2462.86
280.092
2433.46
274.219
2406.98
264.423
2378.09
250.424
2353
233.759
2326.31
210.415
2304.33
179.148
2283.11
139.035
2268.72
95.04
2256.49
46.9507
2250.4
-2.58489
-51.8706
928.65
-431.78
809.813
-461.585
742.55
-492.264
708.606
-495.382
721.066
-427.036
748.929
-420.715
711.358
-176.713
673.51
-85.5233
575.162
59.7047
472.885
192.076
427.464
110.949
411.508
-55.7336
432.138
-240.593
504.096
-425.592
565.687
-533.664
604.357
-583.205
646.229
-611.349
666.823
-646.703
701.749
-660.493
726.516
-662.513
764.523
-652.449
822.819
-664.218
902.494
-629.596
956.106
-410.08
996.035
-138.819
990.113
17.4739
996.924
27.6691
1031.26
-14.0814
1073.87
28.8091
1078.49
231.832
1023.81
497.079
939.938
662.149
803.846
815.084
628.86
1121
510.458
1062.4
487.242
622.807
512.881
207.696
572.357
-86.0152
642.272
-312.813
718.165
-492.445
788.741
-635.655
857.134
-748.983
919.574
-843.761
980.978
-935.771
1043.38
-1030.28
1112.99
-1113.03
1188.61
-1164.6
1266.37
-1179.35
1337.26
-1172.55
1412.69
-1147.68
1474.17
-1112.42
1540.59
-1065.45
1590.84
-1017.99
1647.16
-972.725
1689.92
-936.988
1741.27
-906.478
1780.98
-880.96
1830.24
-854.938
1871.47
-831.647
1921.99
-807.64
1965.18
-780.876
2014.37
-749.174
2057.22
-714.303
2105.25
-673.716
2148.19
-625.94
2192.93
-573.086
2232.26
-515.192
2268.2
-449.396
2298.85
-388.905
2328.01
-326.225
2353.51
-258.737
2373.99
-190.811
2391.29
-131.294
2403.7
-80.3974
2416.04
-35.6573
2424.58
5.10543
2433.79
43.601
2437.6
81.9545
2441.19
119.68
2438.3
155.429
2435.34
187.831
2425.75
216.079
2416.42
239.904
2401.17
259.061
2387.59
276.176
2368.04
291.602
2349.59
302.065
2325.93
306.352
2304.55
305.729
2279.2
300.12
2256.98
289.916
2232.23
274.916
2211.78
256.527
2190.41
230.782
2174.25
196.876
2158.98
152.994
2150.66
104.583
2144.38
52.1456
2143.61
-1.21196
-54.4943
535.606
-289.75
426.988
-358.107
384.196
-444.215
376.67
-495.073
420.687
-441.23
483.975
-488.228
470.797
-176.899
462.686
-54.744
403.509
128.62
360.237
252.462
365.163
122.269
376.436
-73.8634
410.413
-282.102
484.789
-481.047
541.461
-576.818
573.375
-609.508
609.909
-628.308
623.946
-660.734
648.64
-671.874
659.077
-672.43
681.097
-667.156
725.605
-697.515
792.175
-679.148
830.861
-443.273
860.851
-152.154
840.124
31.0848
830.675
44.1401
856.577
-39.6781
900.704
-9.71852
908.233
232.235
853.118
556.472
768.045
757.079
630.297
959.924
469.955
1308.02
392.173
1157.16
402.625
636.782
451.327
174.049
524.388
-143.727
599.739
-377.734
675.324
-555.533
742.471
-693.681
805.823
-801.895
862.126
-892.314
916.282
-982.696
970.849
-1080.73
1033.17
-1170.78
1102.43
-1228.25
1174.15
-1245.57
1239.47
-1238.14
1309.64
-1210.62
1365.77
-1171.22
1426.98
-1118.73
1472.15
-1066.48
1523.82
-1016.08
1561.52
-976.563
1607.84
-943.839
1642.39
-917.777
1686.92
-891.873
1723.25
-869.474
1769.65
-847.183
1809.62
-822.282
1856.18
-790.247
1895.95
-754.716
1941
-714.125
1981.16
-666.327
2023.62
-612.389
2061.23
-552.897
2095.34
-481.63
2123.66
-417.294
2150.36
-352.021
2173.85
-281.726
2192.84
-209.656
2209.05
-146.229
2220.59
-92.4218
2232.88
-46.4337
2242.24
-5.17557
2253.19
34.4994
2259.19
74.9719
2265.45
115.557
2265.35
154.57
2265.43
190.385
2258.85
221.893
2252.77
248.861
2240.55
270.636
2229.97
289.916
2213.83
307.315
2199.44
319.656
2180.03
325.425
2163.24
325.767
2142.65
320.55
2125.47
310.274
2105.69
294.784
2090.67
274.892
2075.26
246.424
2065.61
209.452
2056.95
161.554
2055.2
108.643
2055.14
51.945
2059.79
-4.61314
-61.4871
289.181
-192.51
222.009
-297.903
213.88
-434.333
223.172
-514.916
280.636
-462.307
342.148
-549.287
330.443
-165.28
339.619
-32.9852
304.495
168.07
292.977
275.068
319.74
100.609
344.079
-122.922
385.052
-346.339
459.148
-545.022
512.446
-622.965
544.079
-640.888
582.794
-653.808
595.157
-677.525
613.353
-676.615
612.97
-665.232
622.241
-653.173
655.663
-688.871
708.67
-674.921
732.747
-429.123
752.798
-122.375
718.738
89.8099
693.204
102.839
708.351
-13.3489
753.143
-9.90032
765.658
256.113
715.797
620.349
638.704
848.719
513.151
1082.89
372.378
1442.04
319.164
1196.92
350.127
596.857
412.498
94.5052
492.45
-238.744
569.33
-473.519
642.917
-645.816
706.628
-776.644
765.758
-877.673
817.031
-961.497
865.006
-1047.82
912.646
-1146.53
968.209
-1241.31
1031.23
-1303.7
1096.88
-1322.24
1156.51
-1313.16
1221.14
-1282.15
1271.78
-1237.15
1327.48
-1178.36
1367.41
-1119.68
1414.23
-1063.4
1446.99
-1018.29
1488.44
-981.847
1517.95
-953.83
1557.86
-926.868
1589.54
-903.572
1631.75
-882.016
1668.47
-858.191
1712.88
-825.661
1750.24
-787.932
1792.5
-745.774
1829.8
-696.361
1869.94
-640.391
1905.83
-578.275
1938.41
-501.52
1965.02
-433.099
1989.65
-364.984
2011.14
-292.153
2028.38
-216.469
2043.28
-149.429
2053.96
-93.3035
2066.28
-47.0055
2076.38
-6.33262
2088.78
33.2639
2096.56
74.8082
2104.98
117.079
2107.15
158.43
2109.8
196.614
2105.91
230.501
2102.98
259.47
2093.99
283.092
2086.8
303.723
2074.52
321.989
2064.67
334.982
2050.12
341.402
2038.51
341.892
2023.22
336.451
2011.44
325.434
1996.91
308.908
1987.33
286.777
1977.47
255.242
1973.71
214.92
1970.87
163.152
1974.71
106.175
1979.8
45.8578
1988.99
-13.0981
-72.9052
205.819
-140.907
169.941
-268.968
175.496
-432.328
175.784
-524.768
228.82
-468.874
271.301
-600.713
245.25
-154.394
253.438
-15.9039
226.472
211.548
243.793
275.697
284.73
77.9138
318.118
-160.375
364.137
-397.958
436.646
-597.536
488.762
-660.568
525.306
-670.959
570.806
-678.589
584.455
-690.651
597.165
-675.682
587.546
-655.826
586.397
-644.474
610.496
-699.996
648.424
-693.655
657.941
-434.257
669.339
-118.614
615.034
132.657
563.374
160.211
570.151
-22.4874
619.693
-49.8067
641.781
240.947
598.494
667.888
525.075
931.654
409.046
1208.4
289.249
1592.03
260.678
1244.44
309.024
573.806
381.555
38.5896
465.9
-306.296
543.324
-538.814
615.22
-703.715
676.479
-827.103
732.614
-921.677
780.066
-999.453
823.094
-1081.97
864.915
-1182.59
914.514
-1284.46
971.827
-1353.56
1031.66
-1375.33
1085.62
-1365.9
1144.55
-1332.55
1189.51
-1283.64
1239.62
-1219.33
1274.02
-1156.49
1315.81
-1095.72
1343.66
-1047.26
1380.44
-1008.63
1405.11
-980.244
1440.59
-953.942
1467.88
-931.979
1506.21
-912.942
1539.98
-893.211
1582.67
-862.443
1618.15
-824.023
1658.14
-780.83
1693.1
-731.57
1731.67
-675.701
1766.35
-613.237
1797.51
-530.956
1822.33
-458.311
1844.79
-386.792
1863.98
-311.162
1879.18
-231.922
1892.69
-161.915
1902.57
-104.158
1914.85
-58.0931
1925.33
-18.2693
1938.63
21.4875
1947.61
64.3559
1957.71
108.847
1961.84
152.927
1966.96
193.96
1965.87
230.501
1966.31
261.784
1960.96
287.545
1957.77
310.02
1949.79
329.357
1944.67
343.31
1934.97
350.668
1928.33
351.852
1917.87
346.739
1910.79
335.837
1900.62
319.278
1895.35
295.673
1889.62
261.265
1890.15
217.469
1891.48
161.733
1899.27
100.787
1908.01
36.8506
1920.67
-24.4796
-87.6697
202.656
-108.469
177.157
-252.579
177.736
-431.321
152.654
-512.009
192.37
-458.696
220.911
-630.992
185.546
-123.752
194.111
7.50668
175.053
233.128
210.198
248.153
259.043
32.5514
298.215
-225.686
346.065
-469.809
417.901
-658.078
473.815
-707.669
519.562
-714.884
572.959
-717.535
588.255
-708.447
596.81
-667.529
579.523
-628.27
570.026
-606.895
586.492
-665.836
607.584
-647.169
601.398
-386.067
598.096
-65.9712
516.724
234.237
441.136
270.489
454.225
14.5836
504.95
-39.4695
536.596
258.623
503.874
718.964
441.867
1009.04
341.238
1307.29
239.589
1688.15
223.357
1249.3
281.15
507.508
359.385
-55.5921
445.943
-406.591
523.274
-633.684
593.544
-789.819
652.783
-904.837
706.472
-991.435
750.68
-1061.21
789.35
-1137.71
826.017
-1237.29
870.232
-1343.46
922.106
-1417.73
976.219
-1441.22
1024.45
-1430.23
1077.38
-1393.4
1116.51
-1338.85
1160.78
-1268.3
1189.52
-1199.22
1226.06
-1133.25
1249.11
-1079.91
1281.46
-1037.77
1301.53
-1007.45
1332.74
-980.423
1355.91
-957.9
1390.58
-940.193
1421.48
-923.225
1462.43
-893.956
1496.28
-853.416
1534.32
-807.564
1567.23
-756.463
1604.27
-699.404
1637.78
-634.72
1667.73
-546.831
1691.31
-469.906
1711.95
-394.612
1728.9
-315.975
1742.21
-233.874
1754.71
-161.594
1763.88
-102.553
1775.76
-56.9711
1786.08
-18.5849
1799.84
20.1211
1809.73
63.0278
1821.39
108.143
1827.53
153.54
1835.29
195.901
1837.26
233.801
1841.31
266.055
1839.85
292.872
1840.88
316.087
1837.13
335.768
1836.28
349.969
1830.74
357.761
1828.17
359.145
1821.46
354.08
1817.85
342.866
1810.79
325.743
1808.47
300.27
1805.44
263.227
1808.85
215.917
1813.06
156.37
1823.62
91.7765
1835.07
24.4942
1850.5
-39.1019
-105.543
211.176
-80.2131
189.661
-237.038
179.421
-412.253
128.804
-473.534
156.531
-428.619
178.777
-667.565
138.753
-99.8642
150.588
27.05
139.969
260.732
185.71
219.547
240.515
-3.04549
283.693
-271.308
331.264
-521.98
404.768
-710.524
468.277
-756.136
521.692
-761.384
578.836
-754.029
595.311
-723.266
601.12
-657.944
578.173
-605.604
561.367
-582.356
570.004
-659.974
576.516
-636.63
559.98
-368.771
537.453
-33.6212
394.905
362.62
308.688
362.667
361.353
-36.1793
399.189
-64.2374
443.832
223.555
418.958
749.115
361.003
1076.54
269.163
1411.16
186.137
1803.56
187.22
1268.08
255.017
465.328
338.705
-121.543
427.694
-477.679
505.387
-697.962
574.476
-843.816
632.025
-950.321
683.723
-1029.71
725.227
-1091.86
760.255
-1162.58
792.647
-1262.55
832.448
-1375.3
879.759
-1455.87
928.648
-1482.25
971.32
-1470.19
1018.2
-1430.47
1051.28
-1372.21
1089.66
-1296.34
1112.55
-1223.48
1143.74
-1153.82
1161.98
-1098.41
1190.1
-1054.81
1205.78
-1024.28
1232.9
-998.29
1252.23
-977.851
1283.66
-963.683
1311.76
-952.309
1350.87
-926.759
1383.49
-886.524
1420.5
-839.343
1452.26
-788.408
1488.28
-732.019
1521.14
-667.962
1550.03
-574.159
1572.27
-492.838
1590.96
-412.937
1605.58
-330.73
1617.23
-246.192
1628.77
-172.387
1636.8
-112.071
1647.74
-67.0439
1657.61
-30.4723
1671.8
7.13118
1682.7
50.1461
1696.08
96.3603
1704.38
143.469
1714.88
187.699
1719.89
227.386
1727.34
261.249
1729.45
289.62
1734.34
314.253
1734.25
335.08
1736.91
350.531
1734.59
359.536
1735.04
362.108
1730.94
357.98
1729.69
347.602
1724.66
331.06
1724.37
304.468
1723.25
264.695
1728.93
213.45
1735.55
149.669
1748.63
81.1832
1762.64
10.2189
1780.75
-55.9036
-125.799
217.414
-60.1111
195.493
-224.209
173.522
-387.69
106.714
-421.897
132.021
-393.504
145.764
-686.353
99.4837
-66.0932
121.216
42.1818
124.307
254.944
169.997
175.865
226.588
-58.4611
271.797
-344.246
318.363
-593.479
395.491
-775.14
466.461
-817.127
524.463
-816.166
581.808
-796.157
599.219
-739.998
606.397
-643.482
582.848
-566.587
562.189
-528.072
563.92
-604.649
555.802
-558.01
527.03
-295.861
481.038
60.2537
298.585
561.637
199.455
499.845
259.789
-28.3587
266.405
18.8116
350.191
206.888
345.278
780.248
301.173
1137.75
222.069
1490.02
154.08
1867.2
163.685
1247.95
236.46
383.937
323.66
-223.85
414.453
-581.268
492
-792.225
559.239
-926.615
614.632
-1024.04
664.328
-1095.48
703.431
-1148.76
735.335
-1212.04
764.264
-1310.02
800.55
-1426.37
843.826
-1511.57
887.564
-1538.41
924.412
-1523.77
964.834
-1479.86
991.705
-1415.8
1023.99
-1334.06
1041.07
-1255.11
1066.91
-1181.12
1080.61
-1122.21
1104.8
-1076.02
1116.36
-1043.57
1139.54
-1017.01
1155.32
-996.742
1183.69
-984.723
1208.85
-976.572
1245.97
-954.113
1277.84
-913.745
1314.53
-864.216
1345.51
-810.67
1380.12
-752.191
1412.25
-686.456
1440.33
-586.822
1461.71
-501.128
1478.84
-416.223
1491.65