/*--------------------------------*- C++ -*----------------------------------*\
| =========                 |                                                 |
| \\      /  F ield         | OpenFOAM: The Open Source CFD Toolbox           |
|  \\    /   O peration     | Version:  4.1                                   |
|   \\  /    A nd           | Web:      www.OpenFOAM.org                      |
|    \\/     M anipulation  |                                                 |
\*---------------------------------------------------------------------------*/
FoamFile
{
    version     2.0;
    format      ascii;
    class       volVectorField;
    location    "10";
    object      U;
}
// * * * * * * * * * * * * * * * * * * * * * * * * * * * * * * * * * * * * * //

dimensions      [0 1 -1 0 0 0 0];

internalField   nonuniform List<vector> 
26785
(
(1.08479e-15 -0.00463758 13.6551)
(1.01729e-15 -0.00252774 13.7365)
(9.98654e-16 -0.00175006 13.7883)
(1.31639e-15 -0.000346995 13.8167)
(1.31924e-15 0.00185152 13.8185)
(1.39955e-15 0.00240987 13.7892)
(7.73246e-16 0.00273794 13.7327)
(8.21934e-16 6.50155e-05 13.732)
(7.44756e-16 -0.00274966 13.7933)
(1.71938e-15 -0.00444898 13.8928)
(1.30938e-15 -0.00575002 14.0183)
(9.09802e-16 -0.00656225 14.1296)
(8.5191e-16 -0.00667955 14.2292)
(8.0837e-16 -0.00617338 14.3588)
(8.11817e-16 -0.00549429 14.4857)
(8.13258e-16 -0.00456479 14.5818)
(8.41852e-16 -0.00310209 14.675)
(7.95345e-16 -0.000852208 14.7369)
(5.35194e-16 0.00160197 14.7597)
(1.3638e-15 0.00354044 14.7538)
(1.2082e-15 0.00473065 14.7262)
(9.08277e-16 0.00528426 14.7009)
(1.4134e-15 0.0063373 14.6736)
(3.16097e-16 0.00821672 14.6316)
(1.82652e-15 0.00873784 14.5785)
(1.40298e-15 0.00700448 14.5298)
(9.7747e-16 0.00366433 14.5108)
(7.82211e-16 -0.000114796 14.5341)
(7.34957e-16 -0.0025718 14.5869)
(1.62747e-15 -0.00313701 14.6554)
(1.51246e-15 -0.00357285 14.723)
(3.16564e-16 -0.00522979 14.8003)
(5.61952e-16 -0.00692406 14.8919)
(1.14533e-15 -0.00766096 14.989)
(1.59761e-15 -0.00937209 15.0911)
(4.20821e-16 -0.0131013 15.2157)
(6.19954e-16 -0.0167576 15.3721)
(6.64625e-16 -0.0184788 15.5463)
(7.25927e-16 -0.0182099 15.7214)
(4.40967e-16 -0.0167981 15.8844)
(1.60446e-15 -0.0151364 16.0309)
(1.25092e-15 -0.0136222 16.1599)
(1.17982e-15 -0.0123909 16.2742)
(5.91106e-16 -0.0114034 16.3757)
(9.04969e-16 -0.0105246 16.466)
(4.78309e-16 -0.00955852 16.5491)
(5.84659e-16 -0.0082133 16.6193)
(9.85846e-16 -0.00659845 16.6767)
(9.51412e-16 -0.00460674 16.7192)
(9.88125e-16 -0.00258794 16.7474)
(1.02947e-15 -0.00030069 16.7578)
(1.03554e-15 0.00166899 16.7534)
(9.83456e-16 0.00367154 16.7347)
(9.79391e-16 0.00524739 16.7047)
(1.06107e-15 0.00683528 16.6654)
(9.33069e-16 0.00800284 16.6192)
(1.66864e-15 0.00916335 16.5663)
(1.29168e-15 0.00989881 16.5081)
(1.06518e-15 0.0105704 16.4472)
(1.9054e-15 0.0108862 16.3846)
(1.52468e-15 0.0112387 16.3214)
(1.42629e-15 0.0114114 16.257)
(1.21122e-15 0.0116404 16.1927)
(2.52741e-15 0.0116581 16.1281)
(1.56241e-15 0.0115451 16.0643)
(1.42117e-15 0.0111242 16.0017)
(1.36951e-15 0.0105382 15.9424)
(1.34715e-15 0.009797 15.8865)
(1.29271e-15 0.00898965 15.8349)
(1.10909e-15 0.0080722 15.7871)
(2.20178e-15 0.00700002 15.7444)
(1.636e-15 0.00572492 15.707)
(1.2862e-15 0.00423213 15.6766)
(1.26411e-15 0.00263461 15.6534)
(1.2371e-15 0.000990904 15.6381)
(6.41378e-16 -0.000563165 15.63)
(1.32752e-15 -0.00200331 15.6287)
(1.20795e-15 -0.00326563 15.6334)
(1.25887e-15 -0.00438894 15.6432)
(1.23558e-15 -0.00536063 15.6574)
(1.32008e-15 -0.00622491 15.6753)
(1.67013e-15 -0.00697025 15.6966)
(9.71982e-16 -0.00761829 15.7206)
(1.04507e-15 -0.00816778 15.7469)
(1.22596e-15 -0.00862851 15.775)
(1.29555e-15 -0.00901604 15.8047)
(1.14713e-15 -0.00933529 15.8355)
(1.16116e-15 -0.0095991 15.8672)
(1.44695e-15 -0.00980203 15.8995)
(1.09347e-15 -0.00995765 15.9323)
(1.09928e-15 -0.0100585 15.9652)
(1.10655e-15 -0.0101276 15.9981)
(1.11133e-15 -0.0101597 16.0308)
(1.10833e-15 -0.0101916 16.0633)
(1.14935e-15 -0.010215 16.0955)
(1.25291e-15 -0.0102061 16.1275)
(1.10433e-15 -0.0103012 16.1592)
(1.10607e-15 -0.00972263 16.1906)
(1.13276e-15 -0.0108221 16.2186)
(1.15189e-15 -0.00801636 16.2551)
(1.12566e-15 -0.0121978 14.6744)
(1.16205e-15 -0.00756864 14.8099)
(1.52623e-15 -0.00465603 14.9052)
(1.50905e-15 0.00132428 14.9691)
(-6.16145e-17 0.00872067 15.0014)
(6.95923e-16 0.0108169 15.0005)
(1.16521e-15 0.0119456 14.9711)
(9.75487e-16 0.00146537 15.0178)
(1.75807e-15 -0.0082313 15.1365)
(1.9308e-15 -0.0136675 15.2895)
(1.38543e-15 -0.0172684 15.4611)
(1.45413e-15 -0.0194708 15.6057)
(1.40613e-15 -0.019407 15.7312)
(1.03799e-15 -0.0184047 15.893)
(1.90154e-15 -0.0168417 16.0592)
(2.43161e-15 -0.0143037 16.1973)
(1.04296e-15 -0.0101505 16.3369)
(1.25129e-15 -0.00318454 16.4452)
(1.89653e-15 0.00411388 16.5143)
(8.70542e-16 0.010067 16.5566)
(2.16664e-15 0.0133959 16.5791)
(7.82439e-16 0.0151779 16.6054)
(1.67394e-15 0.0181391 16.6295)
(1.74683e-15 0.0236421 16.639)
(1.98248e-15 0.024745 16.6393)
(3.30527e-15 0.0191338 16.6439)
(2.08413e-15 0.00851955 16.6726)
(1.82227e-15 -0.00293195 16.7348)
(1.98585e-15 -0.0098708 16.8142)
(2.84878e-15 -0.0108781 16.8963)
(1.38066e-15 -0.0114806 16.9657)
(1.99431e-15 -0.0158874 17.0352)
(2.03814e-15 -0.0206899 17.1097)
(2.22659e-15 -0.0228109 17.1806)
(2.07119e-15 -0.0274416 17.2471)
(1.9015e-15 -0.0376835 17.3285)
(1.94365e-15 -0.0475044 17.436)
(1.95326e-15 -0.0518012 17.558)
(1.95865e-15 -0.0505605 17.6794)
(1.97562e-15 -0.0462736 17.7896)
(1.73295e-15 -0.0413172 17.8857)
(2.05893e-15 -0.0368474 17.9681)
(2.053e-15 -0.0332036 18.0404)
(2.59949e-15 -0.0303747 18.1049)
(2.43875e-15 -0.0278978 18.164)
(2.07544e-15 -0.0252019 18.2217)
(1.7278e-15 -0.0215271 18.2731)
(1.75016e-15 -0.016967 18.3173)
(1.56063e-15 -0.0115353 18.3527)
(2.27469e-15 -0.00592028 18.3787)
(1.96577e-15 0.000227981 18.392)
(1.88885e-15 0.00559932 18.394)
(1.81102e-15 0.0108851 18.3849)
(2.74491e-15 0.0151349 18.3666)
(2.45606e-15 0.0192753 18.3405)
(1.48199e-15 0.0224317 18.3078)
(1.84705e-15 0.0254327 18.2685)
(2.16783e-15 0.0274504 18.2227)
(2.36844e-15 0.0292143 18.1725)
(1.64794e-15 0.0301704 18.1182)
(1.67912e-15 0.0311835 18.0605)
(2.47831e-15 0.0318694 17.9985)
(2.26276e-15 0.0327078 17.933)
(1.03222e-15 0.0331472 17.8629)
(1.6227e-15 0.0332834 17.789)
(1.83118e-15 0.0327367 17.711)
(1.93826e-15 0.0317911 17.6307)
(1.6094e-15 0.0305168 17.5476)
(3.57613e-15 0.0290865 17.4624)
(2.2906e-15 0.0274188 17.3747)
(1.96421e-15 0.0253696 17.2856)
(2.98567e-15 0.0228045 17.1953)
(2.2905e-15 0.0196891 17.1054)
(1.93615e-15 0.0162514 17.0163)
(1.64975e-15 0.0126626 16.9289)
(2.82945e-15 0.00920333 16.8432)
(1.99166e-15 0.00597688 16.7595)
(2.12118e-15 0.00309103 16.6776)
(2.95267e-15 0.000503141 16.5975)
(2.07397e-15 -0.00180197 16.519)
(1.7275e-15 -0.00387384 16.4423)
(2.27988e-15 -0.00572931 16.3674)
(2.28591e-15 -0.00737232 16.2942)
(1.6894e-15 -0.00883245 16.223)
(2.14848e-15 -0.0100945 16.1536)
(2.48285e-15 -0.0112208 16.0863)
(2.45444e-15 -0.0121862 16.0209)
(1.91845e-15 -0.0130423 15.9575)
(1.45606e-15 -0.0137505 15.896)
(1.96528e-15 -0.0143637 15.8367)
(2.00906e-15 -0.0148483 15.7793)
(2.02545e-15 -0.0152737 15.724)
(2.03379e-15 -0.0156244 15.6707)
(2.22041e-15 -0.0159938 15.6198)
(1.99199e-15 -0.016345 15.5713)
(1.98805e-15 -0.0166553 15.5251)
(2.02934e-15 -0.0171811 15.4822)
(2.03485e-15 -0.0166047 15.4399)
(2.00952e-15 -0.0178108 15.408)
(2.02853e-15 -0.0128819 15.3465)
(1.42954e-15 -0.0176768 15.9039)
(1.58191e-15 -0.0113876 16.069)
(1.54712e-15 -0.00686376 16.2063)
(1.19411e-15 0.00357925 16.3175)
(1.99322e-15 0.0145279 16.4033)
(2.52728e-15 0.017861 16.4668)
(1.60424e-15 0.0183261 16.5087)
(1.42556e-15 -6.67032e-05 16.6166)
(1.81716e-15 -0.0149656 16.78)
(1.9995e-15 -0.0227257 16.9585)
(2.03392e-15 -0.0268368 17.1402)
(2.05438e-15 -0.0286382 17.2896)
(2.11011e-15 -0.0280086 17.4198)
(2.18775e-15 -0.0276785 17.5832)
(1.91475e-15 -0.025722 17.7544)
(2.59571e-15 -0.0225677 17.9026)
(1.8883e-15 -0.0168685 18.05)
(2.85307e-15 -0.00608459 18.1647)
(1.6707e-15 0.00493524 18.2383)
(2.55464e-15 0.0138132 18.2809)
(3.23344e-15 0.018519 18.297)
(1.36422e-15 0.0211426 18.3056)
(1.99672e-15 0.025915 18.3001)
(3.76225e-15 0.0346576 18.2664)
(3.14994e-15 0.0366079 18.2054)
(3.86479e-15 0.0282698 18.1261)
(2.69929e-15 0.0129707 18.0449)
(2.6937e-15 -0.00312011 17.9694)
(2.79313e-15 -0.0120428 17.8892)
(2.74633e-15 -0.0119563 17.7947)
(2.49898e-15 -0.0114502 17.6741)
(1.34838e-15 -0.0169234 17.5406)
(3.68331e-15 -0.0232687 17.4003)
(2.91241e-15 -0.0252309 17.2459)
(2.72655e-15 -0.0315914 17.081)
(2.78476e-15 -0.0471073 16.9314)
(2.76344e-15 -0.0626325 16.815)
(2.76334e-15 -0.0697775 16.7242)
(2.76075e-15 -0.0688512 16.6477)
(2.75795e-15 -0.063471 16.5777)
(2.75649e-15 -0.0574947 16.514)
(2.67685e-15 -0.0524096 16.4583)
(2.70894e-15 -0.0488554 16.4147)
(2.7283e-15 -0.0467204 16.3861)
(2.66222e-15 -0.0453753 16.3752)
(2.56812e-15 -0.0436247 16.3858)
(2.55453e-15 -0.0403132 16.4117)
(2.56767e-15 -0.0351914 16.4492)
(2.57645e-15 -0.0288807 16.4961)
(2.53892e-15 -0.0214701 16.5486)
(2.49523e-15 -0.0133484 16.6012)
(2.45018e-15 -0.00540662 16.6505)
(2.419e-15 0.00216273 16.6946)
(2.47571e-15 0.00899717 16.7319)
(2.35413e-15 0.0154266 16.7626)
(2.31675e-15 0.0211963 16.7857)
(2.58962e-15 0.0265464 16.7991)
(1.83613e-15 0.0311758 16.8008)
(2.55848e-15 0.0352177 16.7918)
(1.71619e-15 0.0385916 16.7713)
(1.91714e-15 0.0418469 16.7396)
(2.06701e-15 0.0450961 16.6952)
(2.16827e-15 0.0485032 16.6388)
(1.88826e-15 0.0517979 16.5687)
(3.083e-15 0.0546933 16.4848)
(2.76884e-15 0.0569471 16.3861)
(1.53169e-15 0.058645 16.2736)
(1.69892e-15 0.0600587 16.1467)
(2.09445e-15 0.0611855 16.0062)
(2.15818e-15 0.0619829 15.8517)
(2.06278e-15 0.0621199 15.6851)
(2.12556e-15 0.0613401 15.5066)
(1.62537e-15 0.0595943 15.3187)
(1.71429e-15 0.0570808 15.1224)
(1.70194e-15 0.054142 14.9198)
(2.05326e-15 0.0509355 14.7117)
(2.05556e-15 0.0478193 14.5002)
(2.01173e-15 0.0446747 14.2858)
(1.98318e-15 0.0417531 14.0701)
(1.95909e-15 0.0387282 13.8537)
(1.94344e-15 0.0359055 13.638)
(2.06708e-15 0.0329175 13.4235)
(2.47231e-15 0.0301625 13.2114)
(1.61969e-15 0.0272247 13.0021)
(1.80605e-15 0.0245568 12.7968)
(1.80367e-15 0.021672 12.5958)
(1.77794e-15 0.0190527 12.3997)
(1.75874e-15 0.0162353 12.2092)
(1.76823e-15 0.0137054 12.0247)
(2.39205e-15 0.0110007 11.8466)
(1.73366e-15 0.00856489 11.6753)
(1.73712e-15 0.00594317 11.5112)
(1.95025e-15 0.0035009 11.3548)
(1.67172e-15 0.000760185 11.2066)
(1.55578e-15 -0.00186802 11.0671)
(1.55181e-15 -0.00470609 10.9362)
(1.64769e-15 -0.00745772 10.816)
(1.66043e-15 -0.0104182 10.6996)
(1.57308e-15 -0.0109723 10.6145)
(1.57905e-15 -0.00911489 10.4707)
(1.87683e-15 -0.0200576 17.1427)
(1.91639e-15 -0.0141777 17.3271)
(2.22265e-15 -0.00901576 17.4917)
(1.15253e-15 0.00512192 17.6285)
(1.62403e-15 0.0192752 17.7356)
(1.58555e-15 0.0232974 17.8135)
(2.06075e-15 0.0239703 17.8577)
(1.76289e-15 -0.00114158 17.9441)
(2.6964e-15 -0.0201595 18.0653)
(2.45529e-15 -0.029256 18.1887)
(2.42785e-15 -0.0338533 18.3094)
(2.45617e-15 -0.0356632 18.3997)
(2.6412e-15 -0.0350238 18.4722)
(2.20761e-15 -0.0358134 18.5747)
(2.16347e-15 -0.0342642 18.6797)
(2.34325e-15 -0.0307613 18.7544)
(2.91981e-15 -0.0232416 18.8175)
(2.19575e-15 -0.00860635 18.84)
(2.91546e-15 0.0069375 18.8141)
(3.22282e-15 0.019687 18.7463)
(3.02236e-15 0.0275069 18.6383)
(2.48931e-15 0.032817 18.5077)
(3.01156e-15 0.0417219 18.3473)
(2.79161e-15 0.0567634 18.1363)
(2.64762e-15 0.0639948 17.8642)
(2.71651e-15 0.0575629 17.54)
(2.82252e-15 0.0422046 17.1838)
(2.82032e-15 0.025075 16.8059)
(2.87721e-15 0.0167887 16.4045)
(2.68531e-15 0.0200405 15.9802)
(1.97966e-15 0.0233487 15.52)
(2.41332e-15 0.0182257 15.0383)
(2.99886e-15 0.0108126 14.5408)
(3.11111e-15 0.00919597 14.0213)
(2.29937e-15 -0.00076268 13.4905)
(1.83946e-15 -0.0256889 12.9933)
(1.90108e-15 -0.0528846 12.5612)
(1.92913e-15 -0.0687968 12.1893)
(2.13624e-15 -0.074586 11.8672)
(3.02817e-15 -0.0748162 11.5898)
(1.93634e-15 -0.0753619 11.3597)
(2.73841e-15 -0.0774302 11.1795)
(3.24349e-15 -0.0820132 11.0528)
(2.14955e-15 -0.0885909 10.9799)
(2.00671e-15 -0.0962333 10.9605)
(2.05265e-15 -0.102533 10.9949)
(2.75876e-15 -0.105735 11.0702)
(3.28119e-15 -0.10499 11.1781)
(2.41956e-15 -0.10205 11.3109)
(2.44982e-15 -0.0957085 11.4623)
(2.33371e-15 -0.0878206 11.6229)
(2.44314e-15 -0.0780823 11.787)
(1.90387e-15 -0.0685996 11.9497)
(2.49159e-15 -0.0585043 12.1085)
(2.44767e-15 -0.0489107 12.2622)
(2.33226e-15 -0.0387677 12.409)
(2.65159e-15 -0.0290684 12.5454)
(1.7661e-15 -0.019044 12.6685)
(2.4826e-15 -0.00981559 12.778)
(1.63624e-15 -0.000618281 12.8729)
(2.2474e-15 0.0083383 12.9522)
(2.74629e-15 0.0179635 13.0142)
(1.97633e-15 0.0278276 13.0588)
(2.08433e-15 0.0381395 13.0835)
(2.41855e-15 0.048066 13.0879)
(5.70498e-16 0.0576175 13.07)
(1.87479e-15 0.0666005 13.0307)
(3.22413e-15 0.0755045 12.9683)
(2.80923e-15 0.0840052 12.8836)
(2.50654e-15 0.0919599 12.7755)
(7.50264e-16 0.0987499 12.646)
(1.65277e-15 0.104041 12.4958)
(7.84833e-16 0.107745 12.3282)
(3.01679e-15 0.109971 12.1444)
(3.79205e-15 0.111186 11.9474)
(1.01159e-15 0.111339 11.7384)
(1.63044e-15 0.111051 11.5202)
(2.25348e-16 0.10996 11.294)
(1.18227e-15 0.10866 11.0622)
(1.24993e-15 0.106491 10.8258)
(1.1712e-15 0.10416 10.587)
(1.07359e-15 0.10092 10.3471)
(9.82131e-16 0.0976284 10.1078)
(2.28646e-15 0.0934294 9.87026)
(1.22529e-15 0.0892857 9.63601)
(7.79256e-16 0.0842139 9.40605)
(-2.64133e-17 0.0792389 9.18155)
(8.01075e-16 0.0734591 8.96349)
(6.04283e-16 0.0678814 8.7528)
(5.32625e-16 0.0616023 8.55038)
(4.07141e-16 0.0555484 8.35672)
(1.49711e-15 0.0488328 8.17259)
(8.59993e-16 0.0422396 7.99859)
(5.46917e-16 0.0348493 7.83548)
(7.97191e-16 0.0275081 7.68408)
(6.21716e-16 0.0195312 7.54448)
(6.05458e-16 0.0121506 7.41898)
(5.36652e-16 0.00256248 7.30035)
(8.26985e-16 -0.000943623 7.2127)
(8.75059e-16 -0.00567371 7.08713)
(2.17772e-15 -0.019615 18.2008)
(2.19101e-15 -0.0160729 18.3673)
(2.19674e-15 -0.0106093 18.5013)
(1.77931e-15 0.00682366 18.5934)
(1.65339e-15 0.0247126 18.6408)
(2.64836e-15 0.0302182 18.6404)
(2.13145e-15 0.0324767 18.5857)
(2.32672e-15 0.00182478 18.5481)
(2.53011e-15 -0.0207891 18.529)
(2.56241e-15 -0.0316221 18.5074)
(3.03379e-15 -0.0379105 18.4852)
(2.65557e-15 -0.0410764 18.4382)
(2.57881e-15 -0.0413474 18.3745)
(2.08474e-15 -0.0434143 18.3373)
(1.75211e-15 -0.0419695 18.2936)
(2.76194e-15 -0.0375459 18.2108)
(3.04069e-15 -0.0276035 18.1129)
(2.83075e-15 -0.00916772 17.9791)
(2.77138e-15 0.0117383 17.8062)
(2.67906e-15 0.0297231 17.5978)
(2.57387e-15 0.0430591 17.3512)
(1.78883e-15 0.0537099 17.0842)
(1.99066e-15 0.0704246 16.7856)
(1.83186e-15 0.0977573 16.4242)
(1.90471e-15 0.117732 15.9717)
(1.68422e-15 0.120205 15.4475)
(3.02588e-15 0.111203 14.8778)
(1.53096e-15 0.0974427 14.2808)
(2.02091e-15 0.0931499 13.6569)
(2.50422e-15 0.10379 13.0175)
(2.358e-15 0.114191 12.3388)
(2.30908e-15 0.111777 11.6421)
(1.96329e-15 0.104155 10.9379)
(8.11382e-16 0.105169 10.2181)
(1.76388e-15 0.0893509 9.49939)
(1.43196e-15 0.0450274 8.85416)
(1.93113e-15 -0.00598418 8.32903)
(1.9713e-15 -0.0400041 7.90601)
(1.84619e-15 -0.0604309 7.56435)
(1.94721e-15 -0.0743309 7.29599)
(1.97508e-15 -0.0901894 7.10377)
(1.97888e-15 -0.108189 6.98679)
(1.2422e-15 -0.129061 6.94315)
(8.9109e-16 -0.151475 6.96557)
(1.39408e-15 -0.174016 7.04628)
(1.59646e-15 -0.192988 7.18056)
(1.83312e-15 -0.205832 7.35041)
(2.0586e-15 -0.211236 7.54411)
(2.25837e-15 -0.212655 7.75127)
(2.00828e-15 -0.208252 7.96621)
(2.51757e-15 -0.201361 8.18037)
(2.66403e-15 -0.190589 8.39162)
(2.75734e-15 -0.179737 8.59644)
(2.72742e-15 -0.167058 8.79437)
(2.82105e-15 -0.154988 8.98602)
(1.85892e-15 -0.14135 9.17152)
(2.64131e-15 -0.12809 9.3484)
(2.23879e-15 -0.113459 9.51461)
(1.63979e-15 -0.0995895 9.67092)
(2.4907e-15 -0.0850276 9.81632)
(4.08497e-15 -0.0705796 9.94961)
(1.91619e-15 -0.0547317 10.0685)
(2.35227e-15 -0.0382961 10.1733)
(2.53601e-15 -0.0206889 10.2615)
(1.83475e-15 -0.00310704 10.3322)
(4.63534e-15 0.0145373 10.3832)
(3.04736e-15 0.0318238 10.415)
(4.99341e-15 0.0493093 10.4253)
(3.09776e-15 0.0663664 10.4144)
(3.15259e-15 0.0831059 10.3818)
(2.49344e-15 0.0985633 10.3287)
(2.68184e-15 0.112091 10.2546)
(1.92112e-15 0.123431 10.1626)
(3.36493e-15 0.132596 10.0537)
(2.59644e-15 0.140029 9.93086)
(3.06565e-15 0.145732 9.79563)
(3.59082e-15 0.150451 9.65056)
(1.39794e-15 0.153876 9.49604)
(9.68671e-16 0.156561 9.33348)
(3.78114e-16 0.157845 9.16355)
(-3.40059e-16 0.158354 8.98813)
(2.18402e-15 0.157432 8.80846)
(8.73897e-16 0.155889 8.62592)
(1.37587e-15 0.153007 8.44163)
(2.41212e-15 0.149647 8.25669)
(6.40407e-16 0.144928 8.07201)
(7.51789e-16 0.139717 7.8884)
(8.13809e-16 0.133208 7.7072)
(1.06923e-15 0.126293 7.52935)
(8.9123e-16 0.118204 7.35617)
(4.77558e-16 0.109844 7.18825)
(9.97125e-16 0.100469 7.02675)
(1.10737e-15 0.0907377 6.87232)
(9.23298e-16 0.0798429 6.72619)
(1.31495e-15 0.0684832 6.58933)
(1.23623e-15 0.0561885 6.46242)
(9.02092e-16 0.0443398 6.34783)
(1.51139e-15 0.030239 6.24029)
(1.54335e-15 0.02044 6.15577)
(1.4243e-15 0.0102066 6.04542)
(2.33835e-15 -0.0203089 18.8555)
(2.78011e-15 -0.018224 18.8973)
(2.78314e-15 -0.0112296 18.9051)
(2.41842e-15 0.00995238 18.8744)
(2.51562e-15 0.0324996 18.7962)
(2.98162e-15 0.0402203 18.6569)
(2.82774e-15 0.0457881 18.4434)
(3.31071e-15 0.0101808 18.2205)
(2.85478e-15 -0.0162403 17.9964)
(3.92083e-15 -0.0297985 17.7599)
(3.8284e-15 -0.0397356 17.5201)
(3.27068e-15 -0.0457699 17.2565)
(2.64152e-15 -0.0480246 16.9767)
(2.6092e-15 -0.0515738 16.729)
(2.56517e-15 -0.050081 16.4836)
(2.60491e-15 -0.0450048 16.2166)
(2.26519e-15 -0.0336729 15.9663)
(3.04191e-15 -0.0137731 15.7215)
(3.40389e-15 0.0105271 15.4839)
(1.92832e-15 0.0326073 15.2526)
(4.96704e-16 0.0516811 15.0137)
(1.98615e-15 0.0683894 14.7809)
(1.17535e-15 0.0956447 14.533)
(-2.23303e-16 0.141679 14.2201)
(2.10282e-15 0.180698 13.7908)
(2.56311e-15 0.195001 13.2892)
(1.8011e-15 0.194511 12.7562)
(1.93573e-15 0.184904 12.2119)
(1.61276e-15 0.184744 11.6486)
(2.21999e-15 0.204919 11.0796)
(2.44512e-15 0.225605 10.4687)
(3.66672e-15 0.226053 9.84436)
(1.53176e-15 0.218557 9.22483)
(1.07335e-15 0.224854 8.58242)
(-4.29459e-16 0.203519 7.92757)
(2.42724e-15 0.136149 7.34616)
(2.2357e-15 0.0604072 6.88606)
(1.89608e-15 0.00875403 6.51372)
(1.69188e-15 -0.0264771 6.21252)
(2.16825e-15 -0.0561346 5.98522)
(1.58852e-15 -0.0889129 5.8405)
(-1.75182e-16 -0.123287 5.77485)
(8.88927e-16 -0.159087 5.7803)
(4.27294e-16 -0.194859 5.84442)
(1.04714e-15 -0.228938 5.95674)
(1.78651e-15 -0.25694 6.11225)
(2.17768e-15 -0.275916 6.29069)
(2.49427e-15 -0.284475 6.48098)
(2.78767e-15 -0.287543 6.67384)
(2.93896e-15 -0.283598 6.86576)
(3.03499e-15 -0.276556 7.04858)
(2.81771e-15 -0.26505 7.22265)
(2.57066e-15 -0.253481 7.38618)
(2.09424e-15 -0.239935 7.54181)
(1.82899e-15 -0.227215 7.69144)
(1.70817e-15 -0.212694 7.83702)
(1.76817e-15 -0.198502 7.9766)
(1.38758e-15 -0.182472 8.10902)
(2.62339e-15 -0.167166 8.23561)
(1.91603e-15 -0.150745 8.35627)
(2.06574e-15 -0.13398 8.47067)
(3.26976e-16 -0.115049 8.57656)
(1.64137e-15 -0.0949154 8.67393)
(1.36518e-15 -0.0728573 8.75944)
(3.00267e-15 -0.0503428 8.83234)
(3.70323e-15 -0.0274124 8.89034)
(2.91688e-15 -0.00422495 8.93459)
(4.11252e-15 0.0198891 8.96228)
(2.93561e-15 0.0439736 8.97378)
(3.33574e-15 0.0679187 8.96706)
(5.67883e-16 0.0906013 8.94284)
(1.53393e-15 0.111086 8.90069)
(1.86611e-15 0.128948 8.84372)
(2.29088e-15 0.144223 8.77204)
(-1.37692e-15 0.157113 8.68739)
(9.96676e-16 0.167614 8.59095)
(1.27627e-15 0.176722 8.48546)
(-6.45014e-16 0.184389 8.37115)
(1.2676e-15 0.191062 8.2488)
(1.75358e-15 0.196028 8.11866)
(1.74482e-15 0.199777 7.98186)
(-5.80997e-16 0.201741 7.83914)
(3.11308e-16 0.202586 7.69162)
(4.54351e-16 0.20172 7.5405)
(1.42807e-15 0.199947 7.38708)
(3.61784e-15 0.196507 7.2324)
(2.44281e-15 0.192137 7.07694)
(1.97601e-15 0.186172 6.92198)
(1.84602e-15 0.179392 6.76807)
(1.7713e-15 0.171175 6.61581)
(2.03703e-15 0.162071 6.46577)
(1.41961e-15 0.151337 6.31944)
(1.75823e-15 0.139648 6.17771)
(1.60748e-15 0.126252 6.04227)
(9.7372e-16 0.111767 5.91433)
(1.39902e-15 0.0958401 5.79503)
(9.53101e-16 0.0800471 5.68688)
(1.00827e-15 0.0620989 5.58568)
(8.18076e-16 0.0465766 5.50451)
(9.22074e-16 0.0315951 5.39909)
(2.62026e-15 -0.0198546 18.7083)
(2.52165e-15 -0.0209377 18.6333)
(2.60753e-15 -0.0129503 18.5294)
(2.99561e-15 0.0114207 18.3835)
(2.59719e-15 0.0393458 18.1776)
(3.22077e-15 0.0501738 17.884)
(3.53117e-15 0.0617409 17.4824)
(2.75005e-15 0.0234302 17.0294)
(3.65224e-15 -0.00520987 16.5439)
(4.10071e-15 -0.0206643 16.0224)
(3.26857e-15 -0.0349963 15.4852)
(2.75348e-15 -0.0453889 14.9194)
(2.54789e-15 -0.0511438 14.3487)
(2.43987e-15 -0.0583758 13.8473)
(2.19883e-15 -0.0607345 13.4011)
(2.58212e-15 -0.0601752 12.9951)
(2.96993e-15 -0.0536518 12.6799)
(1.28833e-15 -0.0397152 12.4423)
(1.96629e-15 -0.0185239 12.2786)
(1.05423e-15 0.00233565 12.1748)
(2.47687e-15 0.0239747 12.103)
(3.52553e-15 0.045739 12.0684)
(6.55231e-16 0.0846243 12.0215)
(9.67738e-16 0.152326 11.8794)
(2.00403e-15 0.212004 11.6058)
(2.47576e-15 0.236966 11.2597)
(2.89402e-15 0.241654 10.8938)
(2.91456e-15 0.235225 10.528)
(1.31704e-15 0.240445 10.1492)
(3.74504e-15 0.271738 9.7533)
(1.66953e-15 0.305416 9.29353)
(1.79253e-15 0.311404 8.79914)
(1.64244e-15 0.307945 8.28485)
(1.54526e-15 0.328625 7.69926)
(9.91232e-16 0.310402 7.04785)
(1.50091e-15 0.225399 6.44539)
(1.65963e-15 0.129969 5.95496)
(1.14416e-15 0.0622691 5.55073)
(8.19499e-16 0.0102305 5.23889)
(1.35234e-15 -0.0385096 5.03212)
(6.66499e-16 -0.0901576 4.93125)
(8.59657e-16 -0.140992 4.91898)
(2.3984e-16 -0.190226 4.97626)
(4.45594e-16 -0.237175 5.08437)
(1.26456e-15 -0.280373 5.23082)
(1.83085e-15 -0.314848 5.41176)
(2.05516e-15 -0.337369 5.60681)
(2.78563e-15 -0.346696 5.80539)
(3.70091e-15 -0.349126 5.99917)
(3.24038e-15 -0.343726 6.18559)
(2.96549e-15 -0.334522 6.3571)
(3.49992e-15 -0.320607 6.51525)
(1.4564e-15 -0.306945 6.65854)
(1.47339e-15 -0.291922 6.79086)
(1.55132e-15 -0.278191 6.91526)
(1.57297e-15 -0.262983 7.0352)
(1.96074e-15 -0.248127 7.14935)
(6.45754e-17 -0.231346 7.25733)
(2.4081e-15 -0.215239 7.36063)
(1.89013e-15 -0.198064 7.4597)
(1.6671e-15 -0.180374 7.55483)
(1.60324e-15 -0.160062 7.64434)
(2.15932e-15 -0.137834 7.72858)
(2.00821e-15 -0.112936 7.8041)
(1.23307e-15 -0.0869777 7.86978)
(-1.05807e-16 -0.0604589 7.92301)
(1.8471e-15 -0.0331707 7.9653)
(3.9801e-15 -0.00438318 7.99464)
(7.92342e-16 0.0246337 8.01129)
(1.84713e-15 0.0540124 8.01285)
(-1.87935e-15 0.0823269 7.99915)
(2.86064e-16 0.108137 7.96911)
(5.39461e-16 0.130858 7.92689)
(8.69508e-16 0.151025 7.87321)
(1.2282e-15 0.168588 7.8084)
(-1.27205e-15 0.183257 7.73246)
(-1.82106e-15 0.196093 7.6477)
(1.1457e-16 0.20743 7.55433)
(7.02919e-16 0.217597 7.45295)
(1.7869e-15 0.225914 7.34408)
(1.02573e-15 0.232743 7.22879)
(2.37005e-15 0.237604 7.10787)
(2.92894e-16 0.241005 6.98161)
(-1.80922e-16 0.242374 6.85048)
(1.49559e-15 0.242304 6.71543)
(1.80931e-15 0.240262 6.57783)
(1.69052e-15 0.236787 6.43858)
(1.45326e-15 0.231377 6.29927)
(-4.40969e-17 0.224754 6.16127)
(1.31574e-15 0.216445 6.02486)
(9.469e-16 0.207076 5.8901)
(9.04603e-17 0.195912 5.75733)
(5.58012e-16 0.182892 5.6274)
(-4.80216e-16 0.167496 5.50249)
(-3.90173e-16 0.150269 5.38403)
(-8.61428e-16 0.130995 5.27357)
(-1.59683e-15 0.111489 5.17345)
(-1.60518e-15 0.0897597 5.08063)
(-1.60985e-15 0.0692185 5.00524)
(-1.86973e-15 0.0497653 4.90855)
(2.76151e-15 -0.0212218 18.0753)
(2.97143e-15 -0.027672 17.8584)
(3.20091e-15 -0.0193628 17.5983)
(1.5911e-15 0.00827408 17.2792)
(2.74165e-15 0.0434791 16.8861)
(2.82627e-15 0.0597336 16.3845)
(2.48805e-15 0.0820764 15.7547)
(3.17884e-15 0.0445861 15.0386)
(2.47369e-15 0.0171863 14.2631)
(2.35796e-15 0.00241666 13.4188)
(2.1556e-15 -0.0162004 12.5374)
(1.94276e-15 -0.0332031 11.6221)
(1.62691e-15 -0.0475833 10.7401)
(1.50211e-15 -0.066463 10.021)
(1.9107e-15 -0.0829149 9.46666)
(1.09773e-15 -0.0974688 9.0471)
(5.22005e-16 -0.105044 8.80092)
(1.30289e-15 -0.1047 8.69133)
(2.211e-15 -0.0914337 8.6998)
(2.73763e-15 -0.0744354 8.78734)
(2.64902e-15 -0.0525695 8.9098)
(2.91078e-15 -0.0273261 9.08563)
(2.27889e-15 0.0245588 9.25912)
(6.07471e-16 0.118577 9.35625)
(9.7706e-16 0.20432 9.30087)
(1.99542e-15 0.242079 9.13686)
(4.57694e-15 0.252644 8.96375)
(1.78773e-16 0.252392 8.78738)
(1.5418e-15 0.266107 8.55797)
(2.21172e-15 0.313516 8.29709)
(2.00576e-15 0.366392 7.9479)
(1.81793e-15 0.382586 7.52521)
(1.56048e-15 0.388018 7.05135)
(1.2312e-15 0.430603 6.48824)
(5.95278e-16 0.423199 5.81017)
(-1.31237e-15 0.315795 5.17455)
(7.68833e-16 0.193208 4.67576)
(-1.81084e-16 0.101412 4.29672)
(-2.66811e-16 0.0250398 4.05521)
(5.36475e-16 -0.0471152 3.94907)
(-1.29006e-16 -0.118275 3.95479)
(8.72266e-17 -0.183535 4.03788)
(-3.35166e-16 -0.242881 4.17162)
(5.68676e-16 -0.297547 4.33596)
(9.37873e-16 -0.346968 4.52142)
(1.09507e-15 -0.385661 4.72982)
(1.59302e-15 -0.409596 4.94403)
(2.09579e-15 -0.417663 5.15519)
(2.4222e-15 -0.417485 5.35606)
(2.43254e-15 -0.408803 5.54536)
(2.51597e-15 -0.395851 5.71634)
(2.79721e-15 -0.377885 5.87069)
(2.95811e-15 -0.360477 6.00637)
(2.81176e-15 -0.342546 6.12839)
(2.9358e-15 -0.326684 6.24061)
(2.51475e-15 -0.30995 6.34751)
(4.25015e-15 -0.293889 6.44845)
(1.92845e-15 -0.275945 6.5438)
(2.79675e-15 -0.258771 6.63498)
(4.25321e-16 -0.240794 6.72217)
(2.83714e-15 -0.222321 6.80588)
(3.06149e-15 -0.200983 6.88569)
(3.15641e-15 -0.17717 6.96237)
(2.98799e-15 -0.149953 7.03271)
(2.92406e-15 -0.120981 7.09561)
(2.35954e-15 -0.0913333 7.1471)
(3.24709e-15 -0.0608957 7.18834)
(4.60358e-15 -0.0285451 7.21852)
(3.4124e-15 0.00450826 7.23916)
(2.90001e-15 0.0387235 7.24728)
(1.50603e-15 0.0723295 7.24209)
(2.1982e-15 0.103122 7.22114)
(1.98438e-15 0.129931 7.1881)
(2.56412e-15 0.154012 7.14559)
(1.33205e-15 0.175683 7.09427)
(1.76262e-15 0.194297 7.03281)
(-4.05892e-16 0.21074 6.96305)
(-5.18025e-16 0.225627 6.88527)
(1.59976e-15 0.239166 6.79965)
(1.92812e-15 0.250653 6.70608)
(2.38128e-15 0.260312 6.60576)
(2.31338e-15 0.267756 6.50032)
(-1.53522e-15 0.273644 6.39085)
(8.40674e-16 0.277544 6.27715)
(-2.77303e-16 0.279679 6.15879)
(6.12681e-16 0.279378 6.03701)
(3.70527e-16 0.277036 5.91278)
(1.31832e-16 0.272289 5.78787)
(-2.33772e-16 0.265985 5.663)
(-2.1167e-15 0.257777 5.53993)
(-5.42699e-16 0.248238 5.41941)
(-9.01625e-16 0.236689 5.30149)
(-2.37515e-15 0.223325 5.18477)
(-2.22748e-15 0.206464 5.07156)
(-2.60344e-15 0.186899 4.96364)
(-3.09188e-15 0.164576 4.86303)
(-2.52946e-15 0.141591 4.77186)
(-3.09965e-15 0.116286 4.68831)
(-3.50062e-15 0.0913006 4.61954)
(-3.4454e-15 0.0675976 4.53281)
(2.85853e-15 -0.0257538 16.9255)
(2.73158e-15 -0.0377307 16.4488)
(3.06156e-15 -0.0291583 15.907)
(3.17387e-15 0.000467163 15.3262)
(2.47405e-15 0.0433449 14.7148)
(2.57657e-15 0.0647981 14.0343)
(2.67717e-15 0.102748 13.2568)
(2.17312e-15 0.0709765 12.367)
(2.02758e-15 0.0510903 11.3826)
(8.34109e-16 0.0433546 10.2722)
(1.37945e-15 0.0217964 9.09873)
(1.09479e-15 -0.00571022 7.90515)
(5.97637e-16 -0.038077 6.84595)
(1.18281e-17 -0.0818191 6.12835)
(4.08019e-16 -0.124799 5.72079)
(2.93709e-16 -0.16156 5.50911)
(-6.52727e-16 -0.185928 5.47441)
(7.38045e-16 -0.200405 5.54968)
(3.29285e-15 -0.195313 5.71542)
(3.9554e-16 -0.181921 5.9411)
(7.45179e-16 -0.159302 6.18815)
(1.73298e-15 -0.133886 6.48846)
(-1.61686e-15 -0.0717036 6.84369)
(6.3538e-15 0.04838 7.15163)
(9.1671e-16 0.165678 7.29567)
(-3.66704e-15 0.220393 7.28179)
(-1.43387e-15 0.235719 7.23132)
(3.61332e-15 0.241017 7.1895)
(3.06246e-15 0.265753 7.08414)
(1.64418e-15 0.332229 6.93898)
(5.06826e-15 0.409839 6.68596)
(9.68346e-16 0.441861 6.329)
(2.44435e-15 0.461101 5.85668)
(1.76441e-15 0.536493 5.27578)
(-5.94833e-16 0.540178 4.59181)
(-2.74058e-15 0.40399 3.95875)
(-1.07913e-15 0.245886 3.5142)
(-1.4795e-15 0.123859 3.23699)
(-7.95753e-16 0.0203461 3.12862)
(2.78936e-16 -0.0739444 3.15204)
(3.57603e-16 -0.160659 3.26182)
(4.96099e-16 -0.235722 3.41853)
(-4.65967e-16 -0.301014 3.59919)
(-2.9633e-16 -0.360292 3.78958)
(-1.75962e-16 -0.414092 3.98645)
(-2.4099e-16 -0.456194 4.19824)
(3.28336e-16 -0.481029 4.41225)
(1.08762e-15 -0.487545 4.62205)
(1.31127e-15 -0.484487 4.82038)
(1.35826e-15 -0.47235 5.00575)
(1.40176e-15 -0.455465 5.17205)
(1.70465e-15 -0.433036 5.32121)
(1.53942e-15 -0.411294 5.44982)
(1.46531e-15 -0.389957 5.56274)
(1.56356e-15 -0.371738 5.66465)
(1.34479e-15 -0.353426 5.76107)
(1.95585e-15 -0.33625 5.85135)
(2.39421e-15 -0.317356 5.93643)
(4.00466e-15 -0.299128 6.01882)
(1.83283e-15 -0.280187 6.09837)
(5.4321e-15 -0.260922 6.17394)
(4.52432e-15 -0.238847 6.24589)
(4.00495e-15 -0.213898 6.31638)
(3.26217e-15 -0.18492 6.38248)
(3.2115e-15 -0.153257 6.44321)
(3.92694e-15 -0.120397 6.49444)
(5.47581e-15 -0.0866819 6.53573)
(5.45012e-15 -0.0509749 6.5654)
(4.25023e-15 -0.0148553 6.5869)
(3.65843e-15 0.0231903 6.59879)
(2.07834e-15 0.0614406 6.59939)
(2.51636e-15 0.097045 6.58555)
(1.45821e-15 0.127677 6.55979)
(3.54451e-15 0.15492 6.52487)
(6.628e-15 0.17986 6.48329)
(2.01179e-15 0.201866 6.43339)
(-2.18916e-15 0.221502 6.37597)
(8.03571e-16 0.239632 6.3113)
(-5.68446e-16 0.256428 6.23914)
(4.75593e-16 0.271091 6.15929)
(1.18443e-15 0.283497 6.07269)
(1.80424e-15 0.293233 5.9801)
(1.08725e-15 0.301052 5.88341)
(-1.72063e-15 0.307074 5.7844)
(-2.09789e-16 0.311478 5.68147)
(1.74814e-15 0.31317 5.5744)
(-5.79612e-16 0.312171 5.46405)
(-9.11209e-16 0.308322 5.35252)
(-1.22955e-15 0.302363 5.24042)
(-1.55069e-15 0.294053 5.12932)
(-1.9157e-15 0.2842 5.01926)
(-1.28752e-15 0.272365 4.91342)
(-1.48644e-15 0.258405 4.80941)
(-2.86956e-15 0.240766 4.70764)
(-2.35042e-15 0.21924 4.61)
(-3.95733e-15 0.194127 4.51905)
(-3.24361e-15 0.16785 4.43672)
(-2.71665e-15 0.139148 4.36236)
(-3.0448e-15 0.110161 4.30038)
(-3.01186e-15 0.082334 4.22405)
(2.81762e-15 -0.0314803 15.0182)
(2.76489e-15 -0.0507716 14.0284)
(2.62836e-15 -0.0469485 13.1248)
(2.26532e-15 -0.0215229 12.3332)
(3.2774e-15 0.0253 11.6458)
(2.30661e-15 0.0491866 10.9908)
(3.63165e-15 0.110597 10.2955)
(2.11139e-15 0.09415 9.42114)
(1.02811e-15 0.0934649 8.38326)