/*--------------------------------*- C++ -*----------------------------------*\
| =========                 |                                                 |
| \\      /  F ield         | OpenFOAM: The Open Source CFD Toolbox           |
|  \\    /   O peration     | Version:  4.1                                   |
|   \\  /    A nd           | Web:      www.OpenFOAM.org                      |
|    \\/     M anipulation  |                                                 |
\*---------------------------------------------------------------------------*/
FoamFile
{
    version     2.0;
    format      ascii;
    class       volScalarField;
    location    "7";
    object      p;
}
// * * * * * * * * * * * * * * * * * * * * * * * * * * * * * * * * * * * * * //

dimensions      [0 2 -2 0 0 0 0];

internalField   nonuniform List<scalar> 
26785
(
-2.88515
-3.65689
-4.28087
-5.08883
-5.62336
-5.68652
-5.28472
-4.73486
-4.30794
-3.79104
-3.05379
-1.62761
-0.520909
0.443586
1.17139
1.94046
2.55781
2.97731
3.04796
2.87348
2.65747
2.50063
2.33067
2.02644
1.59525
1.10359
0.631789
0.212914
-0.183478
-0.558946
-0.876546
-1.17775
-1.47065
-1.71039
-1.86599
-1.97261
-2.03594
-2.03902
-1.98777
-1.91357
-1.88473
-1.89505
-1.85815
-1.71756
-1.50041
-1.23507
-0.985986
-0.83778
-0.708917
-0.633717
-0.528102
-0.441802
-0.308191
-0.188817
-0.0399483
0.0918755
0.236233
0.340508
0.429441
0.480593
0.538944
0.58288
0.627257
0.64862
0.669469
0.678606
0.697126
0.71067
0.728941
0.742076
0.763634
0.787764
0.818621
0.84232
0.856382
0.852487
0.839817
0.824981
0.820713
0.829319
0.853048
0.884792
0.918924
0.946265
0.962438
0.964197
0.95434
0.936486
0.915161
0.89134
0.863476
0.82799
0.781334
0.72145
0.648144
0.561766
0.466018
0.353425
0.241798
0.0677599
-2.89953
-3.65614
-4.27974
-5.09386
-5.63195
-5.69141
-5.28507
-4.7345
-4.308
-3.79665
-3.05978
-1.62379
-0.515751
0.447562
1.17154
1.94171
2.56459
2.98828
3.05439
2.87531
2.65748
2.50273
2.33592
2.03155
1.59732
1.10314
0.630856
0.212921
-0.185651
-0.561269
-0.877593
-1.18015
-1.47555
-1.71549
-1.86826
-1.97464
-2.04047
-2.04349
-1.98806
-1.90885
-1.88238
-1.89868
-1.86336
-1.721
-1.50218
-1.23245
-0.979212
-0.832446
-0.705876
-0.632547
-0.527443
-0.441329
-0.306918
-0.187678
-0.0386871
0.093451
0.238752
0.343062
0.431143
0.480894
0.539457
0.583947
0.628409
0.649016
0.669155
0.678
0.696828
0.710436
0.728254
0.740489
0.761421
0.785615
0.817096
0.841565
0.85587
0.85136
0.837552
0.821702
0.816918
0.82569
0.850165
0.883133
0.918603
0.947166
0.964097
0.966067
0.955956
0.937807
0.916354
0.89277
0.86533
0.830359
0.784048
0.724365
0.65104
0.564485
0.469115
0.354604
0.261336
0.0558099
-2.92573
-3.65448
-4.2784
-5.10536
-5.65017
-5.70301
-5.28622
-4.73477
-4.30918
-3.80851
-3.07303
-1.61771
-0.506656
0.453905
1.1706
1.94332
2.57768
3.00956
3.06695
2.87869
2.6579
2.50761
2.34768
2.04248
1.60229
1.10335
0.630429
0.213965
-0.189566
-0.565678
-0.878791
-1.18363
-1.48437
-1.72594
-1.8738
-1.98022
-2.05123
-2.05382
-1.98994
-1.90059
-1.87914
-1.90782
-1.87576
-1.72959
-1.50717
-1.22846
-0.966779
-0.823515
-0.702932
-0.633333
-0.529253
-0.442645
-0.306066
-0.185989
-0.0362317
0.0969782
0.243691
0.348484
0.435309
0.483037
0.541639
0.587073
0.631201
0.65061
0.66935
0.677882
0.697144
0.711319
0.728759
0.740409
0.760992
0.786028
0.818824
0.844739
0.859268
0.853896
0.838446
0.821519
0.816393
0.825934
0.851692
0.886395
0.923306
0.952985
0.97018
0.97184
0.960876
0.942059
0.920168
0.896592
0.869187
0.834251
0.787632
0.727467
0.653458
0.566118
0.470413
0.354874
0.262348
0.0697033
-2.95899
-3.64859
-4.27728
-5.12474
-5.68024
-5.72108
-5.286
-4.73194
-4.30825
-3.82664
-3.09344
-1.60444
-0.490874
0.463913
1.16832
1.94508
2.59844
3.04284
3.08587
2.88252
2.65729
2.51382
2.36534
2.05921
1.61022
1.10414
0.631135
0.217802
-0.193597
-0.571078
-0.87935
-1.18665
-1.49411
-1.73874
-1.88113
-1.98929
-2.06856
-2.07073
-1.99522
-1.89187
-1.87631
-1.91988
-1.89117
-1.73969
-1.51228
-1.22239
-0.950656
-0.809743
-0.697094
-0.629607
-0.528206
-0.439052
-0.301851
-0.179395
-0.0302955
0.10513
0.251009
0.356531
0.440517
0.487468
0.545
0.591875
0.634021
0.652584
0.668603
0.677198
0.695722
0.710498
0.726563
0.737951
0.757763
0.783943
0.817314
0.844069
0.85742
0.850152
0.831949
0.813563
0.807793
0.818205
0.845121
0.881307
0.918945
0.948823
0.965268
0.965863
0.953702
0.934311
0.912385
0.88929
0.862418
0.827937
0.781524
0.721467
0.647505
0.560502
0.464496
0.351637
0.246225
0.0851254
-2.99637
-3.636
-4.27728
-5.15287
-5.72274
-5.7468
-5.28423
-4.72828
-4.3066
-3.85082
-3.11964
-1.58644
-0.470387
0.473955
1.16387
1.94714
2.62594
3.08427
3.10841
2.88698
2.65804
2.52265
2.38674
2.07715
1.61716
1.10416
0.632615
0.223941
-0.195572
-0.575383
-0.879828
-1.18905
-1.501
-1.74807
-1.88531
-1.9966
-2.08503
-2.08724
-2.00164
-1.88727
-1.87769
-1.93228
-1.90482
-1.74939
-1.51982
-1.22415
-0.948981
-0.810695
-0.704035
-0.634276
-0.534423
-0.441599
-0.305317
-0.180794
-0.0327094
0.105638
0.2507
0.357101
0.438757
0.485788
0.5433
0.592089
0.633346
0.651753
0.66636
0.675643
0.694431
0.709977
0.725325
0.736681
0.756725
0.784418
0.819022
0.846423
0.858451
0.848617
0.827505
0.807422
0.801268
0.812652
0.841136
0.879001
0.917588
0.947491
0.962932
0.96208
0.948663
0.928812
0.907227
0.884851
0.85862
0.824375
0.77779
0.717316
0.642893
0.555655
0.458876
0.347621
0.234647
0.0895717
-3.03267
-3.61298
-4.2766
-5.18682
-5.7758
-5.77842
-5.28171
-4.7241
-4.30341
-3.88026
-3.14953
-1.5611
-0.441726
0.488908
1.16195
1.95212
2.65803
3.1288
3.1297
2.88858
2.6567
2.52646
2.39852
2.08115
1.60868
1.08931
0.620646
0.218156
-0.205299
-0.584438
-0.886458
-1.19795
-1.51165
-1.75977
-1.89272
-2.00611
-2.10142
-2.10385
-2.01079
-1.89109
-1.88845
-1.94895
-1.91841
-1.75807
-1.52766
-1.22864
-0.954446
-0.821493
-0.716746
-0.642006
-0.54021
-0.4436
-0.307285
-0.182076
-0.0344533
0.106319
0.251423
0.358245
0.438917
0.485473
0.543231
0.592988
0.633253
0.650647
0.664157
0.67463
0.694578
0.710961
0.725458
0.735964
0.75573
0.784505
0.820398
0.848291
0.858722
0.845641
0.821035
0.798701
0.791872
0.803894
0.833637
0.872759
0.911993
0.941697
0.955856
0.953013
0.937848
0.917292
0.896127
0.874683
0.849321
0.815471
0.768864
0.708067
0.633164
0.54561
0.44829
0.338508
0.223062
0.0869269
-3.06992
-3.58696
-4.28012
-5.22649
-5.83702
-5.81663
-5.2805
-4.7234
-4.30168
-3.91078
-3.18019
-1.53364
-0.40707
0.508091
1.15989
1.95172
2.67711
3.1513
3.13041
2.87461
2.64397
2.5186
2.39576
2.0698
1.58786
1.06537
0.599947
0.202857
-0.220923
-0.595941
-0.897056
-1.21212
-1.52736
-1.77332
-1.90281
-2.01876
-2.11705
-2.11623
-2.01702
-1.89505
-1.90066
-1.96479
-1.9286
-1.76308
-1.53495
-1.23333
-0.962872
-0.838188
-0.734003
-0.653983
-0.548879
-0.448734
-0.312133
-0.186962
-0.0391665
0.104039
0.248792
0.355341
0.434569
0.480895
0.540513
0.591635
0.631089
0.647466
0.660297
0.672951
0.695445
0.713319
0.727241
0.736729
0.75628
0.786293
0.823876
0.852411
0.860964
0.844136
0.815641
0.790867
0.783477
0.796449
0.827795
0.868186
0.90776
0.936824
0.949198
0.943859
0.926764
0.90569
0.885265
0.865
0.840521
0.806884
0.759995
0.698682
0.623103
0.535038
0.437328
0.328909
0.213414
0.0831308
-3.09363
-3.5527
-4.28125
-5.26297
-5.89905
-5.85849
-5.28522
-4.7291
-4.30783
-3.95169
-3.22361
-1.52657
-0.397837
0.504711
1.14201
1.93234
2.66757
3.14601
3.10879
2.84571
2.62237
2.50646
2.38912
2.05349
1.56156
1.03376
0.569651
0.179272
-0.243884
-0.611978
-0.911636
-1.23115
-1.5463
-1.78721
-1.91228
-2.03282
-2.1348
-2.12906
-2.02139
-1.89805
-1.91324
-1.97933
-1.93611
-1.76533
-1.54109
-1.23726
-0.971806
-0.854923
-0.749609
-0.664701
-0.556361
-0.45322
-0.316829
-0.191948
-0.0426921
0.103402
0.24646
0.350898
0.42685
0.473009
0.536126
0.588575
0.627428
0.643417
0.656053
0.671339
0.697431
0.717162
0.730413
0.738634
0.75792
0.789048
0.828206
0.857259
0.863327
0.841979
0.809305
0.782259
0.774643
0.788804
0.821821
0.863288
0.902677
0.930449
0.940521
0.932482
0.913609
0.892527
0.873161
0.854005
0.830078
0.796216
0.748654
0.686628
0.610329
0.521762
0.423887
0.316957
0.202978
0.0778262
-3.09931
-3.51539
-4.27987
-5.29234
-5.95722
-5.90661
-5.31124
-4.75756
-4.33945
-4.01766
-3.28964
-1.55025
-0.422149
0.471519
1.10142
1.89687
2.64243
3.12605
3.07457
2.80613
2.59196
2.48817
2.37726
2.03116
1.52945
0.996228
0.533681
0.153739
-0.269911
-0.630657
-0.929968
-1.25392
-1.56374
-1.79972
-1.92033
-2.04716
-2.15551
-2.14348
-2.02564
-1.90343
-1.92687
-1.99131
-1.94099
-1.76695
-1.54671
-1.24214
-0.983377
-0.872053
-0.764277
-0.675065
-0.563649
-0.458491
-0.323096
-0.19811
-0.0455425
0.103767
0.243591
0.344121
0.415537
0.461975
0.529765
0.58301
0.621938
0.638449
0.651952
0.670221
0.700364
0.722069
0.734405
0.741068
0.760249
0.792669
0.833311
0.862747
0.865628
0.839082
0.802288
0.773554
0.766234
0.781834
0.816522
0.858765
0.897491
0.923437
0.930837
0.920304
0.90025
0.879864
0.861845
0.843489
0.819576
0.784958
0.736387
0.673521
0.59656
0.507609
0.409857
0.304622
0.193014
0.0724862
-3.08404
-3.48155
-4.27411
-5.30943
-6.00624
-5.95792
-5.36208
-4.8078
-4.38466
-4.10209
-3.38278
-1.59805
-0.462552
0.426991
1.04839
1.84631
2.60525
3.10094
3.03413
2.75743
2.55188
2.46079
2.35803
2.00307
1.49203
0.952627
0.492386
0.127488
-0.298141
-0.649326
-0.952817
-1.28075
-1.57842
-1.81207
-1.92923
-2.05856
-2.17889
-2.15915
-2.02944
-1.91072
-1.93908
-1.99803
-1.9414
-1.76682
-1.55035
-1.24638
-0.996229
-0.88772
-0.775593
-0.68261
-0.569033
-0.463512
-0.330239
-0.203982
-0.0465654
0.105422
0.240358
0.335363
0.401884
0.449268
0.521619
0.575468
0.615645
0.633369
0.648643
0.670195
0.704131
0.727575
0.738574
0.743453
0.762556
0.79641
0.838547
0.868086
0.867081
0.834806
0.794276
0.764642
0.758161
0.775263
0.81136
0.853751
0.891073
0.914687
0.919197
0.906617
0.886241
0.867135
0.850379
0.832299
0.807777
0.771952
0.722225
0.658529
0.581081
0.491984
0.394721
0.291477
0.182834
0.0668639
-3.0548
-3.46761
-4.2714
-5.32094
-6.04774
-6.00793
-5.41702
-4.86859
-4.43312
-4.18894
-3.4879
-1.65764
-0.50869
0.381522
0.990159
1.78647
2.55859
3.07114
2.98951
2.70345
2.50669
2.4275
2.33248
1.96995
1.45107
0.906199
0.450107
0.102076
-0.325076
-0.666157
-0.978883
-1.30787
-1.59126
-1.82682
-1.94104
-2.06722
-2.20433
-2.17567
-2.03334
-1.92046
-1.94998
-1.99986
-1.93819
-1.76657
-1.55346
-1.25078
-1.01063
-0.901769
-0.784223
-0.688526
-0.573793
-0.46933
-0.338336
-0.208827
-0.0456632
0.107764
0.23623
0.324663
0.386951
0.435987
0.511502
0.566367
0.608726
0.628167
0.645746
0.670759
0.7078
0.732376
0.741699
0.744976
0.764309
0.799797
0.843406
0.8725
0.867019
0.828998
0.785516
0.755765
0.750555
0.769257
0.806434
0.848184
0.88324
0.90407
0.90577
0.891841
0.872178
0.854766
0.838992
0.820694
0.795062
0.757853
0.707106
0.642814
0.565212
0.476335
0.379947
0.27888
0.173389
0.0616519
-2.99891
-3.4613
-4.2655
-5.33017
-6.08402
-6.05646
-5.46323
-4.92866
-4.47838
-4.27298
-3.59315
-1.71876
-0.557319
0.340008
0.929237
1.71836
2.49964
3.036
2.94078
2.64438
2.45652
2.38788
2.29979
1.93151
1.40603
0.856144
0.405834
0.0746887
-0.346036
-0.680883
-1.00785
-1.33189
-1.60497
-1.84516
-1.955
-2.0751
-2.22902
-2.19042
-2.03632
-1.93109
-1.95812
-1.99489
-1.92968
-1.76474
-1.55494
-1.25438
-1.02453
-0.912418
-0.788891
-0.691763
-0.577652
-0.475558
-0.345535
-0.211257
-0.0430273
0.110099
0.231097
0.312606
0.371746
0.422812
0.49958
0.55639
0.601587
0.623198
0.643174
0.671806
0.711276
0.736258
0.743809
0.745895
0.765607
0.80271
0.847562
0.875357
0.865163
0.822007
0.776657
0.747565
0.743827
0.764215
0.801768
0.841767
0.873724
0.891309
0.890548
0.876007
0.857812
0.842144
0.826946
0.808018
0.780937
0.742375
0.690891
0.626335
0.548926
0.460614
0.365414
0.266673
0.164424
0.056859
-2.94703
-3.46896
-4.26527
-5.34619
-6.11992
-6.10615
-5.5009
-4.98835
-4.52458
-4.35071
-3.68984
-1.77594
-0.606427
0.301072
0.866289
1.64683
2.43298
2.9962
2.89006
2.58399
2.40627
2.34721
2.26318
1.89019
1.35866
0.80608
0.3632
0.0478048
-0.358415
-0.69606
-1.03629
-1.35051
-1.61994
-1.86546
-1.97104
-2.08603
-2.25244
-2.20318
-2.03979
-1.94328
-1.9654
-1.98536
-1.91801
-1.76257
-1.55547
-1.25844
-1.03818
-0.920296
-0.79186
-0.694291
-0.58186
-0.482525
-0.350614
-0.211008
-0.0394598
0.111841
0.224957
0.300062
0.356705
0.409894
0.48633
0.54615
0.5941
0.61801
0.640378
0.672622
0.71375
0.738356
0.744345
0.745929
0.766267
0.804779
0.850397
0.876028
0.861459
0.814351
0.768422
0.740747
0.738179
0.759919
0.797137
0.834467
0.862708
0.876817
0.874296
0.860032
0.84383
0.829776
0.814803
0.794883
0.766251
0.726562
0.674691
0.610225
0.53334
0.445902
0.352126
0.255721
0.156524
0.0528218
-2.90837
-3.47819
-4.26338
-5.36317
-6.15042
-6.15102
-5.53435
-5.03723
-4.56577
-4.42018
-3.77831
-1.82799
-0.65413
0.264919
0.801041
1.5711
2.35792
2.95162
2.836
2.52119
2.35629
2.30472
2.22087
1.84453
1.30743
0.754967
0.321486
0.0164448
-0.36651
-0.71056
-1.06056
-1.36291
-1.63601
-1.88706
-1.99008
-2.09693
-2.27083
-2.21209
-2.043
-1.95573
-1.9696
-1.97027
-1.90253
-1.75818
-1.55303
-1.26178
-1.04973
-0.924361
-0.792642
-0.695251
-0.585751
-0.488641
-0.352041
-0.207828
-0.0359726
0.112356
0.217943
0.287439
0.341996
0.39761
0.472894
0.536463
0.586539
0.612736
0.637491
0.673194
0.71539
0.738876
0.74381
0.745496
0.766496
0.805971
0.85147
0.87418
0.855707
0.806104
0.761561
0.736086
0.733848
0.756012
0.792305
0.826249
0.850202
0.860797
0.857263
0.844078
0.829999
0.817402
0.802345
0.781031
0.750854
0.710312
0.658348
0.594255
0.518101
0.43174
0.339614
0.245556
0.149122
0.0493247
-2.88498
-3.48455
-4.2619
-5.38015
-6.1758
-6.18965
-5.5757
-5.0787
-4.60114
-4.47807
-3.85533
-1.87341
-0.696835
0.229978
0.736231
1.49623
2.28148
2.90258
2.77984
2.45948
2.31111
2.26419
2.17763
1.798
1.2553
0.70518
0.28174
-0.0177872
-0.375231
-0.724844
-1.0801
-1.36896
-1.65179
-1.90685
-2.01087
-2.11174
-2.28393
-2.21709
-2.04686
-1.96947
-1.97037
-1.95336
-1.88715
-1.75336
-1.54928
-1.2651
-1.05985
-0.926736
-0.793535
-0.696791
-0.590322
-0.49284
-0.350088
-0.202578
-0.0331354
0.11143
0.210295
0.275072
0.328097
0.386295
0.460254
0.527214
0.578664
0.607061
0.634308
0.672864
0.715829
0.737586
0.741992
0.744226
0.766019
0.805867
0.850001
0.869805
0.847789
0.797866
0.756726
0.732845
0.730004
0.751848
0.787278
0.817303
0.836453
0.843849
0.840154
0.828748
0.816701
0.805476
0.79003
0.76715
0.735589
0.694507
0.642723
0.579252
0.503991
0.418798
0.328437
0.236613
0.142469
0.046472
-2.87143
-3.48369
-4.25597
-5.39208
-6.19626
-6.21791
-5.62648
-5.11206
-4.62452
-4.52296
-3.91866
-1.90952
-0.733073
0.196909
0.673836
1.42152
2.20216
2.8465
2.71649
2.39658
2.26785
2.22164
2.13205
1.74853
1.20103
0.654677
0.238342
-0.0554748
-0.386189
-0.74179
-1.09926
-1.37062
-1.66866
-1.9244
-2.02817
-2.13075
-2.29048
-2.21707
-2.05089
-1.98373
-1.9646
-1.93453
-1.87142
-1.74628
-1.54357
-1.26647
-1.0673
-0.926881
-0.793105
-0.698029
-0.59422
-0.493737
-0.344899
-0.195808
-0.0310105
0.108924
0.202288
0.263259
0.31562
0.376351
0.449092
0.518539
0.57087
0.601302
0.631144
0.671634
0.715331
0.735138
0.73949
0.742271
0.764922
0.804468
0.845689
0.86312
0.837496
0.790522
0.754291
0.730185
0.726631
0.7477
0.782405
0.807686
0.821386
0.826388
0.82342
0.814019
0.803748
0.793542
0.777397
0.753024
0.720267
0.678899
0.627471
0.564785
0.490492
0.406509
0.317986
0.228252
0.135964
0.0439972
-2.86332
-3.47742
-4.24797
-5.39846
-6.2148
-6.23837
-5.68355
-5.14689
-4.64076
-4.55678
-3.96573
-1.93444
-0.764248
0.163887
0.617551
1.34867
2.12496
2.78298
2.64549
2.33587
2.22678
2.18046
2.08624
1.69742
1.14535
0.607727
0.194269
-0.0907886
-0.398436
-0.761152
-1.11884
-1.37013
-1.68797
-1.942
-2.04162
-2.14852
-2.29384
-2.21505
-2.05741
-1.99776
-1.95495
-1.91885
-1.85819
-1.7382
-1.53757
-1.2667
-1.07368
-0.926784
-0.793033
-0.700846
-0.597064
-0.491574
-0.337549
-0.18879
-0.0294373
0.105147
0.194096
0.252184
0.304908
0.367609
0.439457
0.510084
0.562852
0.595197
0.627809
0.669212
0.71345
0.731519
0.736102
0.739314
0.762582
0.800826
0.838657
0.854777
0.825838
0.785058
0.754136
0.728532
0.725156
0.745226
0.778492
0.797636
0.805511
0.809296
0.808005
0.800419
0.791657
0.78191
0.76502
0.739322
0.705621
0.664224
0.613313
0.551543
0.478221
0.395507
0.308828
0.220919
0.130111
0.042112
-2.85928
-3.46711
-4.23494
-5.39629
-6.2307
-6.25336
-5.73828
-5.17836
-4.64639
-4.58028
-3.99352
-1.94725
-0.790873
0.129899
0.5722
1.27638
2.05264
2.71026
2.56147
2.27523
2.18328
2.13908
2.03207
1.64127
1.09077
0.56795
0.155844
-0.121516
-0.41451
-0.783101
-1.13847
-1.37206
-1.7056
-1.96104
-2.05265
-2.15367
-2.29121
-2.21218
-2.06644
-2.00561
-1.94124
-1.90705
-1.84609
-1.72744
-1.5304
-1.26432
-1.07796
-0.924635
-0.791827
-0.703248
-0.597494
-0.485662
-0.328239
-0.182202
-0.0284313
0.100415
0.186136
0.241976
0.296215
0.360138
0.431707
0.502298
0.555173
0.589374
0.624699
0.666025
0.710156
0.727089
0.732216
0.735748
0.759161
0.794555
0.829246
0.844434
0.813312
0.780639
0.7542
0.7283
0.727242
0.746172
0.77642
0.787461
0.789356
0.792954
0.793987
0.78769
0.779838
0.770185
0.752785
0.725819
0.691378
0.650151
0.599857
0.539027
0.466583
0.385308
0.300552
0.214292
0.124697
0.040744
-2.86011
-3.4574
-4.22068
-5.38863
-6.24236
-6.26906
-5.79135
-5.21008
-4.64566
-4.5959
-4.00031
-1.94738
-0.80895
0.0945527
0.541738
1.2092
1.99604
2.63123
2.47315
2.21618
2.13975
2.09676
1.97183
1.5883
1.04425
0.533391
0.126621
-0.146175
-0.432374
-0.802429
-1.15079
-1.3812
-1.71487
-1.9726
-2.05699
-2.15544
-2.28486
-2.20882
-2.07538
-2.00568
-1.92759
-1.89935
-1.83609
-1.71585
-1.52356
-1.26184
-1.08161
-0.921966
-0.791619
-0.704915
-0.596159
-0.476876
-0.31832
-0.176871
-0.0278275
0.0952415
0.178656
0.232578
0.28942
0.353399
0.425174
0.494738
0.547611
0.584071
0.621718
0.661975
0.705414
0.721779
0.727487
0.731166
0.754211
0.785308
0.817927
0.831229
0.801339
0.776783
0.7521
0.7296
0.731611
0.748525
0.774642
0.777383
0.774095
0.778255
0.781687
0.776288
0.768474
0.758817
0.741135
0.713128
0.678252
0.637372
0.587788
0.527811
0.456182
0.376491
0.293576
0.208769
0.120247
0.040156
-2.86278
-3.44645
-4.20155
-5.37269
-6.24858
-6.28356
-5.83851
-5.23611
-4.63644
-4.59887
-3.98025
-1.93733
-0.81743
0.0595899
0.53112
1.16578
1.9539
2.5463
2.39073
2.15377
2.09139
2.04505
1.90438
1.53603
1.00143
0.495974
0.104768
-0.163463
-0.453131
-0.820827
-1.15364
-1.4013
-1.71927
-1.96746
-2.05349
-2.16122
-2.27732
-2.20906
-2.07932
-1.99676
-1.91384
-1.89143
-1.82531
-1.70384
-1.51648
-1.2578
-1.08249
-0.916048
-0.790705
-0.704371
-0.592775
-0.466048
-0.308318
-0.172654
-0.0274363
0.0893646
0.172053
0.224776
0.284311
0.347197
0.419742
0.487795
0.540685
0.579828
0.618784
0.657068
0.699583
0.715999
0.722333
0.726231
0.748393
0.773953
0.805579
0.815804
0.790633
0.772785
0.748274
0.732744
0.735448
0.749179
0.771215
0.767376
0.760669
0.765874
0.770925
0.765979
0.757729
0.748018
0.729813
0.700883
0.665837
0.62541
0.576586
0.517213
0.446587
0.368732
0.287461
0.203999
0.116503
0.040233
-2.86818
-3.43641
-4.18038
-5.3517
-6.25078
-6.29663
-5.88315
-5.25864
-4.62363
-4.58798
-3.93939
-1.92286
-0.811707
0.0292369
0.541455
1.1682
1.92089
2.46151
2.31525
2.09068
2.03499
1.98738
1.83774
1.48684
0.95991
0.458978
0.0873934
-0.180976
-0.473176
-0.837539
-1.15429
-1.42342
-1.72772
-1.96517
-2.04915
-2.17015
-2.27317
-2.21454
-2.08002
-1.98318
-1.90207
-1.88301
-1.81432
-1.69334
-1.5094
-1.25179
-1.08182
-0.909726
-0.790961
-0.702816
-0.587671
-0.454947
-0.299233
-0.16955
-0.026797
0.083277
0.166271
0.218512
0.279909
0.341429
0.414642
0.481083
0.534144
0.576265
0.615288
0.65098
0.692792
0.709701
0.716376
0.720609
0.741533
0.761534
0.792985
0.799736
0.780892
0.768267
0.746625
0.737573
0.737691
0.74725
0.765698
0.757247
0.749487
0.756231
0.761792
0.756814
0.748444
0.7387
0.71955
0.689796
0.654758
0.614826
0.566731
0.507723
0.438373
0.362411
0.282402
0.200223
0.113587
0.0406555
-2.87316
-3.42355
-4.15424
-5.32248
-6.24735
-6.303
-5.91812
-5.27002
-4.60426
-4.55975
-3.87738
-1.89913
-0.789986
-0.00195605
0.539299
1.17206
1.88134
2.37562
2.24449
2.03154
1.97237
1.92597
1.7715
1.43799
0.91862
0.425893
0.067627
-0.204451
-0.490995
-0.852564
-1.1547
-1.44115
-1.73696
-1.96896
-2.04876
-2.17676
-2.26703
-2.21466
-2.07511
-1.96369
-1.89208
-1.87219
-1.80106
-1.68094
-1.49871
-1.24092
-1.07672
-0.901633
-0.790194
-0.700564
-0.580806
-0.443991
-0.290769
-0.16712
-0.0253342
0.0784647
0.161517
0.21381
0.275878
0.337059
0.410692
0.47547
0.528615
0.573228
0.610479
0.643803
0.685256
0.703177
0.710322
0.714843
0.734183
0.749116
0.780973
0.78426
0.771147
0.76203
0.747546
0.742525
0.738755
0.743275
0.758691
0.746861
0.740262
0.748746
0.75375
0.748445
0.740456
0.730299
0.709942
0.679554
0.644661
0.605214
0.557656
0.498967
0.431281
0.35719
0.278118
0.197272
0.111528
0.0410167
-2.87999
-3.41064
-4.12819
-5.29132
-6.241
-6.30852
-5.94405
-5.27267
-4.58122
-4.52387
-3.79949
-1.86484
-0.77036
-0.0329155
0.543228
1.16822
1.83893
2.28787
2.17821
1.98361
1.91362
1.86516
1.70771
1.38736
0.878932
0.398353
0.0450672
-0.229514
-0.504642
-0.867637
-1.15918
-1.45619
-1.7434
-1.9702
-2.0528
-2.17922
-2.25451
-2.21732
-2.06744
-1.93935
-1.88457
-1.86006
-1.78722
-1.66549
-1.48547
-1.23038
-1.07001
-0.894035
-0.78854
-0.699513
-0.573347
-0.433725
-0.283203
-0.165089
-0.0228628
0.0763715
0.157517
0.209511
0.271589
0.333689
0.407295
0.47059
0.523645
0.570197
0.603814
0.635437
0.677099
0.696399
0.704288
0.708693
0.726179
0.736946
0.769526
0.769363
0.761269
0.755196
0.748501
0.745305
0.737506
0.737247
0.750675
0.736607
0.73296
0.743049
0.746811
0.741569
0.734062
0.722775
0.701041
0.670383
0.635789
0.596875
0.549509
0.491445
0.425691
0.352979
0.274372
0.194553
0.1096
0.0411119
-2.88707
-3.39666
-4.10093
-5.25482
-6.22828
-6.31194
-5.95528
-5.26035
-4.55074
-4.47676
-3.69659
-1.81612
-0.755378
-0.0583801
0.562774
1.17132
1.79525
2.19311
2.11425
1.93974
1.85214
1.80201
1.63663
1.32982
0.838893
0.371959
0.0225605
-0.249994
-0.517859
-0.884545
-1.16597
-1.47198
-1.75051
-1.96088
-2.05569
-2.17335
-2.23426
-2.21679
-2.0536
-1.91385
-1.87479
-1.8455
-1.77522
-1.64612
-1.46957
-1.22243
-1.05879
-0.885076
-0.785244
-0.699405
-0.565256
-0.423884
-0.276128
-0.162755
-0.0192994
0.0768318
0.155019
0.206023
0.267482
0.331562
0.404983
0.467188
0.519536
0.567037
0.595708
0.626081
0.668707
0.690018
0.699089
0.702945
0.718202
0.725622
0.7588
0.755196
0.751215
0.749195
0.748141
0.745758
0.734141
0.730488
0.742429
0.727125
0.727417
0.738305
0.74033
0.735936
0.728779
0.715956
0.692799
0.662106
0.627766
0.589242
0.541668
0.484864
0.421124
0.349126
0.270914
0.191832
0.107309
0.0410175
-2.89575
-3.38404
-4.07499
-5.21694
-6.2132
-6.31596
-5.96244
-5.23583
-4.51777
-4.42379
-3.57312
-1.76578
-0.744141
-0.0765275
0.582645
1.17747
1.75243
2.09951
2.05589
1.89653
1.79098
1.73647
1.56032
1.26896
0.79845
0.345325
0.00213965
-0.264349
-0.534024
-0.898339
-1.17539
-1.48954
-1.75503
-1.94638
-2.05772
-2.16192
-2.20801
-2.20046
-2.03474
-1.89964
-1.86498
-1.83214
-1.76303
-1.62593
-1.45273
-1.21624
-1.04473
-0.878647
-0.782182
-0.69914
-0.557356
-0.415053
-0.269996
-0.159519
-0.0147281
0.0780791
0.153429
0.202671
0.263486
0.330086
0.402903
0.464669
0.515975
0.562903
0.586299
0.615955
0.660264
0.684068
0.694673
0.697715
0.710003
0.714824
0.74714
0.742628
0.74182
0.743688
0.746833
0.744723
0.730365
0.724954
0.735077
0.719216
0.723502
0.733995
0.734493
0.731552
0.724165
0.709773
0.685508
0.654898
0.620724
0.582225
0.534415
0.479302
0.416704
0.345027
0.267473
0.189381
0.105288
0.0409617
-2.90264
-3.37106
-4.04723
-5.17496
-6.18865
-6.31327
-5.96209
-5.2073
-4.48065
-4.35432
-3.42801
-1.70729
-0.73112
-0.0843698
0.60321
1.19102
1.71482
2.01794
2.00495
1.85151
1.73548
1.66871
1.48576
1.20717
0.755516
0.318291
-0.0154133
-0.277968
-0.554185
-0.907115
-1.18494
-1.50558
-1.75015
-1.9355
-2.05638
-2.14752
-2.18635
-2.17531
-2.01412
-1.89497
-1.85614
-1.81638
-1.74529
-1.60301
-1.43102
-1.20467
-1.02731
-0.874873
-0.779653
-0.697205
-0.549285
-0.406458
-0.264085
-0.154193
-0.00893082
0.0799537
0.153636
0.199808
0.260431
0.329878
0.401709
0.463317
0.513324
0.558067
0.576164
0.605868
0.652227
0.678924
0.691563
0.69357
0.701613
0.704876
0.734357
0.732769
0.734611
0.73706
0.742584
0.741344
0.726329
0.721012
0.729721
0.71346
0.720776
0.729419
0.72959
0.727978
0.719375
0.70358
0.678709
0.648228
0.614024
0.574977
0.527498
0.473858
0.411154
0.340217
0.264216
0.187334
0.10465
0.0414439
-2.90774
-3.35917
-4.01884
-5.13346
-6.15855
-6.30424
-5.96014
-5.19286
-4.4385
-4.26726
-3.27537
-1.65109
-0.715253
-0.0867781
0.624252
1.2131
1.6909
1.96299
1.96747
1.80821
1.68208
1.60195
1.41881
1.14788
0.712064
0.290635
-0.0341627
-0.289884
-0.57387
-0.916387
-1.1995
-1.51486
-1.74562
-1.92844
-2.05335
-2.13441
-2.17912
-2.15184
-1.9971
-1.89447
-1.848
-1.80178
-1.72508
-1.58306
-1.40698
-1.19167
-1.01369
-0.873924
-0.779003
-0.693551
-0.540597
-0.397684
-0.25809
-0.147997
-0.00323233
0.0818798
0.154887
0.196652
0.257723
0.329617
0.400597
0.462413
0.511734
0.55274
0.565608
0.595599
0.644102
0.674043
0.689048
0.689876
0.692985
0.695312
0.720921
0.724057
0.727863
0.731124
0.735801
0.733728
0.720513
0.71778
0.724245
0.710184
0.718555
0.724465
0.725801
0.724905
0.714653
0.697652
0.672399
0.64204
0.607521
0.567851
0.521258
0.467736
0.40466
0.335178
0.261402
0.186092
0.105042
0.0420297
-2.90819
-3.3463
-3.98779
-5.09146
-6.11803
-6.28426
-5.94923
-5.18123
-4.39314
-4.16173
-3.10774
-1.58661
-0.696922
-0.0843631
0.646055
1.23955
1.68026
1.92949
1.93471
1.76344
1.62983
1.53621
1.3567
1.08988
0.670947
0.261098
-0.0557813
-0.301811
-0.589821
-0.927838
-1.21666
-1.51642
-1.73619
-1.91223
-2.03814
-2.11893
-2.17008
-2.12599
-1.97809
-1.89145
-1.83812
-1.78568
-1.70447
-1.57028
-1.38335
-1.17237
-1.00287
-0.87369
-0.781004
-0.686204
-0.529532
-0.387894
-0.251069
-0.140641
0.00208021
0.0844354
0.157143
0.194781
0.256457
0.329361
0.400249
0.462097
0.511727
0.547808
0.555707
0.585877
0.636108
0.66946
0.687043
0.686653
0.685421
0.687278
0.708195
0.715046
0.721624
0.726007
0.729693
0.726626
0.714573
0.71457
0.715661
0.708284
0.716064
0.719295
0.722241
0.721171
0.709413
0.691366
0.665738
0.635563
0.601028
0.561499
0.515436
0.461065
0.398679
0.331244
0.259217
0.185326
0.105762
0.0422535
-2.90614
-3.3323
-3.95893
-5.05344
-6.07326
-6.2587
-5.93721
-5.16979
-4.34
-4.04816
-2.95571
-1.52046
-0.678703
-0.0787511
0.665435
1.25905
1.67183
1.89069
1.89664
1.71847
1.57966
1.47319
1.29984
1.03422
0.633522
0.231435
-0.0808618
-0.318661
-0.60173
-0.940324
-1.23199
-1.51518
-1.72768
-1.89279
-2.01216
-2.10385
-2.15419
-2.1005
-1.95993
-1.88542
-1.82822
-1.77069
-1.68346
-1.55758
-1.36113
-1.15382
-1.00053
-0.873949
-0.78443
-0.675337
-0.517175
-0.378382
-0.244192
-0.133731
0.00611329
0.0862788
0.156779
0.193696
0.256172
0.32855
0.40018
0.461508
0.511899
0.542212
0.546953
0.576785
0.628208
0.664726
0.684868
0.683086
0.678988
0.680582
0.695863
0.705425
0.715278
0.721719
0.725145
0.721495
0.711479
0.711938
0.70978
0.705954
0.712576
0.714798
0.718665
0.716246
0.703223
0.684267
0.658467
0.628871
0.59478
0.555796
0.509495
0.454596
0.393449
0.328017
0.257399
0.18357
0.105811
0.0409251
-2.8999
-3.31465
-3.93076
-5.01638
-6.01878
-6.22537
-5.92073
-5.15017
-4.28
-3.92031
-2.81392
-1.44906
-0.659041
-0.0658224
0.687465
1.27145
1.65604
1.83298
1.84919
1.67456
1.53008
1.41008
1.2465
0.983565
0.600754
0.210119
-0.102053
-0.335677
-0.611425
-0.950157
-1.24002
-1.5115
-1.7192
-1.87275
-1.97954
-2.08764
-2.13136
-2.07139
-1.94273
-1.87742
-1.81553
-1.75396
-1.66078
-1.5364
-1.33903
-1.13991
-0.997362
-0.87318
-0.782962
-0.660369
-0.504149
-0.369325
-0.236204
-0.126033
0.011999
0.0879791
0.154192
0.19374
0.257677
0.328674
0.40125
0.461621
0.511135
0.534318
0.540492
0.569918
0.621609
0.660509
0.682726
0.678849
0.67376
0.675386
0.685411
0.696162
0.709291
0.717096
0.721037
0.718389
0.711127
0.710173
0.707367
0.704431
0.709022
0.711092
0.714522
0.710039
0.695924
0.676526
0.65106
0.622198
0.588274
0.549863
0.503766
0.449296
0.389347
0.325384
0.255807
0.181347
0.106308
0.041027
-2.89354
-3.29432
-3.90509
-4.98274
-5.96225
-6.19386
-5.90741
-5.12316
-4.21408
-3.79697
-2.6858
-1.38032
-0.639926
-0.047348
0.711169
1.27889
1.63684
1.76674
1.79967
1.63274
1.48238
1.35055
1.19678
0.940029
0.572671
0.195708
-0.120473
-0.354836
-0.622237
-0.958587
-1.24303
-1.50753
-1.70972
-1.85268
-1.95231
-2.07496
-2.11003
-2.04286
-1.92759
-1.86789
-1.80321
-1.73938
-1.63918
-1.51476
-1.31701
-1.13156
-0.995338
-0.877813
-0.77228
-0.643095
-0.492347
-0.361582
-0.228036
-0.118071
0.0181204
0.0878019
0.151204
0.193827
0.259162
0.32917
0.402598
0.461507
0.508374
0.523655
0.535404
0.564881
0.616273
0.656583
0.679758
0.673155
0.668711
0.670612
0.676373
0.688005
0.703355
0.711872
0.71718
0.715654
0.711552
0.709692
0.707454
0.705487
0.706479
0.708011
0.710086
0.703731
0.688914
0.669383
0.64421
0.615769
0.581894
0.544128
0.498528
0.444778
0.385402
0.322096
0.253576
0.180549
0.10695
0.046687
-2.88486
-3.2701
-3.87823
-4.95063
-5.89671
-6.15667
-5.88478
-5.08162
-4.13872
-3.66817
-2.5613
-1.30998
-0.620848
-0.0201044
0.73983
1.28379
1.61324
1.70212
1.74816
1.59091
1.43661
1.29629
1.14802
0.900993
0.546894
0.183324
-0.136678
-0.37427
-0.632901
-0.963103
-1.24376
-1.49971
-1.69561
-1.82756
-1.93819
-2.06434
-2.08532
-2.01398
-1.91306
-1.85449
-1.78966
-1.72435
-1.61602
-1.48981
-1.29305
-1.1227
-0.993823
-0.884897
-0.753722
-0.623905
-0.481294
-0.353251
-0.217805
-0.108283
0.0233749
0.0871198
0.150871
0.195044
0.261431
0.330514
0.404592
0.461648
0.505401
0.51419
0.531182
0.561542
0.612427
0.653266
0.67614
0.666621
0.663332
0.666308
0.669986
0.681328
0.698152
0.706119
0.713613
0.713447
0.711031
0.709376
0.708919
0.706845
0.704054
0.705121
0.705656
0.697948
0.682915
0.662916
0.637636
0.609513
0.576216
0.53906
0.493882
0.440822
0.381615
0.318606
0.250826
0.179949
0.106113
0.0439374
-2.87659
-3.2431
-3.85038
-4.9238
-5.83112
-6.11958
-5.85597
-5.03018
-4.05822
-3.54664
-2.44618
-1.24362
-0.604181
0.0125825
0.768936
1.286
1.58582
1.65156
1.69471
1.55096
1.39479
1.2475
1.10171
0.864871
0.522063
0.170373
-0.152019
-0.391347
-0.642772
-0.964929
-1.2449
-1.49034
-1.6796
-1.79966
-1.9314
-2.05258
-2.05837
-1.98844
-1.89958
-1.8403
-1.77922
-1.71174
-1.5947
-1.46849
-1.27465
-1.11494
-0.992648
-0.879381
-0.734159
-0.605653
-0.471524
-0.344231
-0.207265
-0.100049
0.025913