/*--------------------------------*- C++ -*----------------------------------*\
| =========                 |                                                 |
| \\      /  F ield         | OpenFOAM: The Open Source CFD Toolbox           |
|  \\    /   O peration     | Version:  4.1                                   |
|   \\  /    A nd           | Web:      www.OpenFOAM.org                      |
|    \\/     M anipulation  |                                                 |
\*---------------------------------------------------------------------------*/
FoamFile
{
    version     2.0;
    format      ascii;
    class       surfaceScalarField;
    location    "5";
    object      phi;
}
// * * * * * * * * * * * * * * * * * * * * * * * * * * * * * * * * * * * * * //

dimensions      [0 3 -1 0 0 0 0];

internalField   nonuniform List<scalar> 
52920
(
1680.19
-66.2717
1742.95
-58.4998
1804.53
-58.0505
1866.98
-57.8184
1930.53
-58.1652
1996.69
-59.4116
2060.56
-60.516
2133.36
-63.1778
2202.23
-68.3198
2285.23
-76.0123
2367.74
-83.5411
2457.57
-86.8339
2544.85
-88.2276
2634.94
-89.4942
2723.73
-91.3318
2818.33
-94.7232
2913.72
-98.4638
3015.22
-102.397
3117.22
-104.831
3219.41
-104.44
3317.31
-100.82
3411.02
-96.6361
3502.11
-94.5258
3594.17
-94.9847
3686.67
-95.6698
3777.95
-94.5202
3866.51
-91.5022
3950.38
-87.0504
4030.14
-82.1649
4105.05
-77.8406
4177.85
-74.905
4248.79
-73.1611
4319.39
-72.2912
4389.05
-71.2928
4457.64
-69.8092
4524.14
-67.8749
4589.7
-66.4304
4654.65
-65.7957
4720.31
-66.0274
4786.81
-66.8065
4854.86
-67.9757
4924.34
-69.2492
4995.32
-70.4165
5066.99
-71.1147
5139.4
-71.5355
5211.94
-72.1027
5284.84
-73.0641
5361.38
-74.6096
5438.16
-76.0418
5517.7
-77.8138
5598.11
-79.3716
5680.4
-80.7478
5763.26
-81.7087
5847.42
-82.5798
5932.21
-83.4767
6018.33
-84.51
6105.4
-85.6284
6193.61
-86.7394
6282.98
-87.8382
6373.13
-88.8406
6464.58
-89.8799
6556.59
-90.8773
6650.12
-92.0439
6744.23
-93.1666
6840.03
-94.38
6936.25
-95.4255
7034.04
-96.5141
7132.08
-97.3955
7231.57
-98.328
7331.2
-99.0988
7432.14
-99.978
7533.24
-100.722
7635.47
-101.437
7737.57
-101.822
7840.19
-102.028
7942.25
-101.881
8044.27
-101.569
8145.37
-100.983
8245.98
-100.291
8345.43
-99.383
8444.08
-98.4273
8541.46
-97.3539
8637.92
-96.3195
8733.17
-95.2607
8827.55
-94.3018
8920.9
-93.4016
9013.6
-92.67
9105.61
-92.092
9197.34
-91.7445
9288.84
-91.5974
9380.45
-91.6488
9472.17
-91.8216
9564.15
-92.0282
9656.22
-92.1781
9748.42
-92.237
9840.37
-92.0288
9932.3
-91.9678
10023.1
-90.8257
10112.9
-89.9077
-85.2193
1820.57
-141.944
1891.1
-124.725
1960.25
-123.094
2031.46
-123.647
2106.1
-126.967
2184.23
-130.327
2260.24
-133.239
2347.46
-140.33
2430.57
-150.046
2531.09
-168.37
2631.41
-183.967
2739.91
-191.111
2845.12
-193.693
2953.11
-197.02
3059.28
-200.699
3171.36
-207.138
3283.74
-214.38
3402.06
-221.709
3519.98
-225.836
3637.12
-223.92
3748.57
-215.434
3854.88
-206.145
3958.23
-201.669
4062.75
-202.882
4167.9
-204.357
4271.9
-202.037
4373.17
-195.987
4469.9
-187.353
4562.96
-178.019
4652
-170.124
4739.99
-165.231
4827.22
-162.786
4915.12
-161.946
5002.94
-160.845
5090.36
-158.531
5176.21
-155.198
5261.47
-152.63
5346.38
-151.603
5432.09
-152.107
5518.53
-153.529
5606.15
-155.436
5694.62
-157.355
5783.76
-158.844
5872.66
-159.322
5961.24
-159.112
6048.84
-159.111
6135.53
-159.837
6224.29
-161.35
6311.79
-162.808
6400.28
-164.547
6487.86
-165.929
6575.39
-166.73
6661.53
-166.723
6746.9
-166.359
6830.74
-165.998
6913.67
-165.815
6995.29
-165.755
7075.74
-165.667
7155.03
-165.514
7232.79
-165.229
7309.54
-164.951
7384.61
-164.739
7458.95
-164.759
7531.73
-164.925
7604.06
-165.115
7674.81
-165.293
7745.13
-165.351
7813.79
-165.338
7882.01
-165.138
7948.5
-164.974
8014.47
-164.729
8078.79
-164.583
8142.53
-164.133
8204.5
-163.427
8265.47
-162.18
8324.5
-160.662
8382.3
-158.725
8438.21
-156.726
8492.89
-154.513
8545.87
-152.297
8597.69
-149.923
8647.95
-147.618
8697.11
-145.268
8744.87
-143.076
8791.62
-140.947
8837.21
-139.092
8882.04
-137.479
8926.14
-136.331
8970.02
-135.661
9013.87
-135.604
9058.24
-136.077
9103.28
-137.007
9149.35
-138.189
9196.44
-139.393
9244.71
-140.586
9294.09
-141.504
9344.39
-142.336
9397.16
-143.682
9445.72
-138.524
-139.833
1983.35
-226.269
2066.98
-203.86
2151.76
-204.062
2240.22
-207.733
2332.92
-214.453
2429.13
-220.206
2523.27
-224.17
2626.74
-234.952
2726.12
-249.447
2840.4
-276.913
2953.86
-298.795
3073.34
-308.544
3188.45
-310.053
3304.38
-312.299
3416.89
-315.368
3532.71
-322.971
3646.73
-331.244
3763.95
-339.74
3878.91
-343.437
3991.65
-338.701
4098.21
-324.711
4199.44
-310.057
4297.47
-302.853
4396.22
-304.28
4495.48
-306.491
4594.09
-303.635
4691.09
-295.668
4784.94
-284.085
4876.14
-271.334
4963.88
-260.503
5050.42
-253.637
5135.59
-250.013
5220.5
-248.397
5304.31
-246.189
5386.6
-241.931
5466.03
-235.898
5543.18
-230.562
5617.89
-227.087
5690.92
-225.457
5761.95
-224.85
5831.26
-224.685
5898.48
-224.393
5963.61
-223.468
6025.93
-221.114
6085.26
-217.57
6140.66
-214.084
6191.87
-211.3
6241.67
-209.079
6286.52
-206.864
6328.78
-204.872
6366.57
-202.53
6400.88
-199.246
6430.26
-194.741
6455.29
-189.465
6475.1
-184.214
6490.46
-179.168
6501
-174.486
6507
-169.795
6508.49
-165.021
6505.14
-160.155
6497.55
-155.24
6485.01
-150.661
6468.78
-146.422
6448.07
-142.869
6424.47
-139.406
6396.81
-136.434
6366.68
-133.219
6332.69
-130.327
6296.41
-126.916
6256.22
-123.911
6213.65
-120.429
6167.38
-117.656
6118.99
-114.221
6067.17
-111.09
6013.29
-107.062
5956.44
-103.44
5898.08
-99.3609
5837.82
-96.2041
5777.16
-93.103
5715.92
-90.9061
5655.24
-88.6916
5594.8
-87.1132
5535.35
-85.4466
5476.55
-84.2975
5419.01
-83.1873
5362.6
-82.7789
5308.07
-82.849
5255.67
-84.1128
5206.55
-86.5383
5161.41
-90.6877
5121.55
-96.2979
5087.71
-103.416
5060.8
-111.38
5041.06
-119.891
5028.62
-128.247
5023.79
-136.863
5025.3
-143.933
5036.63
-155.182
5055.01
-156.947
-166.543
2147.34
-317.657
2242.32
-295.113
2338.81
-296.651
2437.82
-302.115
2539.08
-310.681
2641.55
-316.649
2740.03
-319.847
2844.9
-331.121
2943.71
-347.358
3053.64
-379.603
3159.75
-405.268
3267.75
-412.967
3367.66
-410.724
3464.09
-408.021
3552.68
-407.274
3639.57
-409.946
3719.74
-415.14
3798.31
-419.343
3871.1
-419.574
3940.05
-409.954
4003.08
-391.11
4061.68
-371.928
4117.44
-362.565
4174.05
-364.574
4232.18
-368.424
4292.29
-367.619
4354.74
-361.651
4418.24
-351.567
4482.26
-338.504
4544.47
-326.316
4605.93
-317.74
4665.66
-312.558
4724.5
-309.27
4781.72
-305.538
4837.04
-298.833
4888.85
-289.515
4937.28
-280.132
4981.71
-272.647
5022.8
-266.997
5060.13
-262.532
5094.12
-258.426
5124.56
-254.347
5151.76
-249.692
5175.1
-243.496
5194.24
-235.316
5207.89
-226.882
5216.03
-219.517
5222.18
-212.329
5221.89
-205.449
5217.98
-198.295
5208.1
-191.017
5193.46
-182.09
5171.98
-171.342
5144.26
-159.032
5109.23
-146.869
5068.14
-135.185
5020.77
-124.427
4967.58
-113.795
4908.53
-102.969
4842.98
-91.9572
4771.63
-80.6547
4693.25
-69.8427
4609.6
-59.4952
4519.55
-50.6164
4425.7
-42.1675
4326.28
-34.9725
4224.08
-27.7012
4117.12
-21.5076
4008.06
-14.5199
3893.83
-7.96718
3776.98
-0.487528
3655.09
5.68796
3531.48
12.2328
3404.6
17.0575
3278.28
21.6794
3151.08
24.7431
3026.43
27.2928
2903.63
27.3437
2785.83
26.1484
2672.38
22.9671
2565.49
19.2051
2464.19
14.3415
2370.02
9.35708
2282.08
3.61445
2201.6
-2.37435
2128.07
-9.45692
2062.85
-17.5594
2006.01
-27.6259
1959.14
-39.7692
1922.69
-54.6325
1898.04
-71.8424
1885.28
-91.0431
1884.75
-111.074
1895.57
-131.051
1916.84
-149.738
1947.37
-167.661
1986.14
-182.9
2031.31
-200.614
2092.41
-218.17
-221.169
2285.03
-412.981
2382.71
-388.519
2477.82
-388.246
2571.27
-391.575
2663.38
-397.88
2753.56
-400.897
2836.89
-400.033
2922.97
-408.511
2998.71
-423.299
3079.63
-454.691
3150
-477.062
3214.46
-475.524
3262.83
-460.794
3299.69
-444.004
3320.38
-430.357
3331.22
-420.647
3327.22
-414.594
3315.09
-408.314
3293.31
-401.255
3268.26
-387.632
3241.77
-368.236
3217.3
-351.044
3196.38
-345.874
3182.85
-354.592
3178.08
-367.578
3183.75
-377.413
3201.35
-382.968
3229.56
-383.77
3266.53
-378.383
3307.61
-371.098
3352.56
-365.365
3399.08
-362.044
3447.49
-359.998
3496.88
-357.241
3546.75
-350.412
3594.44
-339.134
3639.61
-326.54
3681.53
-315.795
3721.01
-307.05
3757.47
-299.501
3791.39
-292.355
3822.8
-285.571
3852.36
-278.587
3879.43
-269.866
3903.22
-257.872
3921.69
-244.808
3935.25
-233.518
3949.27
-223.135
3958.28
-213.177
3965.68
-202.63
3968.39
-191.764
3967.75
-178.539
3960.71
-161.992
3947.62
-142.732
3926.93
-123.431
3900.42
-105.251
3867.85
-88.7065
3829.82
-72.4741
3786.61
-56.2593
3737.8
-40.0543
3684.44
-23.544
3624.91
-7.47252
3561.51
7.65239
3492.78
20.6942
3422.04
32.3631
3347.1
42.3234
3270.94
52.0797
3190.04
61.4845
3107.59
71.4298
3020.36
81.0635
2932.88
90.1056
2843.99
96.0008
2759.05
99.9126
2675.04
102.253
2594.47
104.482
2514.64
105.463
2438.12
105.639
2362.36
103.759
2289.78
100.077
2218.87
94.2834
2151.52
87.509
2086.3
79.7822
2024.67
71.6196
1965.61
62.7312
1910.42
53.1778
1858.6
42.2717
1811.58
29.6015
1769.56
14.1667
1734.35
-4.58541
1706.61
-27.2143
1688.02
-53.4084
1678.96
-82.3551
1680.06
-112.378
1690.63
-141.978
1710.14
-169.426
1737.15
-194.963
1771.28
-217.208
1809.47
-239.055
1857.78
-266.56
-273.799
2361.44
-496.096
2444.51
-467.657
2521.57
-460.854
2594.29
-459.492
2662.76
-461.011
2725.31
-457.104
2775.73
-447.285
2822.6
-445.64
2850.61
-450.766
2874.32
-470.058
2876.2
-479.795
2861.3
-456.743
2819.63
-420.812
2757.99
-381.272
2672.02
-349.505
2570.38
-319.033
2448.59
-298.867
2318.68
-280.31
2184.09
-272.821
2058.65
-266.754
1948.34
-264.559
1858.79
-268.025
1791.12
-285.902
1748.32
-318.819
1728.13
-354.531
1728.34
-384.903
1748.22
-409.481
1784.97
-427.811
1835.46
-434.612
1893.01
-435.099
1957.12
-434.263
2024.52
-434.458
2095.63
-434.833
2169.59
-435.056
2245.6
-429.324
2319.39
-416.141
2390.18
-399.473
2457.62
-385.273
2523.31
-373.684
2586.55
-363.432
2647.61
-353.141
2705.71
-342.976
2761.36
-332.79
2815.07
-322.146
2867.59
-308.334
2916.1
-292.107
2959.41
-276.942
3003.22
-262.576
3041.42
-249.548
3078.88
-236.036
3112.67
-222.913
3144.68
-206.653
3170.35
-184.575
3189.05
-157.261
3198.14
-128.937
3198.84
-101.598
3190.66
-76.503
3175.19
-52.8558
3153.58
-30.3062
3125.47
-8.10833
3091.76
14.6745
3050.51
37.238
3004.29
58.3
2951.69
76.3958
2896.42
92.0618
2836.63
104.94
2776.58
116.347
2714.45
126.127
2654.25
135.726
2591.82
145.755
2529.9
155.726
2466.13
161.674
2405.01
164.387
2343.94
164.985
2286.15
165.151
2229.08
163.887
2175.46
161.663
2122.31
157.965
2070.63
153.507
2018.15
147.376
1966.61
140.27
1914.61
132.06
1863.69
123.317
1812.89
113.598
1763.63
102.862
1715.55
90.1964
1670.29
74.97
1628.3
55.8194
1591.7
31.9159
1561.57
2.49386
1540.02
-32.0618
1527.79
-70.5498
1525.8
-110.639
1533.46
-150.027
1550.23
-186.45
1574.57
-219.632
1605.92
-248.806
1641.83
-275.279
1684.11
-308.988
-322.485
2333.19
-563.21
2399.7
-529.687
2456.98
-513.987
2504.46
-502.72
2539.84
-490.874
2560.05
-470.353
2558.32
-441.806
2544.77
-420.632
2502.25
-408.852
2447.92
-407.751
2363.02
-397.397
2256.73
-347.82
2120.12
-287.593
1965.74
-225.176
1789.87
-178.79
1607.99
-136.924
1417.59
-116.788
1241.99
-107.497
1087.24
-125.966
967.855
-153.549
881.664
-186.147
828.452
-222.337
805.568
-271.515
813.311
-333.341
842.063
-390.59
883.977
-434.236
936.625
-468.642
997.743
-495.685
1066.32
-508.025
1136.99
-511.881
1211.45
-513.103
1286.89
-514.659
1365.01
-516.681
1445.21
-518.854
1527.35
-514.117
1608.19
-499.902
1687.04
-480.201
1761.74
-461.8
1833.95
-446.781
1904.26
-434.537
1973.78
-422.781
2041.52
-410.562
2107.29
-397.763
2170.21
-384.236
2230.61
-367.176
2286.13
-347.053
2336.27
-327.789
2388.1
-310.029
2434.82
-294.468
2482.1
-279.163
2526.47
-264.587
2570.49
-246.77
2610.27
-221.288
2646.14
-189.019
2674.69
-154.021
2696.49
-119.168
2710.28
-86.4754
2716.79
-55.4367
2716.58
-25.9742
2709.66
2.40996
2697.4
31.2093
2677.36
60.4972
2651.59
88.2303
2618.34
112.498
2581.16
133.358
2538.02
150.64
2493
165.232
2443.94
177.409
2395.43
187.909
2344.33
198.72
2293.07
210.183
2238.68
217.503
2185.63
220.215
2131.44
220.356
2079.4
219.469
2027.05
217.149
1977.11
213.526
1927.57
208.21
1880.4
202.175
1832.67
195.578
1785.54
188.491
1737.46
180.408
1690.02
171.482
1642.2
161.489
1595.46
150.029
1549.46
136.119
1505.89
118.727
1465.23
96.2621
1429.69
67.4507
1400.4
31.4473
1379.62
-11.4362
1368.22
-59.5469
1367.24
-109.868
1376.03
-159.205
1393.96
-204.577
1419.25
-245.239
1451.01
-280.748
1487.16
-311.705
1528.03
-349.928
-369.148
2244.71
-610.098
2289.71
-569.699
2318.21
-536.524
2326.6
-505.048
2312.55
-469.718
2275.45
-424.556
2211.06
-372.653
2135.13
-329.512
2028.57
-301.766
1917.37
-281.137
1780.9
-262.469
1636.36
-195.586
1470.84
-127.033
1304.64
-56.532
1132.2
-18.7576
982.405
12.6588
846.402
6.12343
747.723
-13.2514
675.118
-65.2119
631.805
-119.383
604.054
-170.24
590.705
-220.58
593.512
-287.17
617.969
-368.81
654.574
-438.214
695.944
-486.673
741.123
-523.91
789.248
-554.586
841.486
-568.812
894.368
-574.284
951.85
-577.753
1011.07
-581.284
1073.7
-585.006
1138.8
-589.755
1206.4
-586.237
1273.38
-571.708
1339.71
-549.924
1403.35
-528.585
1465.89
-510.936
1527.53
-497.33
1589.65
-484.734
1651.77
-471.895
1713.9
-458.157
1774.12
-442.758
1832.06
-422.665
1885.51
-399.158
1934.49
-377.01
1986.83
-356.711
2034.47
-339.655
2083.7
-323.091
2130.53
-307.826
2178.05
-289.171
2222.45
-261.613
2264.42
-225.697
2300.6
-185.679
2331.62
-144.841
2355.87
-105.846
2373.62
-68.235
2384.95
-32.1976
2389.56
2.28718
2389.19
36.7562
2381.42
72.2398
2367.95
106.662
2346.58
137.38
2320.73
164.08
2288.1
186.428
2252.71
205.222
2212.17
220.742
2171.12
233.38
2126.72
245.609
2081.95
258.932
2033.49
268.071
1985.81
271.496
1936.67
271.346
1889.65
269.647
1842.4
265.976
1797.85
260.719
1753.7
253.579
1712.36
245.457
1671.38
237.26
1631.36
229.917
1589.89
222.275
1548.55
213.777
1506.17
204.044
1464.19
192.552
1422.23
178
1382.03
159.107
1344.04
133.928
1310.51
100.903
1282.66
58.8604
1262.89
8.11212
1252.24
-49.3705
1251.9
-109.814
1261.25
-168.993
1279.49
-223.118
1304.72
-270.846
1335.7
-312.014
1370.62
-346.973
1409.14
-388.619
-412.449
2096.99
-632.514
2109.7
-576.855
2098.67
-520.206
2062.72
-463.183
2004.09
-402.935
1926.92
-336.385
1828.78
-268.099
1732.06
-211.463
1610.77
-180.651
1507.87
-161.104
1395.15
-154.148
1295.69
-90.929
1179.32
-18.1092
1068.85
57.4399
951.106
90.6733
857.136
106.814
764.689
87.3034
695.828
51.7909
641.39
-19.9116
608.072
-93.2649
582.407
-153.084
563.162
-209.621
554.54
-287.836
565.808
-387.263
588.601
-468.902
615.684
-521.826
646.394
-561.752
679.601
-595.181
715.828
-610.336
752.143
-617.592
794.297
-624.975
839.924
-632.49
890.538
-640.09
944.528
-648.017
1001.35
-646.273
1058.02
-631.887
1115.12
-609.344
1170.55
-586.299
1225.68
-567.31
1280.38
-553.216
1336.06
-540.853
1392.42
-528.379
1449.84
-514.955
1506.4
-498.652
1561.41
-476.136
1612
-449.426
1658.07
-424.095
1708.18
-401.508
1753.57
-382.842
1801.32
-365.817
1847.22
-350.411
1894.48
-331.756
1938.89
-302.354
1981.46
-263.46
2018.88
-219.096
2052.04
-173.168
2079.26
-128.731
2100.86
-85.4151
2116.74
-43.4864
2126.2
-3.18746
2131.08
36.5753
2129.21
77.6255
2122.31
118.074
2107.83
154.924
2089.13
187.188
2063.69
214.583
2035.48
237.539
2002.04
256.51
1967.68
271.616
1929.4
285.797
1890.87
300.793
1848.61
311.746
1806.88
316.089
1763.39
315.988
1721.9
313.481
1680.16
308.628
1641.19
301.71
1602.67
292.794
1566.87
282.867
1531.75
272.869
1498.44
264.438
1463.76
257.229
1428.83
249.506
1392.31
240.623
1355.61
229.72
1318.25
215.283
1281.95
195.612
1247.15
168.512
1216.09
131.956
1190.06
84.54
1171.6
26.4072
1161.84
-40.0359
1162.06
-110.259
1171.6
-178.936
1189.57
-241.302
1213.9
-295.492
1243.2
-341.502
1275.86
-379.913
1311.36
-424.184
-451.751
1881.68
-611.387
1858.06
-545.874
1819.54
-472.55
1766.28
-400.503
1701.1
-326.11
1628.68
-249.447
1543.05
-174.024
1470.48
-111.746
1374.47
-82.5598
1315.33
-76.3058
1250.34
-89.7899
1197.46
-27.1256
1112.95
58.6111
1021.39
152.059
910.914
187.455
814.117
203.666
712.939
175.992
635.249
124.438
577.039
26.2917
543.147
-69.0946
516.524
-138.764
492.899
-198.302
476.468
-284.936
478.808
-401.031
492.992
-494.697
512.315
-553.056
535.913
-596.389
561.825
-632.906
589.475
-647.603
616.173
-655.155
648.949
-666.156
686.016
-678.317
729.43
-690.596
777.521
-703.337
828.966
-703.593
880.431
-689.541
932.9
-666.386
984.254
-641.847
1035.66
-621.081
1086.66
-605.946
1138.59
-592.964
1191.22
-580.387
1245.32
-567.341
1299.13
-550.819
1351.8
-526.335
1400.06
-496.488
1443.57
-468.087
1491.52
-442.809
1534.55
-422.903
1580.39
-405.312
1624.64
-390.235
1670.95
-371.872
1714.71
-341.141
1756.96
-299.391
1794.35
-251.119
1827.9
-200.451
1855.92
-151.075
1878.77
-102.535
1896.42
-55.2982
1908.01
-9.64265
1915.34
35.0811
1916.44
81.0305
1913.34
126.703
1903.27
168.923
1889.5
206.317
1869.22
238.364
1846.38
265.387
1818.26
287.695
1789.16
305.486
1755.7
321.944
1721.76
339.004
1684.26
351.528
1647.54
356.66
1609.04
356.482
1572.67
353.286
1536.11
346.975
1502.49
338.164
1469.46
327.113
1439.35
315.002
1409.8
303.1
1382.54
293.223
1354.35
285.884
1325.74
279.258
1295.12
271.536
1263.83
261.703
1231.25
247.885
1199.08
228.046
1167.69
199.617
1139.37
160.239
1115.41
108.057
1098.39
43.2068
1089.41
-31.5719
1089.75
-110.917
1098.73
-188.413
1115.45
-258.345
1137.81
-318.275
1164.52
-368.512
1194.24
-410.015
1226.38
-456.508
-487.223
1603.22
-577.117
1580.09
-515.416
1551.25
-435.97
1514.87
-355.622
1471.25
-270.616
1424.06
-185.946
1363.83
-104.822
1318.52
-36.4249
1246.12
-10.2682
1208.41
-20.812
1159.42
-45.9056
1115.86
20.7443
1033.69
131.17
940.03
249.979
822.425
297.365
718.145
308.054
613.757
270.067
538.811
195.814
487.499
69.5009
459.333
-47.4883
434.303
-121.486
407.858
-179.561
386.004
-271.793
382.972
-404.522
392.429
-511.505
407.546
-575.784
426.79
-622.34
447.582
-660.706
468.597
-673.511
487.523
-680.959
512.445
-696.025
542.083
-713.521
579.403
-732.393
623.17
-751.351
671.069
-754.644
719.252
-741.233
769.057
-718.49
818.336
-693.467
867.97
-672.046
917.223
-656.562
967.324
-643.725
1018.04
-631.472
1070.46
-619.372
1122.99
-602.884
1174.57
-576.475
1221.53
-543.356
1263.46
-511.341
1310.17
-483.449
1351.73
-461.901
1396.28
-444.115
1439.31
-429.4
1485.07
-412.299
1528.58
-380.437
1570.74
-336.188
1608.16
-284.075
1641.94
-228.914
1670.35
-174.733
1693.78
-121.158
1712.27
-68.8097
1724.91
-17.9953
1733.53
31.508
1736.26
82.0392
1735.41
132.344
1728.1
179.446
1717.59
221.476
1700.83
257.923
1681.73
288.783
1657.41
314.4
1632.23
334.687
1602.38
353.698
1571.83
372.968
1538.07
386.651
1505.55
392.077
1471.41
391.727
1439.62
387.469
1407.82
379.652
1379.23
368.852
1351.43
355.59
1326.89
341.229
1302.96
327.488
1281.43
316.009
1259.27
308.285
1236.71
302.636
1211.82
296.46
1185.83
288.165
1157.97
275.639
1129.91
256.313
1102.02
227.269
1076.56
185.696
1054.73
129.533
1038.98
58.7898
1030.29
-23.3259
1029.9
-110.758
1037.25
-196.173
1051.6
-272.906
1071.15
-338.143
1094.87
-392.403
1121.73
-437.154
1151.01
-485.843
-519.601
1382.6
-536.811
1362.69
-484.852
1343.17
-403.046
1320.44
-319.172
1293.13
-226.514
1263
-135.468
1217.1
-47.2012
1190.52
23.3364
1138
46.4661
1110.23
32.88
1063.55
2.43745
1015.24
79.4228
925.358
210.313
828.742
350.68
711.478
402.27
610.354
409.803
513.733
354.896
449.565
254.279
408.039
98.737
384.56
-34.0521
358.885
-108.434
328.36
-161.798
301.324
-258.827
294.656
-409.518
301.77
-530.501
314.688
-601.016
330.617
-649.747
346.48
-688.892
360.707
-697.913
371.974
-703.945
389.516
-722.762
412.273
-745.987
444.214
-772.431
484.588
-799.964
529.776
-806.693
575.193
-793.826
622.649
-771.385
670.045
-745.871
718.103
-723.163
765.911
-706.751
814.677
-693.208
864.105
-680.675
915.684
-669.539
967.934
-653.831
1019.36
-625.669
1065.8
-588.931
1106.77
-553.118
1152.87
-522.025
1193.53
-499.124
1237.32
-480.609
1279.48
-466.331
1325
-450.563
1368.69
-418.272
1411.15
-371.404
1448.84
-315.636
1482.93
-255.923
1511.66
-197.089
1535.51
-138.59
1554.54
-81.3604
1567.83
-25.5893
1577.36
28.4122
1581.27
83.0886
1582
137.64
1576.53
189.199
1568.19
235.584
1553.8
276.113
1537.29
310.651
1515.65
339.348
1493.38
362.017
1466.28
383.656
1438.42
405.337
1407.75
419.74
1378.82
425.076
1348.5
424.161
1320.82
418.803
1293.32
409.094
1269.34
395.801
1246.5
379.652
1227.4
362.409
1209.18
346.394
1193.29
333.532
1176.7
325.433
1159.78
320.863
1140.24
316.449
1119.23
310.059
1095.88
299.152
1071.85
280.732
1047.46
251.468
1024.85
208.345
1005
148.973
990.106
73.471
980.932
-14.6844
978.767
-108.943
983.437
-201.361
994.744
-284.568
1011.47
-355.307
1032.93
-414.18
1058.11
-462.723
1085.95
-513.884
-550.534
1170.67
-497.542
1153.28
-457.915
1141.94
-381.706
1130.86
-296.556
1117.35
-197.275
1100.39
-96.9793
1065.28
-0.663977
1055.45
66.2281
1018.82
83.8797
1000.43
67.0923
957.423
40.1034
907.921
131.565
809.77
297.094
710.437
456.1
601.963
503.778
510.489
501.508
426.011
429.549
373.594
303.311
339.743
125.008
318.01
-18.5197
290.237
-88.0586
255.785
-134.842
224.796
-236.529
216.991
-407.944
224.493
-544.995
236.799
-620.586
249.582
-668.944
260.152
-706.241
267.244
-709.578
270.875
-714.451
281.677
-738.423
298.686
-768.466
326.632
-804.676
364.942
-842.24
408.037
-852.617
450.581
-839.612
495.116
-817.985
539.768
-792.774
585.271
-770.034
630.835
-753.893
677.793
-741.146
725.8
-729.435
776.801
-720.534
829.378
-706.305
881.327
-676.433
927.883
-635.749
968.592
-595.42
1014.66
-561.303
1054.89
-536.431
1098.2
-517.492
1139.91
-503.649
1185.4
-490.068
1229.48
-457.597
1272.28
-408.344
1310.25
-348.76
1344.57
-284.541
1373.53
-220.957
1397.65
-157.616
1417.06
-95.4925
1430.79
-34.8159
1441.06
23.4487
1445.97
82.0531
1447.91
140.701
1443.73
196.662
1436.88
247.226
1424.08
291.751
1409.37
329.774
1389.69
361.413
1369.64
386.168
1344.69
410.466
1319.11
434.357
1291.1
449.016
1265.26
453.8
1238.27
452.2
1214.17
445.311
1190.49
433.622
1170.73
417.72
1152.62
398.41
1138.88
377.897
1126.37
359.336
1116.1
345.051
1104.87
336.859
1093.11
333.413
1078.44
331.096
1062.02
326.927
1042.93
318.102
1022.78
301.088
1001.77
272.222
981.862
228.241
963.689
166.783
949.026
87.964
938.415
-4.52375
933.535
-104.289
935.063
-203.307
943.746
-293.445
959.019
-370.887
980.234
-435.554
1005.8
-488.556
1034.1
-542.227
-581.38
975.241
-454.857
960.875
-428.901
956.488
-358.887
955.873
-277.126
953.695
-172.2
946.52
-63.1326
918.718
42.537
920.597
102.133
897.297
114.164
888.464
103.198
849.71
82.7099
800.754
189.9
696.95
386.357
598.084
560.348
502.002
590.252
422.14
582.508
350.549
489.615
308.397
339.143
279.025
141.675
256.807
-6.67416
227.313
-71.6325
190.7
-111.576
157.676
-218.43
151.116
-413.491
161.013
-567.034
173.157
-645.333
182.156
-689.8
187.046
-723.965
187.166
-720.391
183.754
-723.586
189.096
-753.637
202.247
-792.085
228.198
-839.454
265.796
-888.779
307.075
-901.46
346.217
-886.645
386.866
-864.733
427.351
-839.036
468.65
-815.242
510.442
-799.026
554.498
-786.824
600.429
-775.923
650.673
-770.016
703.735
-758.705
756.501
-727.469
803.56
-682.427
844.445
-637.478
890.93
-599.484
930.997
-572.582
974.107
-552.42
1015.55
-539.084
1061.01
-527.231
1105.83
-495.664
1149.21
-443.587
1187.58
-380.283
1222.19
-311.341
1251.39
-243.131
1275.81
-175.014
1295.59
-108.205
1309.72
-42.7562
1320.66
19.4546
1326.45
81.6266
1329.36
144.23
1326.12
204.482
1320.31
259.16
1308.63
307.466
1295.28
348.777
1277.15
383.036
1258.92
409.717
1235.79
436.585
1212.24
462.611
1186.52
477.243
1163.25
481.314
1139.06
478.6
1118.06
470.075
1097.72
455.927
1081.8
436.624
1068.17
413.169
1059.73
388.535
1052.93
366.961
1048.29
351.537
1042.12
343.748
1034.98
342.025
1024.66
342.008
1012.45
340.227
997.344
333.564
980.834
318.188
963.012
289.99
945.584
245.798
928.655
183.329
913.447
102.97
900.496
7.88789
892.52
-96.6706
891.678
-202.992
899.75
-301.877
916.311
-387.896
939.886
-459.442
967.792
-516.84
997.99
-572.624
-613.321
794.464
-415.745
783.817
-406.42
786.65
-348.571
794.269
-269.925
799.691
-157.708
801.051
-38.7693
780.816
74.8619
791.994
125.592
780.031
126.261
780.123
116.642
745.675
110.914
697.414
239.78
591.141
478.834
496.853
661.001
413.169
667.009
344.575
651.038
285.115
539.281
251.246
369.803
223.6
162.144
199.943
10.9995
170.661
-49.6677
134.169
-82.7612
100.702
-194.029
97.0374
-415.898
110.2
-586.808
121.693
-663.683
126.132
-700.265
125.604
-729.91
119.706
-718.609
110.37
-720.993
112.119
-759.988
123.823
-808.982
149.656
-869.114
187.252
-929.713
226.281
-942.62
261.136
-924.12
296.895
-902.005
332.021
-876.041
367.756
-852.125
404.527
-837.35
444.741
-828.109
487.968
-820.076
537.118
-819.367
590.596
-812.256
644.191
-779.944
691.977
-730.602
733.503
-680.758
780.57
-639.042
820.671
-609.364
863.869
-588.564
905.389
-575.661
950.847
-566.146
996.521
-535.982
1040.3
-481.055
1078.83
-413.61
1113.51
-340.002
1142.81
-267.061
1167.41
-194.299
1187.5
-122.781
1201.96
-52.5851
1213.43
13.4816
1219.88
79.1338
1223.53
145.697
1220.95
210.364
1215.86
269.12
1205.01
321.133
1192.75
365.506
1175.93
402.199
1159.17
430.601
1137.55
459.978
1115.85
487.722
1092.13
502.125
1070.99
505.272
1049.15
501.412
1030.8
490.821
1013.36
474.136
1000.93
451.329
991.608
423.126
988.468
393.498
987.487
368.34
988.458
351.782
987.048
345.265
983.962
345.822
977.493
348.379
969.094
349.032
957.647
344.822
944.478
331.536
929.595
304.597
914.342
261.006
898.062
199.216
881.462
119.391
865.766
23.1133
855.606
-86.7334
854.848
-202.646
865.65
-312.85
886.504
-409.031
914.204
-487.276
945.031
-547.912
977.288
-604.9
-646.248
631.027
-389.409
632.24
-388.194
641.197
-333.187
653.972
-257.877
664.589
-139.06
672.947
-15.6377
659.215
106.539
678.325
149.131
674.726
139.655
680.936
138.943
649.836
147.211
602.644
294.547
498.149
562.738
411.343
754.255
336.289
734.581
277.399
711.262
229.275
575.913
201.306
391.165
172.421
177.829
147.5
25.2457
121.691
-37.333
87.7477
-62.7258
54.4759
-176.746
53.9194
-427.731
69.9974
-614.866
79.9004
-686.02
79.3799
-711.653
74.2838
-737.839
63.8098
-718.972
50.1752
-720.392
50.6618
-770.603
63.2994
-832.267
90.2103
-904.9
127.447
-975.838
163.085
-985.797
192.531
-961.472
222.641
-938.297
251.861
-911.394
281.617
-886.409
313.007
-872.932
349.056
-866.678
389.149
-861.579
436.786
-866.987
490.314
-865.863
544.36
-832.853
592.586
-779.003
634.546
-724.273
682.059
-677.59
722.042
-644.984
765.232
-622.792
806.684
-610.363
852.064
-602.345
898.563
-574.749
942.727
-516.229
981.401
-444.754
1016.11
-366.246
1045.48
-288.81
1070.24
-211.495
1090.64
-135.589
1105.44
-60.763
1117.24
9.08633
1124.1
77.975
1128.32
148.272
1126.21
217.285
1121.67
280.06
1111.51
335.511
1100.2
382.705
1084.55
421.504
1069.08
451.582
1048.81
483.32
1028.8
512.592
1006.73
526.769
987.267
529.133
967.369
523.568
951.286
510.663
936.328
490.873
926.991
463.636
921.808
429.512
924.213
393.582
929.134
364.484
935.157
347.856
937.939
343.378
938.423
346.926
935.359
352.142
930.416
355.187
922.327
353.419
912.284
342.366
900.159
316.797
886.722
274.637
870.326
215.227
851.744
137.784
834.062
40.281
824.383
-77.3836
827.45
-206.215
844.114
-329.848
870.698
-436.041
902.202
-519.057
934.764
-580.81
968.041
-638.345
-679.814
528.93
-379.324
533.496
-377.783
540.202
-323.947
550.578
-250.638
560.636
-126.118
570.977
3.54487
559.616
131.042
581.626
163.434
580.603
140.14
589.396
141.231
560.178
168.298
511.642
344.4
410.438
647.525
335.933
834.862
267.009
796.286
218.071
760.079
180.966
603.136
156.185
412.902
124.054
202.863
99.8485
43.3953
81.251
-26.2496
51.103
-40.6074
17.7332
-152.817
19.8814
-435.619
37.991
-639.062
45.7133
-700.068
40.6439
-712.152
32.3899
-735.671
19.0931
-709.207
3.02666
-710.882
4.39987
-776.241
19.5989
-852.156
47.8645
-936.224
83.7057
-1014.07
114.456
-1017.68
137.283
-986.067
161.241
-963.039
184.897
-936.36
209.487
-911.717
236.297
-901.076
268.521
-899.926
305.387
-899.458
351.297
-913.224
404.612
-919.313
458.597
-885.707
506.705
-827.582
548.609
-767.939
596.177
-716.948
636.036
-681.068
678.967
-658.106
720.074
-645.949
765.052
-640.274
812.161
-615.811
856.275
-553.594
894.696
-477.621
929.102
-394.383
958.309
-312.413
983.038
-230.751
1003.64
-150.51
1018.65
-71.0612
1030.53
2.83813
1037.49
74.9904
1042.05
148.904
1040.29
222.298
1036.21
289.032
1026.66
347.82
1016.18
397.644
1001.58
438.381
987.167
470.091
968.01
504.138
949.475
534.475
928.767
548.515
910.613
550.014
892.391
542.698
878.25
527.165
865.321
504.513
858.653
472.731
858.222
430.591
866.801
386.791
876.954
354.636
887.202
338.696
893.667
336.882
897.275
343.89
897.194
351.997
895.341
357.342
890.347
358.134
883.262
349.578
873.716
325.993
861.533
286.711
844.243
232.066
823.877
157.949
806.63
57.0408
801.442
-72.4097
811.701
-216.853
835.276
-353.557
866.339
-467.341
899.289
-552.102
931.477
-613.204
964.644
-671.51
-713.385
440.981
-368.268
450.157
-362.303
455.87
-299.224
464.596
-230.627
473.996
-101.708
485.545
28.5308
475.958
160.908
499.95
185.342
498.849
153.765
507.51
162.029
479.747
201.761
428.918
400.958
330.585
717.071
270.544
902.833
205.88
854.362
167.764
799.836
140.586
618.924
115.238
431.453
78.4704
225.488
58.2142
52.3172
49.9977
-32.067
23.8679
-29.2555
-10.5639
-136.113
-6.91228
-452.059
12.0269
-669.746
17.4819
-717.74
8.72842
-715.582
-1.43048
-738.982
-15.9127
-706.021
-32.2539
-708.626
-28.052
-791.24
-9.63367
-881.46
19.3929
-974.038
52.6435
-1055.75
77.667
-1049.83
93.3441
-1009.33
111.178
-986.876
130.204
-961.607
151.014
-937.431
174.305
-929.209
203.253
-932.174
237.2
-935.628
281.469
-958.207
334.209
-972.849
387.254
-938.237
434.264
-875.313
475.096
-810.716
521.977
-754.39
561.294
-715.636
603.586
-690.822
643.818
-678.743
687.939
-674.433
735.279
-654.326
779.087
-587.587
817.071
-507.405
851.035
-419.287
879.942
-333.154
904.524
-247.286
925.192
-163.115
940.314
-79.1976
952.159
-1.21122
958.941
74.1987
963.513
151.438
961.969
228.855
958.314
299.317
949.333
361.174
939.648
413.416
926.117
455.687
912.667
489.197
894.388
525.555
877.092
556.748
857.405
570.82
840.313
571.636
823.584
561.775
811.118
543.343
799.633
517.535
796.227
479.316
801.617