/*--------------------------------*- C++ -*----------------------------------*\
| =========                 |                                                 |
| \\      /  F ield         | OpenFOAM: The Open Source CFD Toolbox           |
|  \\    /   O peration     | Version:  4.1                                   |
|   \\  /    A nd           | Web:      www.OpenFOAM.org                      |
|    \\/     M anipulation  |                                                 |
\*---------------------------------------------------------------------------*/
FoamFile
{
    version     2.0;
    format      ascii;
    class       volVectorField;
    location    "5";
    object      U;
}
// * * * * * * * * * * * * * * * * * * * * * * * * * * * * * * * * * * * * * //

dimensions      [0 1 -1 0 0 0 0];

internalField   nonuniform List<vector> 
26785
(
(8.39053e-16 -0.000800454 13.4535)
(8.1104e-16 0.00208151 13.4597)
(9.02579e-16 0.0021466 13.4378)
(1.23713e-15 0.00237743 13.4144)
(6.6889e-16 0.00245587 13.407)
(1.53891e-15 0.00223871 13.4081)
(5.4504e-16 0.00210931 13.4119)
(3.26948e-16 0.00145716 13.4392)
(4.9332e-16 -1.1245e-05 13.4796)
(5.79203e-16 -0.00234113 13.5467)
(5.06333e-16 -0.00463767 13.6503)
(4.48772e-16 -0.00555868 13.7671)
(4.76136e-16 -0.00582609 13.8926)
(5.27654e-16 -0.00605402 14.0129)
(5.65721e-16 -0.00648362 14.1309)
(5.81305e-16 -0.00744214 14.2538)
(5.60325e-16 -0.00856884 14.3872)
(5.66497e-16 -0.00977519 14.5314)
(8.21776e-16 -0.0104766 14.6852)
(9.69128e-17 -0.0102095 14.8344)
(4.0367e-16 -0.00883497 14.9677)
(6.28609e-16 -0.00726855 15.0757)
(-2.08585e-16 -0.00641534 15.1632)
(5.74537e-16 -0.00641097 15.2428)
(2.66081e-16 -0.00646215 15.3229)
(5.52501e-16 -0.00588464 15.3992)
(6.44716e-16 -0.00469921 15.4651)
(7.26442e-16 -0.0030273 15.5134)
(3.43841e-16 -0.00119377 15.542)
(2.59915e-16 0.000469698 15.5519)
(5.58197e-16 0.00165079 15.5482)
(1.21216e-15 0.00243608 15.5372)
(9.94305e-16 0.00291757 15.5227)
(9.27222e-16 0.00343464 15.5068)
(5.84535e-16 0.00409361 15.4883)
(1.13242e-15 0.00490022 15.4649)
(1.05041e-15 0.00553848 15.4366)
(1.04245e-15 0.0058822 15.4065)
(9.8616e-16 0.00590073 15.378)
(1.13666e-15 0.00569605 15.3531)
(8.73848e-16 0.00532429 15.3326)
(8.95295e-16 0.00491897 15.3173)
(7.78738e-16 0.00453851 15.3071)
(1.22324e-15 0.00430875 15.3007)
(9.07491e-16 0.00414931 15.2967)
(1.26963e-15 0.00390511 15.2939)
(1.23791e-15 0.00350156 15.2915)
(1.08714e-15 0.00289071 15.2952)
(1.01775e-15 0.00234277 15.3046)
(1.16608e-15 0.00167599 15.3179)
(5.8514e-16 0.00107746 15.3358)
(7.52652e-16 0.000514822 15.357)
(9.33326e-16 8.36222e-05 15.3808)
(9.53247e-16 -0.000314488 15.4064)
(9.38318e-16 -0.000720263 15.4338)
(8.83605e-16 -0.00117719 15.463)
(1.64528e-15 -0.00167533 15.4947)
(1.07293e-15 -0.00218064 15.5283)
(8.92047e-16 -0.00268109 15.564)
(1.40697e-15 -0.0031318 15.6011)
(1.02809e-15 -0.00357662 15.6399)
(9.38948e-16 -0.0039903 15.6802)
(9.22963e-16 -0.00446213 15.722)
(1.45469e-15 -0.00492371 15.7652)
(8.75436e-16 -0.00543205 15.8101)
(8.51912e-16 -0.0058931 15.8565)
(8.4165e-16 -0.00638361 15.9041)
(8.53917e-16 -0.00681154 15.9527)
(8.39939e-16 -0.00726951 16.0022)
(8.4153e-16 -0.00767857 16.0524)
(1.09344e-15 -0.00812984 16.1032)
(8.40841e-16 -0.00853526 16.1544)
(8.01682e-16 -0.00893072 16.206)
(7.88872e-16 -0.00920521 16.2576)
(7.25488e-16 -0.00941118 16.3086)
(9.43913e-16 -0.00948564 16.3585)
(9.95582e-16 -0.0094971 16.4069)
(8.85411e-16 -0.00940698 16.4533)
(9.13881e-16 -0.00927491 16.4974)
(9.0018e-16 -0.00906164 16.539)
(9.7826e-16 -0.00882601 16.5778)
(8.81333e-16 -0.00854556 16.6139)
(8.07499e-16 -0.00827472 16.6472)
(8.48453e-16 -0.0079949 16.6779)
(4.35675e-16 -0.0077496 16.7059)
(9.11532e-16 -0.00752602 16.7317)
(9.16522e-16 -0.00736015 16.7554)
(9.2155e-16 -0.00724507 16.7774)
(9.43522e-16 -0.00720292 16.7982)
(9.67963e-16 -0.00722039 16.8181)
(9.82235e-16 -0.00729328 16.8376)
(9.94471e-16 -0.00739345 16.857)
(1.01332e-15 -0.0074877 16.8764)
(1.02911e-15 -0.0075433 16.8958)
(1.06638e-15 -0.00754743 16.915)
(9.56064e-16 -0.00741339 16.9339)
(1.04916e-15 -0.0074012 16.9521)
(1.07557e-15 -0.00671142 16.9695)
(1.09522e-15 -0.00641903 16.9833)
(1.11837e-15 -0.00526177 16.9962)
(9.93304e-16 0.000420214 14.5701)
(1.5856e-15 0.0105804 14.5958)
(1.12182e-15 0.0118884 14.5862)
(7.92645e-16 0.0121455 14.5818)
(6.73259e-16 0.0112995 14.6056)
(2.02973e-15 0.0102659 14.6463)
(3.17794e-16 0.00965918 14.691)
(1.68416e-15 0.00687479 14.765)
(3.10458e-15 0.00207152 14.8545)
(4.57579e-16 -0.00699018 14.978)
(1.011e-15 -0.0148678 15.1452)
(1.05581e-15 -0.0178476 15.3256)
(1.06708e-15 -0.0183816 15.5116)
(1.33013e-15 -0.0191978 15.687)
(1.15373e-15 -0.0204136 15.8555)
(5.67951e-16 -0.023341 16.0257)
(1.08732e-15 -0.0267624 16.2031)
(1.45489e-15 -0.0303608 16.3877)
(1.26949e-15 -0.0322606 16.5775)
(1.43247e-15 -0.0308973 16.7565)
(6.00314e-16 -0.0259471 16.9126)
(1.90878e-15 -0.020543 17.0368)
(1.51547e-15 -0.0177536 17.137)
(1.07679e-15 -0.0180316 17.2287)
(1.20413e-15 -0.0184848 17.3216)
(6.55483e-16 -0.0168538 17.4108)
(1.04075e-15 -0.0132129 17.489)
(1.14511e-15 -0.00818344 17.5493)
(1.1213e-15 -0.00280838 17.5904)
(7.6315e-16 0.00179468 17.6148)
(1.59348e-15 0.00476967 17.6288)
(1.24391e-15 0.00638715 17.6391)
(1.26454e-15 0.00705933 17.6491)
(1.19574e-15 0.00784863 17.6602)
(1.1566e-15 0.0092106 17.6704)
(1.40513e-15 0.0110599 17.6768)
(1.41727e-15 0.0124253 17.6788)
(1.40881e-15 0.0129039 17.6791)
(1.43793e-15 0.0124936 17.6805)
(1.425e-15 0.011513 17.6846)
(1.58763e-15 0.0101731 17.6916)
(1.26812e-15 0.00877753 17.7014)
(1.53027e-15 0.00756367 17.7134)
(1.32096e-15 0.0068893 17.7258)
(1.28592e-15 0.00654722 17.7369)
(1.31438e-15 0.00601543 17.7456)
(2.13037e-15 0.00501863 17.7511)
(1.5941e-15 0.00352258 17.7584)
(2.50597e-15 0.00210541 17.7668)
(1.52077e-15 0.000491052 17.7746)
(2.22656e-15 -0.000923134 17.7823)
(1.86241e-15 -0.00209629 17.7884)
(1.85489e-15 -0.00285681 17.7924)
(2.26263e-15 -0.00349917 17.7932)
(1.44892e-15 -0.00418312 17.791)
(1.79352e-15 -0.00501132 17.7857)
(2.46379e-15 -0.00594928 17.7778)
(2.2228e-15 -0.00692725 17.767)
(1.64506e-15 -0.00791104 17.7535)
(1.99132e-15 -0.00883009 17.7371)
(2.06837e-15 -0.00974678 17.7179)
(2.68588e-15 -0.0106463 17.6959)
(2.15769e-15 -0.0116631 17.6716)
(1.79073e-15 -0.0127177 17.6451)
(2.01498e-15 -0.0138194 17.6168)
(2.13397e-15 -0.014876 17.5868)
(2.12895e-15 -0.0159133 17.5552)
(2.16189e-15 -0.0168638 17.5219)
(2.65313e-15 -0.0177633 17.4871)
(2.09618e-15 -0.0186047 17.4505)
(2.07832e-15 -0.0194339 17.4123)
(2.32219e-15 -0.020217 17.3725)
(2.0559e-15 -0.0208604 17.3312)
(1.89922e-15 -0.0212704 17.2882)
(1.67447e-15 -0.0214114 17.2431)
(2.74831e-15 -0.0213071 17.1959)
(2.08669e-15 -0.0209761 17.1463)
(1.98738e-15 -0.0204852 17.0945)
(1.72272e-15 -0.0198425 17.0406)
(2.20773e-15 -0.0190691 16.9848)
(2.11195e-15 -0.0181796 16.9273)
(2.02771e-15 -0.0172194 16.8682)
(1.87075e-15 -0.0162167 16.8076)
(1.53078e-15 -0.0152138 16.7457)
(2.12688e-15 -0.0142325 16.6827)
(1.95086e-15 -0.0133216 16.6187)
(1.96977e-15 -0.012513 16.5541)
(2.04012e-15 -0.0118598 16.4892)
(2.32699e-15 -0.0113852 16.4245)
(1.88398e-15 -0.0111097 16.3608)
(1.95378e-15 -0.0110069 16.2986)
(1.93377e-15 -0.0110297 16.2386)
(1.97401e-15 -0.0110949 16.1811)
(1.70996e-15 -0.0111093 16.1264)
(1.87275e-15 -0.011079 16.0745)
(1.91528e-15 -0.0108106 16.0254)
(1.77288e-15 -0.0106798 15.9795)
(1.85711e-15 -0.0101278 15.9338)
(1.88651e-15 -0.00753225 15.9001)
(1.89303e-15 -0.00714532 15.8346)
(1.3536e-15 0.00338986 15.8573)
(7.08979e-16 0.0192402 15.9225)
(1.23373e-15 0.0210775 15.9741)
(8.75622e-16 0.0203763 16.044)
(1.06696e-15 0.017751 16.1436)
(2.63119e-15 0.0155152 16.259)
(9.79341e-16 0.0141995 16.3727)
(1.73343e-15 0.00906067 16.5051)
(1.87304e-15 0.00164694 16.6432)
(1.85767e-15 -0.0135108 16.806)
(1.88864e-15 -0.0256792 17.001)
(1.91965e-15 -0.0305567 17.2001)
(1.92404e-15 -0.0309172 17.3941)
(1.90769e-15 -0.0318658 17.5689)
(2.18373e-15 -0.0333892 17.7274)
(1.6977e-15 -0.0376271 17.8774)
(1.97384e-15 -0.0424891 18.0237)
(1.55196e-15 -0.0475575 18.1667)
(2.59171e-15 -0.0498628 18.3053)
(1.66174e-15 -0.0470426 18.4274)
(1.61482e-15 -0.0385894 18.5247)
(2.3632e-15 -0.029582 18.5918)
(2.25391e-15 -0.0249766 18.6365)
(1.65261e-15 -0.0255105 18.6736)
(1.86296e-15 -0.0264501 18.7122)
(1.45959e-15 -0.0242438 18.7499)
(1.28381e-15 -0.0189131 18.7822)
(1.77143e-15 -0.011462 18.8037)
(1.86352e-15 -0.00348734 18.8126)
(1.84269e-15 0.00314827 18.8092)
(1.91797e-15 0.00720013 18.797)
(2.08864e-15 0.00909118 18.7806)
(1.54628e-15 0.00959313 18.7617)
(1.71306e-15 0.0103368 18.7414)
(1.97863e-15 0.0121802 18.7175)
(1.92497e-15 0.0149209 18.6869)
(1.92144e-15 0.0170257 18.6483)
(1.93535e-15 0.0178434 18.6028)
(1.95604e-15 0.0174254 18.5524)
(1.97068e-15 0.0162663 18.4977)
(1.96067e-15 0.0147192 18.4386)
(2.00436e-15 0.0131427 18.3752)
(2.03678e-15 0.0119039 18.3071)
(2.03524e-15 0.0115194 18.2338)
(2.05217e-15 0.0117491 18.1542)
(2.11077e-15 0.0117771 18.0664)
(2.1449e-15 0.0111986 17.9689)
(2.14516e-15 0.0100598 17.8664)
(2.11539e-15 0.00890171 17.7577)
(2.09591e-15 0.00752233 17.6413)
(2.11165e-15 0.00634686 17.5181)
(2.17227e-15 0.00561946 17.3874)
(2.23599e-15 0.00551194 17.2488)
(2.26021e-15 0.00567056 17.1011)
(2.15708e-15 0.00576374 16.9446)
(2.90797e-15 0.00567141 16.7794)
(2.37869e-15 0.00537317 16.6065)
(1.51059e-15 0.00499935 16.4261)
(2.1246e-15 0.00461167 16.2388)
(1.62278e-15 0.00426064 16.0443)
(2.03267e-15 0.00392582 15.8433)
(2.13703e-15 0.00348138 15.6359)
(2.13e-15 0.00287246 15.423)
(2.11775e-15 0.00202951 15.205)
(2.71835e-15 0.00117954 14.9834)
(2.12539e-15 0.000223937 14.7586)
(1.45248e-15 -0.000583639 14.5315)
(2.09115e-15 -0.00141268 14.3021)
(2.13635e-15 -0.00198777 14.071)
(2.11519e-15 -0.00263595 13.8378)
(2.0877e-15 -0.00308513 13.6028)
(2.05142e-15 -0.00368784 13.3658)
(1.64949e-15 -0.00394942 13.1275)
(1.67659e-15 -0.00411866 12.8881)
(2.05394e-15 -0.00383051 12.6478)
(2.05402e-15 -0.0034906 12.4068)
(1.94888e-15 -0.00285102 12.166)
(1.87449e-15 -0.00234938 11.9263)
(1.78473e-15 -0.00173748 11.6891)
(1.74067e-15 -0.00127052 11.4554)
(1.66881e-15 -0.000696063 11.2264)
(1.71988e-15 -0.000237809 11.0024)
(2.25283e-15 0.000289642 10.7839)
(1.36684e-15 0.000679089 10.5709)
(1.39206e-15 0.00105988 10.3637)
(1.3703e-15 0.00121719 10.1624)
(1.30518e-15 0.00120875 9.96743)
(1.23392e-15 0.000798319 9.7796)
(1.24317e-15 -1.76665e-05 9.59996)
(1.58325e-15 -0.00140359 9.43004)
(1.10521e-15 -0.0032724 9.27141)
(1.10164e-15 -0.00560651 9.12566)
(1.01775e-15 -0.00819497 8.99392)
(9.28207e-16 -0.010882 8.87683)
(9.19026e-16 -0.013542 8.77474)
(9.49043e-16 -0.0161601 8.68604)
(7.23295e-16 -0.0182884 8.61433)
(8.70478e-16 -0.0221306 8.54811)
(8.91931e-16 -0.0196936 8.51349)
(8.96585e-16 -0.0228356 8.4678)
(1.63049e-15 0.00971745 17.1586)
(1.37954e-15 0.0278075 17.2546)
(1.70021e-15 0.028665 17.3478)
(1.49433e-15 0.0264496 17.4537)
(1.52762e-15 0.0222778 17.5734)
(1.67851e-15 0.0193768 17.6925)
(2.04148e-15 0.0181117 17.7954)
(2.6312e-15 0.0115783 17.9021)
(1.80995e-15 0.00183228 18.0017)
(2.10842e-15 -0.0183779 18.1109)
(2.22412e-15 -0.0345832 18.2355)
(2.33413e-15 -0.0405142 18.3472)
(2.17868e-15 -0.0403946 18.4367)
(2.42899e-15 -0.0406919 18.4906)
(2.67055e-15 -0.0423412 18.5116)
(2.60276e-15 -0.0470628 18.5065)
(2.36908e-15 -0.0531514 18.4801)
(3.0953e-15 -0.0591785 18.4338)
(2.08724e-15 -0.0622197 18.3708)
(2.24404e-15 -0.0587187 18.2875)
(2.14655e-15 -0.0484176 18.1861)
(2.11416e-15 -0.0373969 18.0679)
(2.50201e-15 -0.0322179 17.9386)
(2.43904e-15 -0.0339784 17.8086)
(2.39848e-15 -0.0366067 17.6877)
(2.36539e-15 -0.0356951 17.5798)
(2.33173e-15 -0.0309943 17.4862)
(2.30804e-15 -0.0234558 17.4042)
(2.2489e-15 -0.0145238 17.3289)
(2.2528e-15 -0.00671675 17.2535)
(2.60911e-15 -0.0017362 17.1753)
(2.43341e-15 0.000711757 17.095)
(2.05071e-15 0.00162012 17.0122)
(1.92303e-15 0.00279514 16.9277)
(2.23728e-15 0.00562881 16.8404)
(2.36242e-15 0.00987228 16.7472)
(1.84819e-15 0.0137554 16.6452)
(2.392e-15 0.0162296 16.5337)
(2.16888e-15 0.0173192 16.4138)
(1.95846e-15 0.0175323 16.2863)
(2.18272e-15 0.0173595 16.1511)
(1.89603e-15 0.0171628 16.0089)
(1.63234e-15 0.0173734 15.8603)
(2.45267e-15 0.0185698 15.7057)
(2.06612e-15 0.0207552 15.5442)
(2.15313e-15 0.0229387 15.3722)
(1.85378e-15 0.0245646 15.1886)
(1.24368e-15 0.0259195 14.9998)
(1.28e-15 0.0270547 14.8047)
(2.00884e-15 0.0280303 14.6002)
(1.53365e-15 0.0290556 14.388)
(2.47588e-15 0.0308262 14.1666)
(1.26035e-15 0.0334908 13.9357)
(1.05149e-15 0.0368501 13.6926)
(1.44948e-15 0.0401197 13.438)
(1.21367e-15 0.0431767 13.1719)
(2.16848e-15 0.0457741 12.8971)
(5.08753e-16 0.048285 12.6135)
(1.16967e-15 0.0508252 12.3229)
(4.39361e-16 0.0533987 12.0232)
(1.17535e-15 0.0560057 11.7163)
(4.19572e-16 0.0582196 11.4002)
(8.80231e-16 0.0600462 11.0774)
(1.07084e-15 0.0610534 10.7471)
(9.88676e-16 0.0618449 10.413)
(1.18055e-16 0.0620137 10.0749)
(1.75476e-15 0.0622662 9.73528)
(8.92575e-16 0.0620273 9.39398)
(1.11131e-15 0.0622337 9.05344)
(4.86209e-16 0.0620644 8.71157)
(-1.40112e-16 0.0623527 8.36885)
(7.68741e-16 0.0618949 8.024)
(7.80757e-16 0.0618437 7.67928)
(5.39835e-16 0.0610971 7.33506)
(-5.63743e-16 0.060781 6.99578)
(-2.11009e-16 0.0598933 6.6624)
(-2.68953e-16 0.0591952 6.33748)
(-7.14443e-16 0.0573863 6.02326)
(-5.94476e-16 0.0552489 5.72233)
(-6.33669e-16 0.0521172 5.4366)
(-6.36679e-16 0.0488738 5.16737)
(-6.35831e-16 0.0450289 4.9152)
(-7.3116e-16 0.0412721 4.68015)
(-2.49775e-15 0.0371168 4.46222)
(-4.80884e-16 0.0329919 4.26124)
(-6.53995e-16 0.028324 4.07741)
(-8.93907e-16 0.0232892 3.91107)
(-9.61322e-16 0.0172658 3.76312)
(-6.46752e-16 0.0102576 3.63464)
(1.55924e-16 0.00177799 3.527)
(2.09127e-16 -0.0079213 3.44133)
(-1.55039e-15 -0.0187518 3.37839)
(-8.68454e-16 -0.0300241 3.33802)
(-9.33581e-16 -0.0413337 3.31897)
(-9.73039e-16 -0.0519337 3.31988)
(-3.52751e-16 -0.0623342 3.33652)
(-6.85875e-16 -0.0708551 3.37029)
(-2.11074e-16 -0.0824204 3.41369)
(-5.0551e-16 -0.0892834 3.46209)
(-5.60597e-16 -0.0925287 3.56883)
(1.89026e-15 0.0181913 18.2703)
(1.78678e-15 0.0363481 18.3545)
(2.11708e-15 0.0362417 18.4135)
(1.98193e-15 0.0333331 18.4558)
(1.99641e-15 0.0285998 18.4885)
(2.79655e-15 0.0256186 18.5031)
(1.97508e-15 0.0245957 18.4896)
(2.49697e-15 0.01706 18.4669)
(2.72717e-15 0.00500771 18.422)
(2.8214e-15 -0.0191851 18.3636)
(2.57253e-15 -0.0387779 18.2922)
(2.59479e-15 -0.044656 18.1762)
(2.71891e-15 -0.0433232 18.0061)
(3.43944e-15 -0.041831 17.7704)
(2.55711e-15 -0.0427319 17.4736)
(2.34233e-15 -0.0466997 17.1238)
(2.11646e-15 -0.053234 16.7279)
(2.16587e-15 -0.0596263 16.2917)
(2.13669e-15 -0.0641231 15.8297)
(2.10365e-15 -0.0622048 15.3558)
(2.13594e-15 -0.0539781 14.8947)
(2.11824e-15 -0.0452679 14.4608)
(2.56013e-15 -0.0433312 14.059)
(2.45867e-15 -0.0497026 13.6936)
(2.38799e-15 -0.0578817 13.3742)
(2.37835e-15 -0.0629331 13.1082)
(1.68875e-15 -0.0640995 12.9001)
(2.3441e-15 -0.0615878 12.7474)
(2.22897e-15 -0.0555993 12.6402)
(2.11862e-15 -0.0491605 12.5609)
(2.08312e-15 -0.0445245 12.4981)
(2.06358e-15 -0.0419687 12.4467)
(2.12373e-15 -0.0405816 12.4023)
(2.04298e-15 -0.0387572 12.3639)
(1.9564e-15 -0.034485 12.3304)
(2.13939e-15 -0.0278854 12.2963)
(2.06873e-15 -0.0208213 12.2545)
(1.91811e-15 -0.0149691 12.2035)
(1.85473e-15 -0.0104918 12.1452)
(1.77115e-15 -0.00705273 12.08)
(1.67281e-15 -0.00408209 12.0075)
(1.45172e-15 -0.00137688 11.9287)
(1.86005e-15 0.00160635 11.8455)
(1.91967e-15 0.00588954 11.7587)
(1.77997e-15 0.0120985 11.6673)
(1.64238e-15 0.0185039 11.5645)
(1.52958e-15 0.0236271 11.4482)
(1.53053e-15 0.0283258 11.3297)
(1.15148e-15 0.0326977 11.2094)
(1.76391e-15 0.0372686 11.082)
(1.27316e-15 0.0418376 10.9496)
(1.76026e-15 0.0476757 10.8095)
(1.34371e-15 0.0550634 10.6605)
(9.85436e-16 0.063721 10.498)
(9.77943e-16 0.0721027 10.3215)
(-4.47986e-16 0.0797313 10.131)
(-2.16187e-17 0.0863315 9.93118)
(-1.44373e-16 0.0927472 9.72124)
(1.20663e-15 0.0992192 9.50359)
(7.72819e-16 0.105727 9.27732)
(1.7867e-15 0.112331 9.04481)
(-4.86496e-16 0.118423 8.80417)
(-2.99028e-16 0.123866 8.55746)
(-2.23065e-16 0.127884 8.30463)
(2.58821e-16 0.131215 8.04929)
(2.89173e-15 0.133488 7.79212)
(-9.1406e-16 0.135804 7.53534)
(-5.83431e-16 0.137615 7.27718)
(8.28293e-17 0.139955 7.01746)
(-4.2108e-17 0.141938 6.75623)
(-1.22785e-15 0.143911 6.49419)
(-1.26802e-15 0.144161 6.23548)
(-1.33242e-15 0.143872 5.98478)
(-1.60184e-15 0.142363 5.74575)
(-2.22659e-15 0.140681 5.51525)
(-3.08527e-15 0.137862 5.29355)
(-4.99908e-15 0.134506 5.08067)
(-4.55998e-15 0.129492 4.87619)
(-2.04787e-15 0.123492 4.67939)
(9.44196e-16 0.116124 4.49149)
(-1.41334e-15 0.108402 4.31247)
(-8.90935e-16 0.100146 4.14248)
(-6.59778e-16 0.0919408 3.98116)
(9.03066e-16 0.0834405 3.82866)
(-1.06696e-15 0.07488 3.685)
(-4.63729e-16 0.0656923 3.55067)
(-6.55896e-16 0.0557939 3.4263)
(-6.78189e-16 0.0445041 3.31319)
(-9.70909e-16 0.0316137 3.21293)
(6.52391e-16 0.0166695 3.12745)
(-4.18611e-16 -9.02028e-05 3.0585)
(-5.10089e-16 -0.0182866 3.00744)
(-6.92547e-16 -0.0369386 2.9748)
(-9.02024e-16 -0.055237 2.95988)
(-9.15028e-16 -0.0721141 2.96168)
(-3.54029e-16 -0.0879279 2.97712)
(-3.65688e-17 -0.101466 3.00538)
(-4.95028e-16 -0.115549 3.04544)
(-9.25292e-16 -0.132166 3.07669)
(-7.19743e-16 -0.134448 3.16953)
(2.33263e-15 0.0264744 18.9502)
(1.966e-15 0.0456182 18.9034)
(2.22724e-15 0.0468331 18.8165)
(1.89649e-15 0.0442633 18.7026)
(2.58214e-15 0.0391405 18.5719)
(2.59617e-15 0.0358277 18.4098)
(2.23938e-15 0.0348329 18.2008)
(2.29183e-15 0.0267724 17.9576)
(3.18853e-15 0.0131862 17.6614)
(4.29886e-15 -0.0123729 17.3105)
(1.68826e-15 -0.0329919 16.8999)
(2.00219e-15 -0.0356771 16.3985)
(2.1905e-15 -0.0306346 15.8025)
(2.14986e-15 -0.0245941 15.1122)
(2.09454e-15 -0.0227792 14.3408)
(2.08492e-15 -0.0236758 13.5037)
(2.12366e-15 -0.0296189 12.6144)
(2.59963e-15 -0.0361185 11.6912)
(1.49163e-15 -0.0445856 10.7743)
(2.51075e-15 -0.0496237 9.90605)
(3.00555e-15 -0.051969 9.13896)
(2.15357e-15 -0.0553206 8.49638)
(2.92618e-15 -0.0663949 7.97874)
(3.28751e-15 -0.0864294 7.57848)
(1.38492e-15 -0.108052 7.29196)
(1.91835e-15 -0.125738 7.10641)
(1.96964e-15 -0.138737 7.01001)
(1.79751e-15 -0.146499 6.9922)
(1.66809e-15 -0.146891 7.03756)
(1.61396e-15 -0.143627 7.12)
(1.61537e-15 -0.140026 7.22303)
(1.36346e-15 -0.137314 7.33943)
(1.7004e-15 -0.134853 7.46268)
(1.7166e-15 -0.131855 7.59228)
(1.88687e-15 -0.125151 7.72843)
(1.6795e-15 -0.114163 7.86165)
(1.31939e-15 -0.10162 7.97973)
(1.38306e-15 -0.0908848 8.08164)
(1.42508e-15 -0.0820234 8.17297)
(1.10959e-15 -0.0742205 8.25523)
(1.06705e-15 -0.0667803 8.32726)
(1.83154e-15 -0.0597968 8.38889)
(1.77468e-15 -0.0529682 8.43922)
(2.68535e-15 -0.0454014 8.48057)
(1.80166e-15 -0.0354338 8.51879)
(1.573e-15 -0.024312 8.54882)
(1.40269e-15 -0.0145505 8.56279)
(1.28534e-15 -0.00571191 8.56972)
(1.17171e-15 0.00235444 8.56999)
(9.72698e-16 0.0106477 8.56062)
(7.58532e-16 0.0187568 8.5454)
(5.59445e-16 0.0286516 8.52387)
(3.39632e-16 0.0414227 8.49318)
(1.61405e-16 0.0565621 8.44441)
(5.53179e-17 0.0715594 8.37476)
(8.03388e-18 0.0853712 8.28275)
(-5.97646e-17 0.0975007 8.1709)
(-3.45054e-16 0.108933 8.04088)
(1.02039e-15 0.119933 7.89799)
(2.08469e-16 0.130708 7.74315)
(1.0224e-16 0.141697 7.57777)
(-1.49424e-15 0.152243 7.39997)
(-8.23463e-16 0.161753 7.21117)
(-4.29922e-16 0.169325 7.01285)
(1.21158e-15 0.175482 6.80833)
(8.63125e-16 0.179986 6.59992)
(2.89116e-16 0.183952 6.39058)
(-2.3014e-17 0.187282 6.18312)
(-1.33304e-15 0.190775 5.98089)
(-3.19386e-16 0.194238 5.78342)
(-2.09947e-15 0.197386 5.5875)
(-3.58254e-15 0.197881 5.39338)
(-2.51994e-15 0.19656 5.204)
(-3.28253e-15 0.193979 5.02158)
(-4.23742e-15 0.191318 4.84608)
(-7.43914e-16 0.187862 4.67829)
(-1.44254e-15 0.183993 4.51796)
(-3.75312e-15 0.178838 4.36593)
(-2.48225e-16 0.172877 4.21849)
(1.94779e-16 0.165752 4.07438)
(3.66361e-16 0.158108 3.93309)
(2.4358e-15 0.149883 3.79504)
(1.65956e-16 0.141433 3.66011)
(1.23794e-15 0.13247 3.52875)
(6.54209e-16 0.122996 3.40124)
(9.86918e-17 0.112436 3.27851)
(-1.76142e-16 0.10043 3.1616)
(-5.25171e-16 0.0861598 3.05235)
(-4.7693e-16 0.0691726 2.95297)
(-7.46418e-16 0.0490414 2.86618)
(4.6576e-16 0.0260271 2.79451)
(-4.61955e-16 0.000829872 2.7401)
(-7.71812e-16 -0.02515 2.70407)
(-1.42781e-15 -0.0505887 2.68609)
(-9.54208e-16 -0.0740626 2.68514)
(-1.10883e-15 -0.0955636 2.69838)
(-8.19053e-16 -0.114284 2.72381)
(-8.58067e-16 -0.131627 2.76221)
(-6.54751e-16 -0.153759 2.79175)
(-5.17147e-16 -0.16053 2.87163)
(2.55812e-15 0.0344011 18.7876)
(2.50383e-15 0.054553 18.6183)
(2.05132e-15 0.0577985 18.4077)
(2.5839e-15 0.0557544 18.149)
(2.5148e-15 0.0511244 17.834)
(3.29496e-15 0.0492096 17.4387)
(2.47454e-15 0.0505435 16.9463)
(2.37996e-15 0.0453894 16.38)
(2.81406e-15 0.0337443 15.7258)
(1.62123e-15 0.011969 14.9827)
(1.53458e-15 -0.00526472 14.1497)
(1.6342e-15 0.000111821 13.2098)
(1.76174e-15 0.0122346 12.1748)
(1.65972e-15 0.0257775 11.0676)
(1.55821e-15 0.0314754 9.91535)
(-3.92786e-16 0.0348905 8.74634)
(1.26377e-15 0.0281582 7.59161)
(2.51065e-16 0.0187509 6.49704)
(1.09647e-15 -0.00178866 5.53685)
(-2.89868e-16 -0.0247217 4.75602)
(-8.16246e-16 -0.0491695 4.17899)
(1.42115e-16 -0.0743323 3.78686)
(2.59926e-15 -0.106533 3.55347)
(1.49064e-15 -0.146084 3.45549)
(1.53359e-15 -0.182731 3.46625)
(1.71041e-15 -0.210868 3.54591)
(6.09552e-16 -0.232391 3.66932)
(5.15391e-16 -0.247671 3.82676)
(2.02739e-15 -0.251945 4.01199)
(1.16913e-15 -0.249783 4.20836)
(1.51566e-15 -0.245738 4.40744)
(1.39291e-15 -0.242059 4.60668)
(1.4445e-15 -0.238589 4.80393)
(1.37871e-15 -0.235093 5.00222)
(1.51825e-15 -0.226699 5.20199)
(1.52706e-15 -0.211919 5.39861)
(1.5655e-15 -0.194191 5.58414)
(1.34808e-15 -0.17857 5.75138)
(1.3732e-15 -0.165592 5.90103)
(1.08965e-15 -0.154178 6.03945)
(1.85775e-15 -0.142959 6.17007)
(1.20825e-15 -0.131747 6.2928)
(1.69385e-15 -0.120661 6.40554)
(1.94206e-15 -0.109721 6.50692)
(2.00118e-15 -0.0966771 6.59879)
(1.4722e-15 -0.0816432 6.6774)
(1.88592e-15 -0.0673713 6.73742)
(7.65895e-16 -0.0541534 6.79064)
(-3.64502e-16 -0.0424166 6.8386)
(-8.17216e-16 -0.0308527 6.87832)
(-2.2744e-15 -0.0198921 6.91357)
(-3.25767e-15 -0.00678495 6.94372)
(-1.56295e-15 0.0110244 6.96727)
(-3.56413e-16 0.0331439 6.97964)
(1.79749e-17 0.0563057 6.97699)
(1.84399e-16 0.0785657 6.95517)
(3.82932e-16 0.0987413 6.91507)
(-8.85117e-16 0.11718 6.85648)
(1.37256e-15 0.134197 6.78194)
(6.62185e-16 0.150467 6.69225)
(1.77703e-16 0.166949 6.5911)
(9.13268e-17 0.183217 6.47653)
(2.44853e-16 0.198027 6.34809)
(-1.13202e-15 0.210212 6.20649)
(-5.77714e-16 0.220066 6.0546)
(-1.88472e-15 0.227441 5.89455)
(1.2913e-15 0.233182 5.72902)
(1.03236e-15 0.237332 5.56059)
(-1.4674e-15 0.240942 5.39169)
(-1.00816e-15 0.244978 5.22548)
(-3.19943e-15 0.249192 5.06013)
(-7.86079e-16 0.250355 4.89332)
(-1.97774e-15 0.248652 4.7276)
(-1.93987e-15 0.245296 4.56574)
(-1.45096e-16 0.241465 4.40792)
(-2.06362e-15 0.236676 4.25526)
(-1.15522e-16 0.231183 4.10777)
(-2.80561e-15 0.224786 3.96604)
(1.2031e-15 0.217852 3.83067)
(4.05905e-16 0.210081 3.70001)
(9.31188e-16 0.201829 3.5715)
(9.54177e-16 0.192881 3.44499)
(6.76533e-16 0.183514 3.3205)
(4.53097e-16 0.173474 3.1985)
(-1.16252e-16 0.162629 3.07925)
(-2.9854e-16 0.150327 2.96373)
(-6.73419e-16 0.135994 2.85312)
(-1.50706e-15 0.118614 2.74935)
(-1.22541e-15 0.0974817 2.6548)
(-1.37254e-15 0.0720464 2.57231)
(-3.08738e-15 0.0425719 2.50459)
(-1.6131e-15 0.0100844 2.45403)
(-2.03641e-15 -0.0235004 2.422)
(-2.41553e-15 -0.056236 2.40825)
(-2.21241e-15 -0.0862519 2.41156)
(-1.47584e-15 -0.11321 2.42899)
(-8.84777e-16 -0.136699 2.45771)
(-5.88427e-16 -0.157299 2.49875)
(-1.15279e-15 -0.183156 2.53149)
(-1.17488e-15 -0.194127 2.60717)
(2.31605e-15 0.0418081 18.1468)
(2.63579e-15 0.060961 17.8454)
(1.90927e-15 0.0669639 17.4802)
(2.67797e-15 0.0684507 17.0096)
(2.51019e-15 0.0690937 16.4162)
(2.46073e-15 0.073801 15.6971)
(2.51771e-15 0.0823187 14.8551)
(1.85239e-15 0.084842 13.9496)
(1.3725e-15 0.078518 12.9752)
(1.34605e-15 0.0646549 11.9447)
(1.19261e-15 0.0517451 10.8708)
(1.19417e-15 0.0675253 9.75798)
(1.3243e-15 0.0880505 8.62458)
(1.31074e-15 0.111141 7.49739)
(1.18301e-15 0.118581 6.41243)
(4.53081e-15 0.122604 5.41837)
(4.29717e-16 0.106436 4.56638)
(-1.51352e-16 0.0836473 3.87616)
(-1.46146e-15 0.0399189 3.36824)
(-1.94542e-15 -0.00541288 3.01808)
(-1.13047e-15 -0.0474607 2.79232)
(-3.6398e-16 -0.0866006 2.6502)
(2.93594e-15 -0.133026 2.58165)
(2.15863e-15 -0.186591 2.5923)
(1.11306e-15 -0.23189 2.66884)
(1.08918e-15 -0.263801 2.77714)
(1.03399e-15 -0.287999 2.89835)
(1.68005e-15 -0.306537 3.02822)
(1.59401e-15 -0.312987 3.16884)
(1.4392e-15 -0.312547 3.31388)
(1.45961e-15 -0.30991 3.46332)
(1.54656e-15 -0.307178 3.61845)
(1.69675e-15 -0.304806 3.77596)
(1.80068e-15 -0.302986 3.93699)
(2.00307e-15 -0.295707 4.1021)
(2.46615e-15 -0.280922 4.26772)
(1.85187e-15 -0.261447 4.42686)
(1.89147e-15 -0.242692 4.57354)
(1.98554e-15 -0.226806 4.70837)
(1.64045e-15 -0.213661 4.83602)
(2.51252e-15 -0.201149 4.95921)
(1.63911e-15 -0.188381 5.07919)
(2.55653e-15 -0.175139 5.19601)
(2.65055e-15 -0.161306 5.30635)
(2.11649e-15 -0.14482 5.40778)
(1.53182e-15 -0.12624 5.49612)
(1.38752e-15 -0.108716 5.56787)
(1.94065e-15 -0.0927098 5.63675)
(6.53904e-16 -0.078905 5.70275)
(-1.97513e-15 -0.0655881 5.76186)
(-3.2085e-16 -0.0532109 5.81821)
(-2.21498e-15 -0.0388051 5.87031)
(-6.40027e-16 -0.0184744 5.9184)
(1.46461e-16 0.00696238 5.95812)
(4.06605e-16 0.0345614 5.98621)
(3.12889e-16 0.0620297 5.99861)
(2.35619e-15 0.0876925 5.99565)
(2.23323e-16 0.111908 5.97591)
(7.71878e-16 0.134634 5.94073)
(-7.10506e-16 0.156019 5.88945)
(5.0993e-16 0.177308 5.82581)
(1.0716e-15 0.19892 5.7494)
(1.03564e-15 0.219239 5.65882)
(7.45269e-16 0.236587 5.55358)
(4.64484e-16 0.250932 5.43603)
(3.78043e-16 0.262139 5.30804)
(1.79419e-15 0.270876 5.17186)
(1.68682e-15 0.277418 5.02981)
(-2.56631e-17 0.282193 4.88453)
(-7.23709e-16 0.286858 4.73868)
(-2.00535e-15 0.292194 4.5928)
(-6.89378e-16 0.294415 4.44485)
(-7.37137e-16 0.292775 4.2955)
(-1.17008e-15 0.288876 4.1489)
(-7.97163e-16 0.284067 4.00557)
(-1.0158e-15 0.278101 3.86724)
(-2.12075e-15 0.271213 3.73422)
(-7.36301e-16 0.263186 3.60744)
(-1.986e-16 0.254813 3.48621)
(-1.39017e-15 0.246299 3.37134)
(-4.39927e-15 0.237973 3.26034)
(-3.69548e-15 0.229257 3.15033)
(1.77612e-15 0.220025 3.04092)
(-3.27236e-15 0.210058 2.93261)
(-5.6331e-15 0.199007 2.8255)
(-2.20347e-15 0.18608 2.72056)
(-2.81511e-15 0.170457 2.61899)
(-3.09399e-15 0.15088 2.52282)
(-3.44081e-15 0.126374 2.4345)
(-4.8691e-15 0.0962684 2.35699)
(-3.05189e-15 0.0608242 2.29327)
(-4.84613e-15 0.0213611 2.24602)
(-4.84264e-15 -0.0196672 2.21691)
(-3.46927e-15 -0.059606 2.20591)
(-2.59587e-15 -0.0960449 2.21162)
(-2.90998e-15 -0.128259 2.231)
(-1.7562e-15 -0.156046 2.2606)
(-2.31175e-15 -0.179674 2.30132)
(-2.18857e-15 -0.208346 2.33439)
(-2.08433e-15 -0.222857 2.40345)
(2.18474e-15 0.0460243 17.0595)
(2.38492e-15 0.0655238 16.5692)
(1.6662e-15 0.0788074 15.9749)
(1.44599e-15 0.0900287 15.246)
(2.67055e-15 0.101371 14.3868)
(2.41088e-15 0.116745 13.4399)
(8.9903e-16 0.13508 12.4171)
(1.64349e-15 0.147811 11.4136)
(9.30229e-16 0.146569 10.4079)
(6.04251e-16 0.138 9.42661)
(9.27045e-16 0.122288 8.51495)
(1.35644e-15 0.145746 7.6624)
(1.34874e-15 0.1741 6.85823)
(1.53968e-15 0.205667 6.06622)
(1.03962e-15 0.208783 5.3171)
(1.66473e-16 0.203681 4.6462)
(-2.57877e-16 0.172999 4.07018)
(-3.75153e-15 0.13399 3.56684)
(-4.95438e-15 0.0720115 3.17261)
(7.37466e-16 0.0125245 2.8903)
(-9.01454e-16 -0.0364639 2.69527)
(-2.56283e-16 -0.0805677 2.54679)
(1.40416e-15 -0.13582 2.44035)
(-3.45207e-15 -0.201974 2.39766)
(9.03627e-16 -0.256047 2.41902)
(2.0108e-15 -0.292001 2.47378)
(2.38182e-15 -0.319105 2.54346)
(-2.00842e-16 -0.340824 2.62267)
(9.9484e-16 -0.349368 2.71052)
(1.37189e-15 -0.351336 2.80061)
(3.63831e-16 -0.351992 2.89855)
(1.60697e-15 -0.352211 3.01029)
(1.52594e-15 -0.352444 3.1328)
(1.33798e-15 -0.353307 3.26412)
(1.97616e-15 -0.347709 3.40179)
(1.74348e-15 -0.333364 3.54219)
(2.1077e-15 -0.313366 3.68001)
(2.12337e-15 -0.293455 3.81007)
(2.40567e-15 -0.276386 3.93194)
(2.32346e-15 -0.262523 4.04878)
(1.98934e-15 -0.249711 4.16276)
(1.24966e-15 -0.236921 4.2754)
(3.00915e-15 -0.22366 4.38762)
(2.16858e-15 -0.208865 4.49708)
(1.92898e-15 -0.190219 4.60065)
(1.67901e-15 -0.169089 4.69216)
(1.6489e-15 -0.149258 4.76687)
(1.48967e-15 -0.131298 4.83961)
(1.13066e-15 -0.116066 4.91016)
(6.89653e-16 -0.101773 4.97467)
(4.05746e-16 -0.0887391 5.03816)
(2.55247e-16 -0.0734968 5.0991)
(1.27732e-16 -0.0515298 5.15656)
(1.14779e-16 -0.023377 5.20654)
(1.0568e-16 0.00798391 5.24631)
(-4.51173e-16 0.0399149 5.27222)
(2.25342e-15 0.0703796 5.28475)
(1.11258e-15 0.0996515 5.28224)
(1.6874e-15 0.127542 5.26616)
(1.75825e-15 0.153885 5.23473)
(2.72001e-15 0.179697 5.19072)
(7.77137e-16 0.206076 5.13497)
(2.37696e-16 0.231527 5.06645)
(1.22277e-16 0.253913 4.98389)
(9.93266e-16 0.272803 4.88905)
(5.13676e-16 0.288023 4.78361)
(1.40993e-15 0.300091 4.6695)
(1.48359e-15 0.309343 4.54884)
(-1.15743e-15 0.315991 4.42467)
(-2.15251e-15 0.322055 4.29728)
(-2.76026e-15 0.328787 4.16929)
(-6.5158e-16 0.332451 4.03975)
(-1.97899e-15 0.33152 3.90749)
(8.35436e-17 0.327592 3.77697)
(-7.88437e-16 0.322229 3.64889)
(-5.77825e-15 0.315366 3.5254)
(-6.43409e-15 0.307311 3.40703)
(-2.3945e-15 0.298033 3.29487)
(-4.94164e-15 0.288238 3.18826)
(-5.86564e-16 0.278668 3.08691)
(-2.08428e-15 0.270042 2.99112)
(3.26237e-16 0.261741 2.89748)
(-3.69498e-15 0.252977 2.80325)
(-5.20529e-16 0.243377 2.70894)
(-7.4795e-15 0.232423 2.61449)
(-4.14853e-15 0.219107 2.52074)
(-4.22201e-15 0.202407 2.42884)
(-3.76485e-15 0.180876 2.34083)
(-3.75644e-15 0.153292 2.25919)
(-3.83999e-15 0.118803 2.18702)
(-3.71117e-15 0.0776232 2.12752)
(-5.32962e-15 0.0313467 2.08362)
(-5.38343e-15 -0.0170359 2.05714)
(-3.4434e-15 -0.0640982 2.04812)
(-4.0261e-15 -0.106782 2.05503)
(-2.88829e-15 -0.143959 2.07471)
(-2.30411e-15 -0.175585 2.10334)
(-2.94645e-15 -0.20191 2.14181)
(-2.75679e-15 -0.232754 2.17313)
(-2.98762e-15 -0.250272 2.23459)
(2.55883e-15 0.0459377 15.4661)