/*--------------------------------*- C++ -*----------------------------------*\
| =========                 |                                                 |
| \\      /  F ield         | OpenFOAM: The Open Source CFD Toolbox           |
|  \\    /   O peration     | Version:  4.1                                   |
|   \\  /    A nd           | Web:      www.OpenFOAM.org                      |
|    \\/     M anipulation  |                                                 |
\*---------------------------------------------------------------------------*/
FoamFile
{
    version     2.0;
    format      ascii;
    class       volScalarField;
    location    "12";
    object      p;
}
// * * * * * * * * * * * * * * * * * * * * * * * * * * * * * * * * * * * * * //

dimensions      [0 2 -2 0 0 0 0];

internalField   nonuniform List<scalar> 
26785
(
2.31812
2.58167
2.92212
3.33228
3.56863
3.7451
3.65281
3.4435
3.20975
3.21252
3.34827
3.81283
4.12507
4.55944
4.85593
5.11182
5.16794
5.15381
4.98062
4.71094
4.37065
3.9517
3.56535
3.13393
2.70834
2.24311
1.90115
1.56423
1.2539
0.922261
0.587013
0.241355
-0.0643327
-0.387178
-0.711038
-1.04397
-1.31566
-1.5159
-1.63452
-1.7058
-1.74734
-1.7612
-1.7287
-1.62977
-1.45622
-1.20594
-0.934671
-0.699856
-0.328286
-0.0403998
0.295028
0.520441
0.769149
0.912828
1.06448
1.14581
1.23608
1.27659
1.33371
1.36163
1.41065
1.43592
1.47987
1.5068
1.55027
1.57836
1.61957
1.64807
1.68728
1.7124
1.7411
1.75438
1.76649
1.76371
1.7564
1.73593
1.71049
1.67543
1.63726
1.5931
1.54705
1.4962
1.44312
1.38583
1.32623
1.26304
1.19739
1.12872
1.05748
0.983559
0.906827
0.827458
0.744819
0.659079
0.569277
0.475584
0.379205
0.277077
0.178109
0.0408696
2.30242
2.5814
2.92534
3.33416
3.57006
3.74484
3.64821
3.43692
3.20147
3.20548
3.34479
3.81368
4.12866
4.56579
4.86355
5.12047
5.17665
5.16297
4.98766
4.71537
4.37157
3.95071
3.56316
3.13054
2.70378
2.23744
1.8952
1.55847
1.24881
0.917793
0.582678
0.237206
-0.0682251
-0.39167
-0.716771
-1.05168
-1.32436
-1.52371
-1.64004
-1.70959
-1.75023
-1.76431
-1.73209
-1.63334
-1.45906
-1.20753
-0.935233
-0.698331
-0.322349
-0.0341714
0.302491
0.527174
0.776746
0.919561
1.07098
1.15047
1.23946
1.27842
1.33514
1.36237
1.41132
1.43629
1.4803
1.50699
1.55039
1.57821
1.61937
1.64776
1.68707
1.71226
1.74107
1.75437
1.7665
1.76366
1.75622
1.73554
1.70986
1.67463
1.63637
1.59226
1.54631
1.49562
1.44268
1.38557
1.3261
1.2631
1.19761
1.12915
1.05809
0.984407
0.90787
0.828763
0.746345
0.660846
0.57117
0.477343
0.38129
0.277837
0.197951
0.0208379
2.27212
2.5807
2.93049
3.3376
3.57489
3.7479
3.64338
3.42742
3.18754
3.19221
3.33608
3.81186
4.13218
4.57554
4.87634
5.13553
5.19212
5.18002
5.00231
4.72548
4.37493
3.95031
3.56032
3.12543
2.69705
2.22925
1.88651
1.54956
1.2406
0.910071
0.575154
0.230355
-0.0741678
-0.398321
-0.725821
-1.06498
-1.34063
-1.53962
-1.65271
-1.71944
-1.75858
-1.7728
-1.74096
-1.64229
-1.46687
-1.2138
-0.939181
-0.697874
-0.314135
-0.0241947
0.31485
0.539092
0.790077
0.932284
1.08329
1.16026
1.24698
1.28363
1.33934
1.36561
1.41412
1.43884
1.48278
1.50935
1.55253
1.58016
1.62113
1.64948
1.68877
1.71417
1.74303
1.75649
1.76863
1.76584
1.75821
1.73726
1.71118
1.67566
1.63721
1.5931
1.54721
1.49664
1.44379
1.38679
1.32737
1.2644
1.19893
1.13051
1.05947
0.985835
0.909358
0.830367
0.748081
0.662706
0.573072
0.478969
0.38274
0.277812
0.203787
0.0259215
2.23062
2.58266
2.93844
3.34425
3.5839
3.75313
3.63466
3.41027
3.16323
3.16994
3.3228
3.81117
4.14092
4.59382
4.89939
5.16141
5.21843
5.20682
5.02463
4.73909
4.37845
3.94808
3.55531
3.11777
2.68812
2.21902
1.87677
1.54004
1.23244
0.902398
0.567599
0.223819
-0.0785605
-0.402877
-0.732713
-1.07717
-1.35662
-1.55558
-1.66547
-1.73037
-1.76869
-1.78403
-1.75273
-1.65423
-1.47673
-1.22232
-0.945685
-0.695745
-0.306765
-0.0121598
0.326132
0.55203
0.801515
0.944754
1.09272
1.16791
1.25043
1.2859
1.33957
1.3661
1.41328
1.43891
1.48209
1.50948
1.55175
1.57991
1.61999
1.64888
1.68737
1.71333
1.7415
1.75544
1.7671
1.76471
1.75656
1.73573
1.70909
1.67368
1.635
1.59128
1.54542
1.49534
1.44263
1.38608
1.32681
1.26419
1.19878
1.13057
1.05955
0.986031
0.909583
0.83076
0.74861
0.663397
0.573737
0.47956
0.382182
0.277595
0.189942
0.042789
2.1811
2.5901
2.9487
3.35361
3.59735
3.76114
3.62376
3.38789
3.13163
3.14121
3.30588
3.80966
4.15203
4.6168
4.92888
5.1933
5.25035
5.23816
5.05022
4.75373
4.38177
3.94576
3.55093
3.11147
2.68179
2.21266
1.87213
1.53621
1.22978
0.899057
0.563709
0.220259
-0.0807205
-0.405617
-0.737402
-1.08588
-1.36765
-1.56609
-1.67349
-1.73809
-1.77706
-1.79429
-1.76355
-1.66496
-1.48546
-1.23048
-0.952361
-0.694155
-0.303531
-0.00458386
0.331373
0.558774
0.805489
0.949331
1.09365
1.16703
1.24591
1.28049
1.33272
1.35969
1.40628
1.43294
1.47603
1.50432
1.54633
1.57505
1.61477
1.64421
1.68239
1.70887
1.73678
1.75122
1.76284
1.76098
1.75277
1.73225
1.70557
1.67057
1.63217
1.58909
1.54365
1.49418
1.44188
1.3859
1.32707
1.26498
1.19992
1.13205
1.06125
0.987956
0.911654
0.833066
0.751197
0.666288
0.576742
0.482616
0.384098
0.279551
0.180666
0.0553711
2.12673
2.60583
2.9624
3.36764
3.61505
3.76965
3.60816
3.35909
3.09404
3.10922
3.29052
3.81172
4.16864
4.64366
4.96279
5.22703
5.28381
5.26714
5.07187
4.76211
4.38055
3.94017
3.54509
3.10422
2.67448
2.20442
1.86533
1.53068
1.22506
0.892191
0.554406
0.210424
-0.0894749
-0.414335
-0.747028
-1.09737
-1.37952
-1.57538
-1.68
-1.74447
-1.78465
-1.80377
-1.77313
-1.67344
-1.49122
-1.23381
-0.9524
-0.686849
-0.293455
0.00855076
0.342699
0.570326
0.814934
0.958176
1.09843
1.16839
1.24351
1.27637
1.32711
1.35381
1.39969
1.4266
1.46913
1.49739
1.53865
1.56725
1.60628
1.63578
1.67345
1.70012
1.72755
1.74221
1.75361
1.75204
1.74363
1.72332
1.69666
1.66216
1.62424
1.582
1.5372
1.48852
1.43679
1.38147
1.32328
1.26197
1.19759
1.13035
1.06009
0.987314
0.911468
0.833338
0.752004
0.667618
0.578421
0.484475
0.385078
0.280409
0.173801
0.0618307
2.06728
2.6233
2.97368
3.38221
3.63432
3.77792
3.59058
3.3291
3.05711
3.08009
3.2785
3.81485
4.18398
4.66503
4.98892
5.24952
5.30446
5.28076
5.07795
4.75517
4.36687
3.9243
3.53039
3.08952
2.66074
2.19131
1.85432
1.5227
1.2182
0.882676
0.541068
0.196396
-0.102809
-0.427616
-0.761466
-1.1135
-1.39614
-1.58857
-1.68973
-1.75348
-1.79515
-1.81672
-1.78689
-1.68555
-1.49972
-1.23848
-0.952614
-0.68031
-0.283552
0.0203522
0.353028
0.580767
0.824453
0.967251
1.10366
1.16954
1.24077
1.27188
1.32155
1.34818
1.39346
1.42022
1.46172
1.48923
1.5292
1.55722
1.59556
1.62512
1.66247
1.68932
1.71633
1.73102
1.74212
1.74068
1.73205
1.71188
1.68531
1.65136
1.61404
1.57272
1.52868
1.48084
1.42984
1.3753
1.31788
1.25748
1.19403
1.12766
1.05815
0.986096
0.910998
0.833598
0.75301
0.669345
0.580686
0.487043
0.387071
0.282305
0.169987
0.0664798
2.0159
2.64593
2.98544
3.39934
3.65456
3.78415
3.57227
3.30137
3.02764
3.06101
3.2765
3.82318
4.20062
4.67993
5.00455
5.25751
5.30958
5.27758
5.06798
4.73575
4.34443
3.90316
3.51046
3.06985
2.64055
2.17238
1.83728
1.50938
1.20547
0.865985
0.517337
0.171295
-0.125183
-0.447738
-0.780927
-1.13428
-1.41812
-1.60674
-1.70368
-1.76601
-1.80827
-1.83165
-1.80227
-1.69876
-1.50805
-1.2415
-0.950795
-0.671426
-0.269995
0.0363874
0.366991
0.594604
0.83757
0.979975
1.11212
1.1733
1.23982
1.26943
1.31825
1.3451
1.38966
1.41579
1.45548
1.48146
1.51935
1.54629
1.58374
1.61325
1.65022
1.67704
1.70342
1.71782
1.72827
1.72658
1.71744
1.69716
1.67057
1.63711
1.60043
1.56003
1.51687
1.46988
1.41979
1.36621
1.3098
1.25049
1.18824
1.12304
1.0546
0.983474
0.909413
0.833021
0.753439
0.670651
0.582694
0.489448
0.389194
0.284235
0.168081
0.0693289
1.9797
2.66892
2.99519
3.41569
3.67143
3.78556
3.55305
3.27748
3.00587
3.05096
3.27968
3.83065
4.21316
4.6893
5.01334
5.25951
5.30835
5.26861
5.05102
4.71072
4.31777
3.8786
3.48641
3.04522
2.61414
2.14726
1.81451
1.49093
1.18826
0.845865
0.489617
0.14093
-0.153098
-0.473121
-0.804648
-1.1578
-1.44265
-1.62853
-1.72145
-1.78212
-1.82399
-1.84792
-1.81777
-1.71155
-1.51619
-1.24452
-0.949354
-0.663939
-0.257617
0.0518158
0.380425
0.607701
0.850162
0.991722
1.11963
1.17626
1.23832
1.26688
1.31553
1.34297
1.3867
1.41152
1.44894
1.47303
1.50871
1.53446
1.57116
1.60079
1.63748
1.6641
1.68975
1.70366
1.71338
1.71123
1.70153
1.68109
1.65446
1.62139
1.58542
1.54592
1.50372
1.45764
1.40842
1.35585
1.30058
1.24244
1.1815
1.11757
1.05037
0.980338
0.907414
0.832188
0.753754
0.671972
0.584811
0.492066
0.391806
0.28673
0.168321
0.0715727
1.96126
2.68332
3.00039
3.42826
3.68123
3.77983
3.53443
3.25942
2.99327
3.04969
3.28976
3.83952
4.22554
4.69972
5.02265
5.26087
5.30484
5.25521
5.02823
4.68112
4.28761
3.85102
3.45975
3.01972
2.58629
2.11924
1.78768
1.46744
1.16588
0.821994
0.45876
0.10589
-0.187365
-0.504537
-0.83333
-1.18399
-1.46868
-1.6527
-1.74263
-1.80178
-1.84234
-1.8655
-1.83257
-1.72207
-1.52155
-1.24461
-0.945335
-0.654368
-0.242482
0.0714045
0.398229
0.624682
0.866407
1.00627
1.12885
1.18074
1.23895
1.26747
1.31648
1.34422
1.38639
1.40879
1.44336
1.46521
1.49896
1.52386
1.56005
1.58975
1.62598
1.65182
1.67626
1.68914
1.69781
1.69487
1.68446
1.66365
1.63687
1.60401
1.56875
1.53009
1.48887
1.4437
1.3955
1.34399
1.28999
1.23316
1.1737
1.11122
1.04544
0.976727
0.905128
0.831214
0.754045
0.673374
0.587081
0.494894
0.394787
0.289623
0.169851
0.0735048
1.96077
2.67804
2.99596
3.43386
3.6836
3.76966
3.51762
3.24604
2.9833
3.04802
3.29806
3.84324
4.2318
4.70713
5.03094
5.26091
5.29958
5.24027
5.0047
4.65224
4.25878
3.82329
3.43214
2.99462
2.56043
2.09274
1.76126
1.44233
1.14137
0.796178
0.427424
0.0699999
-0.224555
-0.539468
-0.865376
-1.21221
-1.49523
-1.67803
-1.76625
-1.82395
-1.86232
-1.88341
-1.8465
-1.731
-1.52543
-1.24407
-0.941455
-0.645708
-0.22851
0.0903899
0.415994
0.641371
0.882112
1.01966
1.13662
1.18405
1.23974
1.26939
1.31909
1.34675
1.38666
1.40605
1.43768
1.45749
1.48985
1.51449
1.5505
1.58036
1.61603
1.64069
1.66351
1.67505
1.68249
1.67865
1.66751
1.64626
1.61922
1.58651
1.55185
1.5139
1.47351
1.42923
1.38214
1.33173
1.27896
1.22342
1.16542
1.10439
1.04008
0.972797
0.902643
0.830155
0.7543
0.67476
0.589348
0.49775
0.397906
0.292694
0.171977
0.0756737
1.99218
2.66545
2.98794
3.43511
3.68029
3.75671
3.50315
3.23558
2.9756
3.04674
3.30718
3.84855
4.24081
4.71724
5.0415
5.2615
5.29233
5.22135
4.97832
4.62273
4.22889
3.79277
3.40174
2.96858
2.53538
2.06567
1.73219
1.4121
1.11135
0.765634
0.39327
0.0319832
-0.265376
-0.578179
-0.900475
-1.2423
-1.52244
-1.70379
-1.79159
-1.84822
-1.88386
-1.90191
-1.8593
-1.73677
-1.52514
-1.23998
-0.93493
-0.634781
-0.211771
0.112847
0.437963
0.662088
0.901253
1.0354
1.14595
1.18914
1.24396
1.27532
1.32537
1.35166
1.38859
1.40456
1.43356
1.45176
1.48373
1.50864
1.54469
1.57437
1.60897
1.63164
1.65216
1.66175
1.66757
1.66244
1.6504
1.62844
1.60112
1.56849
1.53428
1.49681
1.4571
1.41379
1.36801
1.31884
1.2674
1.21321
1.15675
1.09729
1.03459
0.968916
0.900375
0.829445
0.754979
0.676485
0.59185
0.500764
0.401145
0.295829
0.174166
0.0777507
2.03026
2.64027
2.9721
3.42966
3.66989
3.73843
3.4877
3.22421
2.9669
3.04354
3.31318
3.85241
4.24987
4.72718
5.0507
5.26119
5.28339
5.20003
4.95129
4.59488
4.20015
3.76282
3.37295
2.94461
2.51318
2.04054
1.70349
1.38048
1.07953
0.733198
0.358852
-0.00534783
-0.306538
-0.618244
-0.936841
-1.27335
-1.55015
-1.73006
-1.81824
-1.87371
-1.90609
-1.92047
-1.87152
-1.74081
-1.52283
-1.23524
-0.928681
-0.624477
-0.196028
0.134078
0.459347
0.682518
0.919462
1.04985
1.15398
1.19389
1.24898
1.28217
1.33178
1.35592
1.38954
1.40253
1.42954
1.44706
1.47954
1.5051
1.5413
1.57062
1.60373
1.62401
1.64197
1.64946
1.65346
1.64691
1.63386
1.61109
1.58357
1.55108
1.51709
1.47985
1.44075
1.39846
1.3539
1.30594
1.25585
1.20299
1.14795
1.09
1.02892
0.964923
0.898044
0.828662
0.75557
0.677996
0.593977
0.503298
0.403876
0.298412
0.176059
0.0790159
2.06213
2.61019
2.95337
3.42071
3.65437
3.71842
3.47546
3.21586
2.96179
3.04321
3.32022
3.85892
4.264
4.73958
5.06028
5.26098
5.27141
5.1745
4.92196
4.56564
4.16967
3.73152
3.34307
2.91934
2.48905
2.01185
1.6695
1.34227
1.04111
0.695018
0.320319
-0.0448233
-0.34966
-0.660535
-0.974862
-1.30533
-1.57833
-1.7564
-1.8452
-1.89968
-1.92918
-1.93953
-1.88314
-1.74188
-1.51621
-1.22659
-0.918919
-0.61076
-0.177181
0.158083
0.485022
0.707736
0.941257
1.06645
1.16395
1.20166
1.25807
1.29195
1.3395
1.36043
1.39081
1.40163
1.42785
1.44603
1.47982
1.50591
1.54197
1.57026
1.60102
1.61838
1.63343
1.63835
1.64008
1.63171
1.61729
1.59369
1.566
1.53356
1.49961
1.46248
1.42405
1.38276
1.3394
1.2927
1.24402
1.19266
1.13907
1.08268
1.02333
0.96111
0.895951
0.828098
0.756275
0.679513
0.595925
0.505511
0.406208
0.300563
0.177819
0.0790568
2.08394
2.57948
2.93224
3.40947
3.63448
3.69628
3.46331
3.20684
2.95539
3.04169
3.32455
3.86423
4.27872
4.75182
5.06813
5.25929
5.25754
5.14771
4.89312
4.53591
4.14148
3.70344
3.3159
2.89487
2.46454
1.98259
1.63425
1.30291
1.0019
0.65592
0.281765
-0.0832944
-0.391724
-0.702468
-1.01269
-1.33726
-1.60644
-1.78314
-1.87212
-1.92541
-1.95242
-1.9582
-1.89393
-1.74161
-1.50861
-1.21771
-0.909136
-0.596929
-0.159028
0.180526
0.509792
0.732331
0.961636
1.08108
1.17273
1.20905
1.26713
1.30064
1.34465
1.36189
1.38963
1.39977
1.42695
1.44703
1.48219
1.50865
1.54435
1.57122
1.59913
1.61369
1.6259
1.62815
1.62747
1.6171
1.60128
1.57705
1.54915
1.5167
1.48268
1.44569
1.40782
1.3673
1.32495
1.27942
1.23205
1.1822
1.13008
1.07523
1.01757
0.957126
0.893644
0.827223
0.756485
0.680413
0.597137
0.506877
0.407666
0.301844
0.179291
0.0778084
2.09772
2.55116
2.91011
3.39692
3.61183
3.67521
3.4546
3.2012
2.9526
3.043
3.33027
3.87236
4.29781
4.76586
5.07748
5.2557
5.23947
5.11734
4.86197
4.50357
4.11319
3.67416
3.28517
2.86478
2.43324
1.94652
1.59187
1.2567
0.956608
0.611392
0.238918
-0.124192
-0.435387
-0.74582
-1.05145
-1.36982
-1.63447
-1.80978
-1.8978
-1.9503
-1.97609
-1.97647
-1.90335
-1.73966
-1.49875
-1.20475
-0.894929
-0.578795
-0.137257
0.206085
0.538632
0.760687
0.98418
1.09629
1.18327
1.22006
1.27933
1.30992
1.34883
1.3621
1.38851
1.40001
1.42974
1.4522
1.48827
1.51446
1.54925
1.57392
1.59866
1.61034
1.61954
1.61877
1.61532
1.60279
1.58569
1.56075
1.53249
1.49988
1.46581
1.42892
1.3914
1.35153
1.31015
1.26585
1.21989
1.17167
1.12121
1.06795
1.012
0.953275
0.89137
0.826213
0.756327
0.680751
0.59766
0.507448
0.408299
0.3024
0.180453
0.075697
2.10722
2.52689
2.88846
3.38366
3.58746
3.65443
3.44594
3.19531
2.94856
3.04263
3.33366
3.8792
4.31638
4.77854
5.08652
5.24949
5.21967
5.08685
4.83025
4.47482
4.08945
3.64672
3.25406
2.83224
2.3987
1.90841
1.54855
1.21089
0.91303
0.568059
0.197236
-0.163508
-0.477333
-0.78764
-1.08938
-1.40242
-1.66235
-1.8365
-1.9227
-1.97524
-1.99939
-1.99325
-1.91184
-1.73931
-1.49117
-1.19198
-0.880135
-0.560514
-0.116288
0.231314
0.566707
0.786861
1.00323
1.10816
1.19159
1.23123
1.29066
1.31621
1.349
1.35936
1.38652
1.40088
1.43342
1.45805
1.49444
1.51995
1.55358
1.5759
1.59787
1.607
1.61336
1.60975
1.60367
1.58936
1.57118
1.54547
1.51672
1.48387
1.44972
1.41278
1.3754
1.33608
1.2956
1.25255
1.20802
1.16137
1.11257
1.06077
1.00629
0.949043
0.888471
0.824332
0.755088
0.679859
0.596922
0.506764
0.407764
0.301942
0.181033
0.0730451
2.11429
2.50587
2.86636
3.36751
3.56148
3.6365
3.44051
3.19393
2.94829
3.04461
3.33906
3.88975
4.33858
4.79144
5.09514
5.24027
5.19684
5.05267
4.7941
4.44804
4.06486
3.61442
3.21457
2.78994
2.3554
1.86275
1.49888
1.15925
0.864833
0.520935
0.15229
-0.205555
-0.521157
-0.829747
-1.12784
-1.43573
-1.68957
-1.86223
-1.94719
-1.99935
-2.02111
-2.00857
-1.92066
-1.74025
-1.48438
-1.17564
-0.859238
-0.537547
-0.0921812
0.260811
0.599799
0.816115
1.02369
1.12087
1.20183
1.24524
1.30267
1.32107
1.34817
1.35818
1.38753
1.40464
1.43933
1.46551
1.50155
1.52596
1.55798
1.57801
1.59755
1.60412
1.60767
1.60141
1.59302
1.57711
1.55763
1.53094
1.50146
1.46817
1.43378
1.39675
1.35956
1.32086
1.28144
1.23974
1.1967
1.15156
1.1043
1.0538
1.0005
0.94441
0.884896
0.821534
0.752768
0.677779
0.594982
0.504906
0.406156
0.300608
0.18096
0.0701415
2.11764
2.4871
2.84487
3.3493
3.53399
3.61997
3.43473
3.19309
2.94624
3.04396
3.34298
3.90078
4.36079
4.80186
5.1015
5.22844
5.17513
5.01703
4.76071
4.42593
4.04144
3.58099
3.17244
2.74411
2.30978
1.81651
1.45022
1.10982
0.819247
0.476424
0.110727
-0.245419
-0.563032
-0.868909
-1.16514
-1.46902
-1.71595
-1.88822
-1.97397
-2.02288
-2.0406
-2.02397
-1.9314
-1.74212
-1.47978
-1.16131
-0.838533
-0.515401
-0.0689878
0.290069
0.632129
0.842367
1.04104
1.13068
1.21028
1.25634
1.30959
1.32049
1.34505
1.35719
1.38839
1.40727
1.44341
1.47051
1.50608
1.52979
1.56058
1.57898
1.59656
1.60102
1.60234
1.59414
1.58388
1.56631
1.54532
1.51747
1.48711
1.45323
1.41854
1.38151
1.34462
1.30661
1.26821
1.22775
1.18598
1.14203
1.09594
1.04642
0.99398
0.938764
0.880089
0.817364
0.749016
0.674276
0.591693
0.501818
0.403444
0.298378
0.180216
0.067175
2.11983
2.47182
2.8236
3.32751
3.50616
3.60611
3.43146
3.19857
2.94809
3.04506
3.3491
3.91658
4.3877
4.81335
5.10578
5.21351
5.15103
4.97823
4.7285
4.40073
4.01116
3.53918
3.12089
2.6888
2.25682
1.76421
1.39677
1.05578
0.768254
0.428874
0.0666322
-0.287237
-0.606478
-0.908131
-1.20303
-1.50312
-1.7416
-1.91455
-2.0009
-2.04561
-2.05859
-2.04036
-1.94151
-1.74128
-1.47345
-1.14688
-0.815476
-0.489522
-0.0411516
0.323019
0.66784
0.870737
1.05873
1.14141
1.2215
1.26701
1.313
1.31876
1.34435
1.35878
1.39038
1.40995
1.44729
1.47513
1.5103
1.53412
1.564
1.58094
1.59662
1.59908
1.59834
1.58836
1.57607
1.55654
1.53374
1.50451
1.47307
1.43851
1.40354
1.36666
1.33025
1.29304
1.25569
1.2163
1.17557
1.1325
1.08721
1.03846
0.986719
0.932207
0.874228
0.812059
0.744095
0.669629
0.587311
0.497743
0.399876
0.295522
0.178987
0.064421
2.1204
2.45945
2.80461
3.30368
3.47772
3.59266
3.42695
3.20439
2.94784
3.0437
3.35375
3.93242
4.41406
4.82433
5.10673
5.19738
5.12692
4.94371
4.7011
4.37464
3.97853
3.49537
3.06889
2.63299
2.20369
1.71274
1.34531
1.00485
0.72086
0.385328
0.0261981
-0.324985
-0.646828
-0.945168
-1.23979
-1.53721
-1.76978
-1.94307
-2.02515
-2.06872
-2.07709
-2.05852
-1.95022
-1.7417
-1.46948
-1.13728
-0.797017
-0.464224
-0.0124354
0.355186
0.699761
0.894387
1.0711
1.14853
1.23036
1.27233
1.30919
1.31463
1.34317
1.35823
1.38899
1.40958
1.44876
1.47787
1.51348
1.53847
1.5674
1.58293
1.59664
1.5971
1.59438
1.58267
1.56843
1.54692
1.5223
1.49171
1.45922
1.42404
1.3889
1.35231
1.31644
1.28
1.2435
1.20486
1.16479
1.12227
1.07752
1.0294
0.978381
0.924556
0.86724
0.805626
0.738071
0.663949
0.581978
0.492878
0.395706
0.292323
0.177481
0.0622618
2.12235
2.4509
2.78819
3.277
3.45116
3.57885
3.42273
3.21406
2.95066
3.04541
3.36275
3.95321
4.441
4.83742
5.10425
5.17899
5.09784
4.91045
4.66968
4.33858
3.93618
3.44411
3.01002
2.57077
2.14505
1.65697
1.28958
0.952403
0.672263
0.336688
-0.0158383
-0.363348
-0.686199
-0.98239
-1.27562
-1.56805
-1.79907
-1.97222
-2.04918
-2.09153
-2.09472
-2.07501
-1.95629
-1.74383
-1.4645
-1.12802
-0.775738
-0.435028
0.0215731
0.389105
0.731577
0.917994
1.08313
1.1568
1.24062
1.27514
1.30422
1.31324
1.34397
1.35709
1.38739
1.41045
1.45195
1.48219
1.51865
1.54425
1.57134
1.58486
1.59614
1.59423
1.58934
1.57585
1.55969
1.53621
1.50978
1.47792
1.44454
1.40892
1.37381
1.33769
1.30252
1.26683
1.23106
1.19296
1.15333
1.11118
1.06686
1.01936
0.96915
0.916081
0.859422
0.798356
0.731206
0.657457
0.575919
0.487481
0.391253
0.289131
0.175936
0.0611403
2.12198
2.44471
2.77543
3.24966
3.42579
3.56255
3.41777
3.22132
2.95
3.04591
3.37218
3.97434
4.46483
4.85207
5.09842
5.1601
5.06901
4.88052
4.63662
4.2988
3.89187
3.39447
2.95421
2.51077
2.08815
1.60498
1.23856
0.906246
0.625372
0.293682
-0.0528203
-0.401721
-0.720357
-1.01637
-1.30896
-1.59659
-1.82673
-1.99962
-2.07746
-2.11796
-2.11399
-2.09193
-1.9644
-1.74966
-1.46167
-1.12519
-0.758152
-0.406558
0.0547922
0.417962
0.756154
0.935556
1.0904
1.1621
1.24637
1.26987
1.29666
1.31039
1.34066
1.35191
1.38382
1.41066
1.45417
1.4853
1.52276
1.54808
1.57295
1.58421
1.59308
1.58898
1.58208
1.56694
1.54908
1.52382
1.49583
1.46299
1.42904
1.39323
1.35829
1.32267
1.28815
1.25307
1.21785
1.18009
1.14076
1.0989
1.05502
1.00823
0.958955
0.906767
0.850835
0.790365
0.72367
0.650381
0.569452
0.481931
0.386899
0.286294
0.174516
0.0613316
2.12053
2.43992
2.76404
3.22063
3.40598
3.54622
3.41266
3.22747
2.95174
3.05041
3.38708
4.00077
4.48675
4.86848
5.08981
5.13721
5.03704
4.84452
4.59318
4.2483
3.83794
3.34037
2.89582
2.44874
2.02795
1.55303
1.18983
0.85959
0.573181
0.253144
-0.0901233
-0.44237
-0.754911
-1.04885
-1.34026
-1.62593
-1.8536
-2.0233
-2.10374
-2.1437
-2.13572
-2.10352
-1.97325
-1.74975
-1.45223
-1.11862
-0.740722
-0.376033
0.0902956
0.445881
0.779667
0.95318
1.09947
1.1708
1.25177
1.2631
1.29316
1.30977
1.33638
1.34821
1.38315
1.41318
1.45764
1.48897
1.52665
1.55058
1.57306
1.58177
1.58818
1.58188
1.57293
1.55603
1.53648
1.50965
1.48038
1.44681
1.41259
1.37676
1.34211
1.30698
1.2731
1.23853
1.20376
1.16626
1.12714
1.08555
1.04213
0.99614
0.94788
0.896682
0.841536
0.7817
0.71553
0.642842
0.562758
0.47644
0.382846
0.283928
0.173216
0.0626704
2.11651
2.4367
2.75486
3.19018
3.3909
3.52901
3.40639
3.2289
2.95052
3.05416
3.40276
4.02663
4.50493
4.88359
5.08128
5.11444
5.00638
4.80668
4.54773
4.19657
3.78385
3.29009
2.84502
2.39388
1.97299
1.50696
1.14851
0.812278
0.527198
0.219341
-0.124261
-0.47543
-0.789277
-1.0792
-1.3702
-1.65854
-1.88401
-2.04607
-2.12778
-2.17186
-2.16352
-2.11264
-1.98681
-1.75211
-1.45035
-1.10961
-0.723406
-0.350348
0.119771
0.467414
0.796871
0.965509
1.106
1.17804
1.24987
1.25398
1.28869
1.30411
1.32838
1.34337
1.38153
1.41388
1.4588
1.4901
1.52746
1.54977
1.57034
1.57686
1.58097
1.5726
1.56171
1.54307
1.52196
1.49391
1.46377
1.4298
1.3955
1.35972
1.32531
1.2906
1.25724
1.22309
1.18867
1.15139
1.11246
1.07112
1.02822
0.983117
0.935968
0.885871
0.831634
0.772538
0.707059
0.635198
0.556225
0.471352
0.379327
0.282072
0.17202
0.0646115
2.11346
2.43406
2.74528
3.15746
3.3832
3.51327
3.39833
3.22521
2.95321
3.06421
3.42472
4.0551
4.52
4.89048
5.07037
5.08799
4.97056
4.76278
4.49488
4.13603
3.72103
3.23455
2.79403
2.34092
1.92065
1.45971
1.11048
0.763948
0.485312
0.18536
-0.162755
-0.510024
-0.817581
-1.10794
-1.39851
-1.68855
-1.9156
-2.06798
-2.14885
-2.19475
-2.19392
-2.12037
-1.9985
-1.74628
-1.44192
-1.091
-0.702295
-0.325118
0.148862
0.490742
0.814942
0.979373
1.11665
1.18779
1.24491
1.25006
1.28733
1.29828
1.32375
1.34219
1.38264
1.41565
1.45997
1.49051
1.5268
1.54731
1.56639
1.57095
1.57268
1.56204
1.54904
1.52859
1.50595
1.47695
1.44622
1.41201
1.37771
1.34205
1.30792
1.27362
1.2407
1.20682
1.17264
1.13553
1.09678
1.0557
1.01339
0.969231
0.923251
0.874352
0.821136
0.762871
0.698232
0.627412
0.549803
0.466578
0.376183
0.28047
0.170791
0.066408
2.11001
2.43174
2.73617
3.12419
3.37948
3.49732
3.3875
3.21355
2.95512
3.07684
3.44741
4.08126
4.5306
4.891
5.05461
5.05503
4.93428
4.72045
4.44398
4.07654
3.6591
3.17937
2.74641
2.2929
1.87576
1.41233
1.07663
0.7263
0.450044
0.154052
-0.193313
-0.541917
-0.846325
-1.13614
-1.42521
-1.71414
-1.94705
-2.09443
-2.1739
-2.21038
-2.22829
-2.13599
-2.01003
-1.74175
-1.42712
-1.07438
-0.687784
-0.308099
0.170391
0.509226
0.827334
0.989091
1.12467
1.19058
1.23381
1.24516
1.28127
1.28939
1.31824
1.34016
1.3823
1.41521
1.45841
1.4882
1.52333
1.54252
1.56054
1.56344
1.56287
1.54992
1.53483
1.51271
1.48878
1.45907
1.42787
1.39351
1.35926
1.32378
1.28998
1.25611
1.22352
1.18978
1.15571
1.11877
1.08027
1.03954
0.997933
0.954807
0.91009
0.862494
0.810444
0.753128
0.689458
0.619828
0.54372
0.462188
0.373351
0.278965
0.169571
0.0675813
2.10806
2.42898
2.72479
3.09344
3.38029
3.48481
3.37272
3.19288
2.96357
3.10005
3.47757
4.10917
4.53389
4.8825
5.03161
5.01365
4.88866
4.6747
4.38969
4.01123
3.59131
3.1186
2.69448
2.24373
1.83144
1.3642
1.04001
0.697552
0.414023
0.120558
-0.221377
-0.572733
-0.872471
-1.16503
-1.45124
-1.73753
-1.97669
-2.12229
-2.20107
-2.22188
-2.25867
-2.15767
-2.01358
-1.73701
-1.40651
-1.05604
-0.671372
-0.288385
0.190606
0.530767
0.84092
1.00015
1.13629
1.19066
1.22752
1.24468
1.27588
1.28546
1.31686
1.34104
1.38381
1.41545
1.45649
1.48511
1.51895
1.537
1.5539
1.55506
1.55201
1.53665
1.51943
1.49577
1.47067
1.44029
1.40855
1.37404
1.33996
1.30486
1.27147
1.23797
1.20555
1.17174
1.1377
1.10101
1.06292
1.02276
0.981986
0.940008
0.896628
0.850404
0.799587
0.743284
0.680615
0.61222
0.537661
0.457819
0.370481
0.27731
0.168335
0.0679646
2.10442
2.42574
2.71077
3.06673
3.38166
3.47354
3.35417
3.16984
2.9702
3.12646
3.50946
4.13648
4.53
4.86634
5.00262
4.96916
4.83722
4.62612
4.33748
3.94931
3.52759
3.06038
2.64335
2.19744
1.79021
1.32184
1.0014
0.673491
0.384244
0.0911751
-0.243544
-0.597589
-0.893094
-1.19361
-1.47791
-1.76145
-2.00605
-2.15134
-2.23198
-2.23977
-2.28442
-2.18592
-2.0183
-1.73621
-1.39253
-1.04424
-0.661795
-0.273196
0.201706
0.54728
0.848483
1.00574
1.14383
1.18198
1.22069
1.2389
1.26744
1.28068
1.31424
1.34013
1.38302
1.41316
1.45207
1.47983
1.51268
1.52996
1.54557
1.54484
1.5393
1.52162
1.50263
1.47771
1.45154
1.4204
1.38802
1.35344
1.31972
1.28515
1.25222
1.21896
1.18663
1.15272
1.11878
1.08252
1.04508
1.00577
0.966051
0.925368
0.883403
0.838595
0.789056
0.733817
0.672147
0.604917
0.531798
0.453492
0.36754
0.2755
0.167219
0.0677713
2.10531
2.42334
2.69411
3.04752
3.38617
3.46848
3.32881
3.1486
2.97291
3.15871
3.54698
4.1641
4.51944
4.84114
4.96669
4.92089
4.7824
4.57198
4.27957
3.88229
3.46056
2.99892
2.58707
2.14959
1.74996
1.2779
0.962345
0.647872
0.351885
0.0648384
-0.2645
-0.619977
-0.91084
-1.21892
-1.50211
-1.78462
-2.03255
-2.17796
-2.26432
-2.26708
-2.29519
-2.20989
-2.02208
-1.72844
-1.37682
-1.03093
-0.653173
-0.252402
0.21033
0.565817
0.85842
1.01376
1.15104
1.17311
1.21769
1.23447
1.2665
1.28065
1.31425
1.34051
1.38226
1.41008
1.44663
1.47352
1.5055
1.52211
1.53608
1.53312
1.52496
1.50504
1.48453
1.45851
1.4312
1.39912
1.3661
1.33156
1.29837
1.2644
1.23181
1.19856
1.16622
1.13232
1.09872
1.06317
1.02675
0.988609
0.950153
0.910895
0.870344
0.826913
0.778618
0.724436
0.663738
0.597611
0.525865
0.449026
0.364431
0.273553
0.166235
0.0672843
2.10341
2.4186
2.67524
3.0334
3.39275
3.46621
3.29934
3.12522
2.96749
3.18792
3.58098
4.18804
4.5049
4.80665
4.92621
4.87224
4.72844
4.51782
4.22279
3.81817
3.39648
2.94151
2.53175
2.10481
1.71317
1.23409
0.920465
0.624183
0.31817
0.041077
-0.282093
-0.637886
-0.927362
-1.23923
-1.52288
-1.80795
-2.05791
-2.20295
-2.29922
-2.3036
-2.30288
-2.23466
-2.03052
-1.72348
-1.36703
-1.02509
-0.653872
-0.235552
0.213196
0.573876
0.860898
1.01714
1.14563
1.16171
1.20904
1.22624
1.26488
1.2783
1.31155
1.33808
1.37814
1.40376
1.43848
1.46493
1.49627
1.51229
1.52442
1.51915
1.50853
1.48669
1.46497
1.43787
1.40935
1.37634
1.34291
1.30855
1.27594
1.24246
1.21013
1.17684
1.14456
1.11099
1.07809
1.04358
1.00845
0.971743
0.934739
0.896979
0.857846
0.815736
0.768634
0.715469
0.655708
0.590603
0.520112
0.444626
0.361328
0.271611
0.165417
0.0668077
2.10626
2.41529
2.65781
3.02719
3.40198
3.46506
3.26275
3.09976
2.96212
3.21803
3.6136
4.2023
4.48734
4.76299
4.88013
4.82046
4.6705
4.4594
4.16128
3.74939
3.32867
2.88227
2.47689
2.0613
1.67405
1.19737
0.881123
0.596357
0.290181
0.0155692
-0.300737
-0.65417
-0.944437
-1.25451
-1.53959
-1.8319
-2.0832
-2.22525
-2.33126
-2.34116
-2.31663
-2.25056
-2.03296
-1.71408
-1.35431
-1.01875
-0.655588
-0.22209
0.220175
0.578321
0.863237
1.022
1.13521
1.15651
1.20264
1.22624
1.26679
1.27615
1.30853
1.33492
1.37247
1.39581
1.42906
1.45511
1.48578
1.50108
1.51119
1.50352
1.49048
1.46697
1.44412
1.41583
1.38614
1.35243
1.31896
1.28489
1.25263
1.21937
1.18708
1.1537
1.12158
1.0887
1.05686
1.02368
0.990071
0.954979
0.919511
0.88322
0.845423
0.80453
0.758546
0.706401
0.647636
0.583607
0.51441
0.440298
0.358334
0.269806
0.164716
0.0664629
2.1072
2.4083
2.64135
3.02476
3.40862
3.45946
3.22733
3.07079
2.95622
3.24405
3.64099
4.20965
4.4598
4.70889
4.83147
4.76841
4.61401
4.40163
4.10145
3.68314
3.26397
2.82162
2.42991
2.02262
1.63551
1.16614
0.847244
0.561865
0.264304
-0.00791551
-0.318413
-0.668192
-0.95975
-1.26669
-1.55649
-1.85788
-2.10964
-2.24806
-2.35974
-2.37909
-2.34417
-2.26031
-2.03563
-1.70927
-1.34972
-1.0201
-0.66143
-0.223704
0.225404
0.57165
0.861503
1.02309
1.11941
1.1465
1.19239
1.22357
1.26317
1.26872
1.30154
1.32785
1.36308
1.38498
1.41772
1.44351
1.47352
1.48785
1.49591
1.48591
1.47061
1.44572
1.42182
1.39228
1.36173
1.32784
1.29481
1.26116
1.229
1.19573
1.16344
1.13016
1.09841
1.06653
1.03594
1.00417
0.972119
0.938655
0.904755
0.869908
0.833397
0.793634
0.748685
0.697566
0.639843
0.576938
0.508997
0.436199
0.355548
0.268145
0.164101
0.0663026
2.11114
2.40061
2.62873
3.03035
3.41754
3.44859
3.19595
3.04186
2.95783
3.2724
3.66679
4.19761
4.42052
4.65004
4.77424
4.71234
4.55363
4.33955
4.0372
3.61292
3.19516
2.75721
2.38544
1.98565
1.59759
1.13265
0.816774
0.52478
0.236049
-0.0312975
-0.337552
-0.6807
-0.973571
-1.27781
-1.57586
-1.88657
-2.13628
-2.27096
-2.38117
-2.41254
-2.37275
-2.25947
-2.03095
-1.70179
-1.3451
-1.02664
-0.652692
-0.233666
0.24358
0.569658
0.868852
1.02621
1.11056
1.13681
1.18929
1.22101
1.25617
1.25871
1.29304
1.31906
1.35201
1.37309
1.40588
1.43158
1.46084
1.47375
1.47945
1.467
1.44954
1.42348
1.39858
1.36794
1.33697
1.30343
1.27112
1.23788
1.20545
1.1719
1.13952
1.10647
1.0753
1.04462
1.01533
0.984897
0.954289
0.922366
0.889966
0.856506
0.821194
0.782455
0.738502
0.688501
0.632004
0.570419
0.503823
0.432362
0.353025
0.266695
0.163597
0.0663273
2.11087
2.38769
2.61654
3.03667
3.42322
3.43577
3.16198
3.01482
2.96119
3.29871
3.68826
4.17179
4.37284
4.58923
4.71387
4.65597
4.4942
4.27825
3.97382
3.54557
3.12672
2.70059
2.34472
1.95113
1.56063
1.09953
0.787361
0.487484
0.207062
-0.0530407
-0.357081
-0.691716
-0.985313
-1.2889
-1.59637
-1.91754
-2.16328
-2.29602
-2.40149
-2.44463
-2.40127
-2.26414
-2.0283
-1.70105
-1.34782
-1.04457
-0.63315
-0.252281
0.259101
0.567855
0.877575
1.01841
1.09884
1.12214
1.18047
1.20969
1.24151
1.244
1.28076
1.30692
1.33864
1.35968
1.39293
1.41876
1.44715
1.45815
1.46123
1.44641
1.42706
1.40012
1.3744
1.34314
1.31227
1.27945
1.24802
1.21519
1.18241
1.14857
1.11626
1.08367
1.05328
1.02381
0.99568
0.96633
0.93696
0.906445
0.875529
0.84345
0.809306
0.771514
0.728508
0.679641
0.624478
0.564339
0.499072
0.42885
0.350723