/*--------------------------------*- C++ -*----------------------------------*\
| =========                 |                                                 |
| \\      /  F ield         | OpenFOAM: The Open Source CFD Toolbox           |
|  \\    /   O peration     | Version:  4.1                                   |
|   \\  /    A nd           | Web:      www.OpenFOAM.org                      |
|    \\/     M anipulation  |                                                 |
\*---------------------------------------------------------------------------*/
FoamFile
{
    version     2.0;
    format      ascii;
    class       surfaceScalarField;
    location    "12";
    object      phi;
}
// * * * * * * * * * * * * * * * * * * * * * * * * * * * * * * * * * * * * * //

dimensions      [0 3 -1 0 0 0 0];

internalField   nonuniform List<scalar> 
52920
(
1696.79
-64.4271
1766.67
-65.9758
1842.69
-76.3924
1925.16
-79.7066
2002.32
-80.2197
2083.99
-78.4331
2160.12
-76.5413
2239.64
-75.8056
2314.79
-75.4829
2390.95
-74.408
2462.32
-69.9299
2529.6
-66.2443
2595.88
-60.9422
2652.98
-56.2076
2711.82
-53.6798
2771.19
-56.1331
2833.92
-59.1841
2905.11
-65.525
2979.29
-72.4563
3067.35
-82.0444
3156.68
-90.7531
3260.84
-99.0788
3362.94
-105.459
3476.23
-110.214
3585.2
-113.013
3700.01
-114.575
3810.7
-115.279
3923.28
-114.922
4031.92
-113.878
4139.75
-112.173
4244.5
-110.272
4346.21
-108.102
4446.33
-105.987
4542.66
-103.288
4637.04
-100.14
4726.06
-96.52
4813.11
-92.7706
4894.76
-88.321
4973.24
-83.2517
5045
-77.4223
5112.68
-71.4056
5174.15
-65.699
5232.99
-61.1018
5288.56
-57.751
5344.32
-55.3183
5396.28
-53.3286
5441.99
-51.1295
5497.1
-49.4919
5543.68
-48.2427
5599.63
-49.5729
5650.38
-51.0444
5710.32
-53.5292
5766.56
-55.4501
5831.49
-58.5514
5895.99
-61.5623
5967.76
-65.5006
6041.43
-69.3649
6119.76
-73.3749
6202.36
-77.4444
6287.16
-81.1041
6377.29
-84.599
6467.24
-87.3921
6562.57
-90.1566
6656.15
-92.186
6755.13
-94.1069
6851.22
-95.3712
6951.91
-96.6718
7049.34
-97.4536
7150.96
-98.223
7249.21
-98.5304
7350.52
-98.839
7448.6
-98.7134
7548.95
-98.5536
7646.27
-98.0299
7744.9
-97.5247
7840.81
-96.8011
7937.53
-96.0922
8031.8
-95.2257
8126.31
-94.3685
8218.69
-93.4151
8310.93
-92.4524
8401.34
-91.4267
8491.22
-90.3846
8579.57
-89.3109
8667.13
-88.2362
8753.45
-87.1752
8838.86
-86.1648
8923.36
-85.23
9007.02
-84.4076
9090.14
-83.7067
9172.61
-83.1615
9254.91
-82.7529
9336.83
-82.5112
9418.9
-82.374
9500.81
-82.3777
9582.98
-82.3299
9665.26
-82.6184
9746.61
-81.3865
9832.84
-86.4147
-83.5084
1820.54
-135.258
1898.3
-140.679
1985.41
-163.447
2080.76
-172.128
2168.71
-173.574
2261.47
-170.281
2346.74
-164.492
2436.51
-161.351
2521.79
-157.832
2608.94
-154.457
2692.57
-146.038
2771.93
-138.25
2852.8
-131.856
2923.92
-124.922
2999.47
-124.152
3077.57
-131.576
3162.05
-141.219
3257.23
-156.534
3356.22
-171.947
3469.53
-191.038
3582.68
-206.805
3709.67
-221.543
3832.28
-231.576
3964.39
-238.724
4090.1
-241.708
4220.39
-243.226
4345
-242.874
4470.28
-241.206
4590.38
-238.068
4708.62
-234.067
4822.92
-229.608
4933.6
-225
5042.15
-220.479
5146.62
-214.989
5248.94
-208.665
5346.14
-201.588
5441.73
-194.51
5532.59
-186.226
5620.93
-176.911
5703.38
-166.267
5782.56
-155.209
5856.42
-144.69
5928.38
-136.032
5997.7
-129.354
6067.52
-124.09
6133.77
-119.385
6193.74
-114.341
6262.23
-109.971
6321.54
-106.522
6388.69
-107.448
6449.12
-108.574
6516.36
-111.017
6577.4
-112.48
6643.89
-115.59
6706.61
-118.59
6772.83
-122.83
6837.11
-126.924
6902.19
-131.173
6967.65
-135.471
7031.74
-139.375
7097.65
-142.932
7160.39
-145.78
7225.67
-148.565
7286.93
-150.679
7351.5
-152.49
7411.6
-153.799
7474.93
-155.037
7534
-155.974
7596.46
-156.684
7655.04
-157.144
7716.4
-157.453
7774.47
-157.47
7834.97
-157.296
7892.76
-156.885
7952.42
-156.419
8009.97
-155.809
8069.14
-155.13
8126.7
-154.349
8185.47
-153.529
8243.05
-152.643
8301.5
-151.678
8359.08
-150.619
8417.06
-149.444
8474.32
-148.15
8531.55
-146.739
8588.12
-145.227
8644.23
-143.657
8699.7
-142.052
8754.41
-140.479
8808.45
-138.943
8861.55
-137.515
8913.99
-136.172
8965.4
-134.975
9016.17
-133.869
9065.85
-132.866
9114.93
-131.844
9162.86
-131.091
9209.73
-128.461
9251.32
-128.261
-131.875
1976.9
-213.233
2069.23
-228.671
2170.13
-264.852
2277.42
-276.441
2377.06
-275.427
2480.12
-269.304
2576.05
-260.213
2676.13
-258.151
2772.34
-255.807
2870.43
-252.861
2965.97
-242.581
3058.83
-232.66
3154.17
-223.986
3241.88
-212.607
3334.45
-212.41
3430.05
-224.386
3531.02
-239.119
3640
-260.083
3749.28
-279.547
3867.2
-302.951
3980.17
-321.233
4100.58
-337.169
4212.31
-347.004
4328.35
-352.283
4434.79
-352.861
4542.1
-351.061
4641.37
-347.49
4739.04
-341.854
4830.35
-335.1
4919.1
-327.497
5003.99
-320.172
5086.12
-313.558
5167.91
-308.039
5248.55
-302.439
5330.57
-296.201
5411.29
-289.605
5494.06
-282.739
5575.74
-274.372
5658.33
-263.954
5738.29
-251.513
5817.45
-237.618
5892.74
-223.785
5966.33
-211.546
6036.72
-201.823
6106.4
-193.466
6170.95
-185.608
6227.11
-176.606
6288.19
-165.744
6334.97
-156.022
6383.68
-150.216
6419.31
-145.774
6455.61
-141.383
6478.76
-136.099
6500.81
-131.441
6511.97
-127.562
6520.41
-124.921
6520.65
-123.089
6516.13
-121.635
6506.88
-120.824
6491.48
-120.317
6474.25
-119.443
6449.9
-119.023
6425.76
-118.218
6394.58
-118.482
6365.74
-117.437
6330.15
-117.985
6297.74
-117.23
6259.53
-118.483
6225.56
-117.91
6186.87
-119.452
6152.48
-119.387
6114.8
-121.234
6081.82
-121.541
6047.05
-123.582
6017.01
-124.596
5986.67
-127.164
5961.41
-128.806
5937.05
-131.742
5917.77
-133.975
5900.5
-137.198
5888.29
-139.791
5878.86
-142.942
5874.12
-145.5
5872.55
-148.192
5875.07
-150.348
5880.77
-152.336
5889.8
-153.885
5901.66
-155.086
5915.95
-155.963
5932.48
-156.411
5950.51
-156.64
5970.05
-156.422
5990.19
-156.065
6011.14
-155.299
6031.88
-154.366
6052.86
-153.063
6072.54
-151.334
6093.93
-149.888
6103.55
-138.184
-143.975
2132.03
-303.988
2234.29
-329.513
2343.28
-374.41
2456.53
-388.042
2561.7
-385.899
2669.26
-376.344
2769.84
-363.015
2874.04
-358.189
2974.55
-353.228
3076.89
-348.36
3176.76
-335.452
3273.59
-322.619
3371.55
-312.643
3460.5
-298.98
3551.01
-297.369
3640.03
-309.05
3727.54
-322.244
3814.32
-340.307
3891.4
-354.587
3966.47
-371.29
4026.27
-381.643
4083.9
-387.893
4124.43
-389.051
4162.52
-384.679
4184.97
-376.873
4203.63
-366.438
4210.25
-356.409
4213.12
-345.308
4208.83
-335.634
4203.29
-326.97
4196.85
-320.849
4192.43
-318.129
4194.93
-319.375
4205.57
-323.742
4228.74
-328.857
4261.72
-334.376
4307.86
-338.642
4363.15
-340.684
4429.57
-339.285
4502.79
-334.938
4584.03
-326.752
4668.22
-316.219
4755.65
-304.383
4843.13
-293.505
4932.16
-282.28
5016.9
-270.727
5093.46
-257.214
5175.74
-237.803
5239.25
-217.897
5301.29
-199.8
5344.06
-184.07
5383.76
-167.203
5403.58
-149.522
5417.93
-131.569
5414.79
-115.25
5404.52
-100.633
5380.61
-87.9441
5347.6
-76.3313
5305.8
-66.305
5253.61
-57.6424
5197.03
-49.5613
5129.39
-42.9896
5060.64
-37.0015
4981.29
-33.24
4904.22
-28.7657
4817.06
-26.8165
4733.76
-24.2515
4641.88
-24.6992
4555.9
-23.9137
4463.12
-26.0372
4376.74
-27.297
4285.83
-31.1087
4202.25
-34.1643
4116.46
-39.5474
4038.27
-44.7592
3960.25
-51.9703
3890.56
-58.8975
3823.04
-67.4845
3764.02
-75.9932
3709.05
-85.8505
3662.82
-95.5552
3622.11
-105.979
3589.83
-115.989
3563.9
-126.055
3545.77
-135.479
3534.2
-144.431
3529.42
-152.576
3530.8
-159.889
3537.75
-166.316
3550.02
-171.723
3566.55
-176.245
3587.32
-179.713
3611.03
-182.356
3637.87
-184.043
3666.48
-184.923
3697.18
-184.988
3727.92
-183.372
3761.22
-183.819
3792.22
-169.744
-166.79
2258.23
-391.374
2359.11
-425.79
2462.94
-478.007
2569.01
-491.286
2666.67
-485.063
2765.92
-471.705
2857.85
-454.958
2952.57
-450.628
3043.49
-447.502
3136.45
-443.373
3226.5
-428.254
3311.6
-411.008
3394.74
-393.794
3464.68
-369.888
3530.18
-358.894
3585.85
-361.689
3628.61
-361.208
3657.59
-361.872
3662.49
-356.602
3652.83
-352.646
3615.35
-344.779
3567.3
-331.165
3493.65
-319.594
3414.91
-301.019
3316.43
-286.162
3214.65
-265.839
3100.15
-252.321
2985.58
-237.093
2868.05
-229.826
2757.64
-226.339
2656.38
-231.183
2569.32
-244.09
2503.61
-265.208
2460.42
-293.881
2444.98
-324.112
2451.83
-354.858
2483.87
-380.806
2534.29
-402.732
2604.8
-417.786
2688.53
-427.754
2786.72
-430.562
2892.94
-428.716
3007.44
-422.178
3125.61
-415.126
3248.89
-405.38
3369.35
-393.978
3482.09
-379.297
3605.19
-353.213
3708.89
-326.093
3814.72
-297.221
3899.98
-272.309
3984.28
-243.251
4046.51
-213.124
4104.95
-181.401
4144.75
-152.503
4178.1
-125.351
4196.98
-101.547
4206.68
-79.4386
4207.36
-59.9458
4196.46
-42.1313
4180.8
-25.6876
4152.26
-11.5751
4122.31
1.09916
4079.28
10.7592
4037.94
20.8224
3983.29
27.7656
3931.38
34.9062
3867.06
38.3075
3807.09
42.6605
3736.22
43.1653
3669.85
44.204
3594.88
41.5926
3525.25
39.4262
3449.64
33.7739
3379.7
27.6867
3306.73
18.3893
3240.44
8.84209
3173.59
-3.30906
3113.82
-15.9494
3056.04
-30.8366
3006.03
-46.149
2960.28
-62.8558
2922.53
-79.5182
2890.64
-96.584
2866.6
-113.088
2849.17
-129.095
2838.87
-144.062
2835.12
-157.873
2837.44
-170.371
2845.68
-181.341
2858.78
-190.908
2876.86
-198.846
2898.6
-205.441
2924.31
-210.492
2952.62
-214.282
2983.93
-216.693
3016.3
-216.518
3051.15
-218.766
3088.15
-207.11
-199.097
2320.86
-469.525
2402.45
-507.247
2484.85
-562.326
2568.78
-575.037
2643.64
-565.547
2719.11
-546.453
2786.1
-523.737
2854.72
-514.983
2919.39
-510.166
2987.44
-505.831
3053.11
-488.377
3112.29
-464.356
3167.26
-439.052
3205.8
-405.485
3236.45
-381.294
3251.17
-367.489
3244.27
-344.194
3215.25
-317.941
3153.44
-285.52
3074.26
-255.957
2963.64
-228.881
2847.76
-196.471
2706.92
-175.855
2572.48
-149.934
2423.18
-135.735
2284.79
-117.388
2141.92
-112.348
2012.59
-108.284
1889.07
-116.831
1783.21
-131.986
1693.51
-157.76
1622.81
-193.373
1576.9
-238.689
1552.39
-291.725
1553.26
-344.801
1570.78
-396.002
1609.55
-439.494
1660.7
-475.659
1727.49
-502.569
1802.81
-522.669
1890.2
-533.505
1982.92
-537.068
2082.77
-532.98
2186.21
-527.265
2297.69
-518.507
2409.07
-507.622
2514.88
-492.035
2637.49
-461.348
2740.86
-427.505
2852.53
-390.916
2945.7
-358.921
3044.57
-321.853
3123
-282.05
3202.78
-240.503
3266.3
-202.39
3327.08
-165.835
3374.47
-132.175
3413.52
-100.327
3444.71
-72.3855
3465.02
-46.6056
3481.51
-22.8485
3484.49
-1.4276
3485.75
17.9533
3472.09
34.3815
3459.05
50.7184
3430.29
64.0277
3403.35
76.132
3362.19
84.1422
3324.69
92.1466
3274.26
96.306
3227.04
100.301
3168.31
100.88
3112.61
101.31
3047.69
97.6838
2986.47
91.9737
2919.99
82.0623
2858.93
70.6841
2795.73
56.1118
2738.59
39.9465
2682.31
20.8324
2633.11
0.211386
2587.53
-22.4009
2549.59
-45.6674
2517.17
-69.5976
2492.39
-93.192
2474.03
-116.159
2462.6
-137.832
2457.49
-157.91
2458.17
-176.139
2464.48
-192.277
2475.35
-206.374
2490.94
-218.303
2509.97
-228.299
2532.84
-236.302
2558.25
-242.563
2586.74
-247.119
2616.82
-248.489
2649.41
-252.379
2683.92
-242.433
-233.754
2283.93
-522.515
2342.91
-560.96
2396.55
-614.696
2445.91
-620.655
2480.58
-601.526
2511.93
-573.068
2531.2
-543.058
2549.86
-530.735
2565.63
-530.095
2591.25
-533.917
2621.71
-522.446
2650.64
-497.7
2680.3
-466.128
2698.19
-424.778
2714.93
-393.009
2719.5
-367.869
2703.82
-323.789
2669.93
-272.933
2605.78
-218.115
2534.45
-171.125
2438.07
-135.392
2352.74
-98.0797
2248.86
-80.4924
2164.94
-60.1422
2068.9
-53.6773
1989.48
-42.0514
1902.56
-42.2952
1825.13
-41.5344
1744.71
-53.5333
1673.36
-74.3565
1608.99
-108.778
1554.37
-155.439
1515.63
-214.424
1490.1
-282.673
1483.7
-351.446
1487.92
-416.754
1508.56
-472.201
1537.15
-518.103
1578.75
-553.395
1626.5
-580.859
1685.12
-598.397
1748.14
-607.38
1817.68
-606.434
1889.72
-603.574
1970.15
-598.884
2051.05
-592.734
2127.61
-581.178
2226.22
-550.388
2306.05
-514.026
2399.2
-473.638
2475.47
-440.116
2563.24
-399.422
2631.57
-353.196
2705.09
-303.676
2764.69
-259.764
2826.32
-217.65
2877.69
-178.095
2922.72
-138.505
2961.24
-103.633
2989.53
-70.6766
3015.41
-40.2875
3028.3
-12.2152
3040.72
13.8059
3038.05
37.032
3036.56
60.5773
3018.14
81.3661
3001.21
100.404
2968.63
114.471
2939.63
127.998
2896.56
136.96
2857.18
145.18
2806.09
149.043
2759.01
152.867
2701.53
152.315
2647.48
148.947
2587.25
139.273
2532.62
127.024
2475.43
110.371
2424.35
91.4408
2373.68
68.5777
2329.88
43.5027
2289.15
15.6418
2255.62
-13.3351
2226.97
-43.3443
2205.31
-73.0938
2189.32
-102.176
2179.51
-129.702
2175.25
-155.268
2176.04
-178.55
2181.77
-199.267
2191.43
-217.507
2205.3
-233.138
2222.23
-246.507
2242.77
-257.528
2265.79
-266.616
2292.02
-273.71
2320.44
-277.695
2351.5
-283.522
2385.05
-276.344
-271.284
2187.22
-560.416
2212.18
-585.798
2215.27
-620.921
2201.95
-608.339
2165.45
-571.9
2122.45
-528.921
2065.53
-488.598
2010.3
-471.338
1961.79
-482.449
1942.04
-510.909
1945.96
-523.332
1962.57
-510.157
1991.69
-484.228
2018.63
-449.382
2057.52
-420.058
2093.7
-388.971
2114.74
-326.427
2123.93
-254.299
2105.75
-179.918
2088.63
-121.505
2048.67
-81.1452
2020.56
-37.2706
1967.37
-14.5286
1928.36
7.6958
1870.68
13.213
1823.23
21.9236
1763.63
18.0371
1708.89
14.2437
1648.12
-3.24879
1593.35
-32.2342
1542.92
-76.6354
1498.93
-134.154
1466.56
-204.411
1443.01
-284.602
1434.57
-365.99
1433.42
-442.817
1445.57
-508.024
1462.85
-561.261
1490.61
-603.122
1522.37
-636.268
1563.66
-659.006
1608.85
-671.828
1660.25
-671.937
1712.71
-667.491
1772.03
-661.462
1830.66
-655.254
1884.67
-643.982
1963.97
-612.492
2024.43
-572.385
2100.82
-527.82
2160.46
-491.472
2236.29
-449.266
2293.22
-398.12
2358.57
-342.776
2410.42
-294.113
2466.91
-248.355
2515.37
-204.701
2559.27
-158.917
2598.18
-118.127
2627.8
-79.4015
2656.5
-43.81
2672.15
-9.96885
2688.21
21.563
2689.28
50.311
2693.31
78.7499
2680.79
105.269
2670.73
129.338
2644.91
148.199
2623.43
165.304
2587.91
177.776
2556.66
188.352
2513.8
194.361
2476.54
198.722
2429.9
199.256
2387.06
196.633
2337.51
186.804
2293.37
172.847
2246.17
153.97
2204.6
131.907
2162.65
105.564
2126.58
76.3055
2092.39
43.9589
2064.14
9.98956
2039.49
-25.1391
2020.56
-60.1006
2006.04
-94.2059
1996.54
-126.533
1991.55
-156.556
1990.74
-183.908
1994.15
-208.316
2000.96
-229.852
2011.61
-248.489
2025.13
-264.577
2042.26
-278.191
2062.02
-289.73
2085.33
-299.303
2111.51
-306.018
2140.83
-314.015
2173.69
-310.125
-311.235
2027.1
-561.584
1993.26
-544.265
1914.47
-539.759
1812.21
-499.568
1687.44
-448.41
1564.6
-398.355
1435.94
-360.177
1323.01
-353.553
1235.93
-401.665
1201.62
-479.826
1208.05
-535.107
1237.89
-547.15
1287.94
-530.874
1337.35
-501.282
1404.02
-479.494
1472.93
-450.853
1530.58
-377.013
1582.04
-290.489
1607.14
-200.933
1631.01
-127.745
1625.06
-79.1698
1631.2
-29.7319
1608.85
-5.92204
1600.33
17.7657
1572.06
22.0294
1554.39
30.6628
1524.95
27.0942
1500.9
24.8901
1470.35
9.00445
1443.64
-19.6096
1417.69
-65.4829
1393.47
-125.602
1375.53
-199.7
1360.76
-285.005
1356.06
-373.022
1354.5
-456.456
1362.98
-527.245
1374.18
-585.079
1394.32
-631.224
1417.37
-668.418
1449
-695.636
1484.08
-713.11
1525.33
-716.243
1566.78
-712.675
1613.46
-707.619
1657.67
-704.29
1696.14
-696.847
1761.78
-667.852
1808.5
-627.884
1873.02
-580.916
1919.43
-544.992
1985.03
-503.168
2031.5
-449.087
2089.09
-388.706
2133.57
-337.075
2184.05
-288.448
2227.43
-242.939
2268.05
-193.096
2305.57
-148.749
2334.62
-105.369
2364.01
-65.2066
2380.41
-25.7411
2398.34
11.3254
2401.2
45.7643
2408.86
78.8121
2401.53
109.896
2398.66
138.754
2380.45
162.7
2367.48
184.328
2340.78
200.903
2318.97
214.955
2285.87
223.675
2258.72
229.83
2223.11
231.377
2192.48
230.014
2154.9
221.043
2122.24
207.141
2085.68
187.514
2053.85
164.232
2020.47
136.129
1991.66
104.813
1963.27
69.924
1939.33
33.0506
1917.5
-5.35245
1899.95
-43.7059
1885.48
-81.3027
1874.86
-117.134
1867.8
-150.656
1864.2
-181.467
1864.28
-209.236
1867.41
-234.055
1874.13
-255.817
1883.56
-274.976
1896.52
-291.56
1912.17
-306.185
1931.62
-318.914
1954.4
-329.419
1981.21
-340.845
2012.26
-341.461
-351.872
1790.49
-514.023
1686.05
-437.009
1530.85
-387.961
1363.88
-333.529
1189.24
-285.115
1037.6
-244.217
895.095
-223.603
787.585
-242.307
716.453
-337.423
702.43
-466.425
723.889
-557.221
764.553
-586.143
825.941
-579.397
879.275
-554.538
953.05
-537.332
1036.44
-511.099
1113.06
-424.755
1188.86
-323.525
1235.75
-215.97
1279.26
-123.696
1285.53
-59.7224
1305.95
1.47671
1301.27
25.6121
1316.92
43.4233
1315.46
39.2604
1327.45
38.0802
1329.25
26.3049
1336.56
17.2194
1335.96
-2.76404
1335.66
-34.1718
1331.32
-81.7634
1323.24
-142.901
1315.94
-217.432
1306.43
-303.663
1302.37
-394.53
1297.92
-482.038
1300.87
-556.787
1304.53
-617.752
1316.24
-668.03
1330.72
-709.576
1353.5
-740.504
1379.3
-760.507
1411.3
-764.298
1443.44
-757.891
1479.78
-748.219
1511.83
-741.34
1537
-732.02
1591.15
-702.961
1626.22
-661.039
1681.25
-610.269
1716.82
-570.952
1774.23
-529.299
1811.95
-472.808
1863.71
-409.15
1902.88
-355.206
1948.63
-303.378
1987.15
-254.637
2023.95
-201.388
2059.41
-154.177
2086.98
-107.117
2116.21
-63.4276
2132.86
-19.8024
2153.04
20.5337
2158.63
58.6622
2170.38
94.1754
2168.08
127.059
2172.24
157.379
2161.91
183.716
2157.96
207.052
2140.85
225.498
2129.21
240.64
2106.64
250.335
2090.07
256.453
2065.18
257.782
2045.5
255.758
2019.02
246.473
1996.89
231.702
1970.2
211.101
1947.24
186.358
1921.63
156.882
1899.19
123.918
1875.78
87.3035
1855.26
48.3816
1835.29
7.86263
1818.07
-32.8055
1802.67
-72.8411
1790.1
-111.31
1780.34
-147.567
1773.48
-181.142
1769.87
-211.587
1768.91
-238.869
1771.08
-262.879
1775.49
-284.058
1783.03
-302.719
1793.14
-319.655
1807.34
-335.382
1825.75
-349.909
1849.83
-365.981
1879.77
-372.303
-394.683
1493.9
-443.19
1380.88
-312.402
1220.3
-221.872
1058.79
-159.928
897.589
-126.454
772.465
-105.319
658.146
-109.292
582.388
-158.197
532.361
-295.406
526.773
-464.361
544.334
-581.704
572.795
-624.037
624.304
-625.686
669.074
-602.421
735.617
-594.267
813.399
-580.123
883.413
-487.609
951.207
-374.977
990.757
-255.841
1034.1
-148.951
1041.55
-77.4033
1071.15
-18.5375
1081.8
-6.55754
1118.03
2.13735
1140.01
-7.3476
1176.77
-11.9343
1203.67
-23.3614
1234.72
-28.8988
1255.47
-42.0599
1272.96
-65.3713
1282.39
-104.777
1283.86
-158.456
1282.01
-226.911
1273.9
-308.756
1267.88
-398.051
1258.87
-485.936
1255.37
-561.514
1251.17
-623.689
1254.69
-676.879
1261.22
-722.629
1275.96
-757.974
1293.4
-782.291
1317.58
-790.278
1342.47
-785.734
1370.33
-775.004
1391.76
-767.953
1405.22
-761.201
1449.3
-736.261
1474.49
-697.05
1522.43
-645.799
1549.78
-607.696
1600.03
-566.23
1629.36
-508.25
1675.4
-442.293
1709.28
-388.414
1749.74
-333.447
1782.68
-283.142
1815.14
-228.479
1848.09
-181.108
1873.86
-131.622
1902.81
-85.4631
1920.01
-38.4938
1942.75
4.19353
1951.74
45.624
1968.82
83.3322
1972.74
118.083
1984.45
150.543
1982.31
180.051
1987.24
206.505
1979.4
228.054
1977.38
245.971
1964.69
257.942
1958.03
265.832
1943.17
268.226
1933.58
267.217
1917.12
259.052
1904.34
245.61
1886.23
226.003
1870.71
202.213
1851.4
173.476
1833.98
141.172
1814.3
104.877
1796.08
66.0956
1777.09
25.3215
1759.69
-16.0292
1743.25
-57.3436
1728.98
-97.6292
1717.04
-136.127
1707.51
-172.135
1700.61
-204.909
1695.51
-234.261
1692.56
-260.018
1691.01
-282.983
1692.21
-303.918
1696.51
-324.364
1706.48
-345.244
1723.26
-367.051
1748.96
-391.624
1784.58
-408.085
-444.803
1287.04
-383.843
1196.1
-211.569
1064.57
-90.946
936.28
-28.7789
803.2
-8.5128
704.918
-2.74277
608.544
-22.8005
545.356
-93.2851
496.862
-259.094
484.469
-455.949
489.593
-590.178
501.031
-636.152
536.305
-647.957
563.583
-632.501
613.584
-625.455
677.102
-612.224
733.914
-505.133
789.997
-371.819
817.258
-241.253
854.502
-123.227
858.91
-39.3269
896.969
12.3945
923.714
2.42726
977.434
-8.24326
1018.75
-33.8484
1074.35
-52.0777
1119.68
-71.502
1167.14
-80.774
1202.32
-92.7167
1231.48
-111.932
1249.81
-145.604
1257.17
-193.043
1258.21
-254.666
1249.99
-330.445
1241.37
-416.606
1227.71
-504.111
1217.87
-580.05
1206.27
-643.057
1202.44
-700.111
1202.03
-750.737
1209.56
-789.21
1219.16
-814.645
1236.14
-824.068
1254.52
-817.549
1274.58
-799.311
1285.91
-784.724
1288.28
-774.66
1323.33
-750.777
1339.26
-711.678
1381.33
-658.9
1401.82
-617.68
1446.02
-574.306
1467.98
-514.585
1509.94
-448.266
1540.06
-394.184
1576.29
-334.418
1604.67
-279.937
1633.34
-224.02
1663.76
-176.099
1687.59
-124.946
1716.59
-77.9502
1734.81
-30.0795
1760.73
12.5771
1773.64
54.4507
1796.43
91.5967
1806.04
125.943
1824.39
157.931
1829.55
187.673
1842.7
214.277
1843.6
236.328
1850.77
254.362
1847.6
266.531
1850.29
274.193
1844.49
276.636
1843.35
275.285
1835.23
267.113
1830.15
253.767
1819.21
234.571
1809.91
211.144
1796.01
183.028
1782.96
151.221
1766.68
115.508
1750.8
77.051
1733.4
36.2851
1716.95
-5.67864
1701.06
-48.1459
1686.93
-90.0454
1674.56
-130.218
1663.66
-167.571
1654.06
-201.074
1644.8
-230.565
1636.5
-256.424
1629.34
-280.284
1626.04
-304.063
1628.53
-330.016
1640.55
-359.368
1663.79
-392.182
1699.76
-428.496
1750.14
-459.268
-507.494
1109.01
-339.793
1050.2
-134.363
959.692
8.41783
868.605
81.6376
758.656
100.029
676.989
97.1516
590.799
65.2532
533.541
-24.3147
483.735
-215.394
463.359
-437.602
457.196
-591.139
455.457
-645.973
478.561
-665.782
493.183
-648.703
529.673
-648.821
580.202
-649.04
622.811
-541.127
666.261
-395.969
682.968
-262.055
714.675
-140.033
719.641
-64.879
769.398
-40.372
809.553
-68.7455
878.194
-91.3597
935.171
-120.711
1004.79
-139.41
1062.89
-154.338
1121.24
-155.54
1165.89
-155.82
1202.67
-161.832
1226.75
-181.914
1237.73
-216.469
1240.21
-266.545
1231.16
-332.758
1219.93
-412.921
1201.9
-497.078
1186.19
-570.467
1167.86
-632.897
1157.65
-693.137
1151.33
-748.701
1152.49
-790.978
1155.16
-819.752
1166.01
-835.14
1179.03
-832.365
1192.55
-810.768
1194.89
-792.239
1186.75
-783.465
1213.15
-765.765
1220.99
-732.183
1258.7
-682.668
1273.58
-644.235
1312.05
-597.4
1327.47
-537.363
1365.85
-472.492
1391.77
-420.274
1422.72
-355.514
1447.07
-300.834
1473.46
-246.774
1502.5
-200.571
1525.11
-148.548
1554.46
-101.896
1573.65
-53.3742
1602.04
-11.0678
1618.32
31.1339
1646.66
67.4972
1662.05
102.525
1686.69
135.949
1698.53
167.37
1718.99
196.046
1727.62
220.232
1742.87
240.503
1747.92
254.725
1758.6
264.665
1760.69
268.887
1767.16
269.411
1766.36
263.255
1767.99
252.466
1763.21
235.775
1759.37
214.977
1750.41
189.277
1741.63
159.85
1729.18
126.146
1716.76
89.2929
1702.67
49.3748
1689.38
7.52964
1676.4
-35.4485
1664.5
-78.0662
1653.14
-118.676
1641.52
-155.803
1629.36
-188.502
1616.23
-217.31
1604.05
-243.79
1594.79
-270.972
1592.84
-301.707
1601.17
-338.356
1623.29
-381.132
1659.72
-428.701
1709.96
-478.612
1775.4
-524.73
-579.416
955.058
-303.201
922.5
-82.6623
866.076
70.4824
803.684
154.073
712.116
178.525
643.529
172.242
565.713
132.085
514.546
27.8572
465.076
-179.708
438.841
-416.05
422.838
-579.552
409.952
-636.76
424.813
-669.303
428.928
-657.523
454.437
-650.915
494.215
-645.39
527.262
-523.501
563.824
-357.816
569.018
-212.701
596.058
-77.0532
607.881
-17.7323
673.215
-35.3452
728.57
-91.1515
809.885
-137.65
878.544
-181.711
956.749
-209.72
1022.22
-228.131
1086.53
-229.02
1136.67
-224.697
1178.08
-223.091
1205.88
-233.866
1219.15
-258.544
1222.39
-298.015
1212.54
-354.672
1199.21
-428.658
1177.53
-509.522
1156.72
-580.398
1132.77
-642.53
1117.5
-707.538
1106.43
-768.493
1102.15
-812.389
1098.77
-840.298
1103.62
-857.1
1110.94
-852.653
1118.64
-821.688
1112.98
-791.94
1094.54
-777.463
1112.89
-762.191
1112.53
-731.783
1146.22
-684.059
1155.71
-642.852
1189.51
-590.944
1199.9
-530.678
1235.62
-467.883
1257.52
-414.366
1284.97
-343.595
1307.34
-286.684
1331.66
-233.449
1359.16
-187.302
1380.37
-134.82
1409.81
-89.5921
1429.01
-42.6851
1459.75
-3.14707
1478.88
36.2981
1511.19
69.7523
1530.67
102.792
1560.89
134.29
1578.87
164.277
1606.36
191.744
1622.46
215.22
1645.43
234.863
1658.17
249.085
1676.1
259.233
1685.15
264.036
1697.97
264.708
1703.43
259.073
1710.97
249.004
1712.02
233.471
1713.71
213.801
1710.2
189.437
1706.66
161.19
1699.53
128.534
1692.44
92.2049
1683.8
52.3796
1675.67
10.2417
1667.1
-32.8851
1658.12
-75.0454
1647.72
-114.175
1635.04
-148.951
1620.51
-179.287
1605.21
-207.151
1592.84
-235.752
1586.95
-269.143
1592.33
-310.205
1611.11
-359.974
1644.87
-416.777
1692.01
-477.557
1750.47
-537.904
1820.76
-595.739
-651.557
826.933
-281.11
810.749
-49.0012
775.016
117.079
734.27
218.662
658.365
253.786
603.701
248.044
536.325
202.929
493.535
85.1162
447.229
-138.167
417.659
-387.383
394.074
-562.251
371.722
-625.764
378.856
-668.658
375.113
-653.203
393.7
-655.125
422.285
-656.984
443.588
-546.281
474.918
-370.807
470.069
-222.166
498.729
-98.1246
526.729
-77.8537
602.992
-126.916
671.563
-196.208
761.806
-247.813
837.035
-288.427
919.291
-311.045
988.25
-321.38
1055.72
-312.381
1109.24
-295.402
1153.81
-279.513
1184.35
-274.936
1199.4
-284.295
1203.38
-309.37
1193.05
-353.685
1178.32
-419.071
1153.75
-493.582
1128.8
-558.759
1100.4
-619.505
1081.33
-688.785
1066.47
-755.183
1057.42
-801.688
1048.93
-832.479
1048.62
-855.891
1050.75
-855.953
1053.33
-821.491
1040.29
-784.179
1011.69
-767.486
1021.99
-759.767
1013.92
-737.773
1044.36
-697.746
1049.11
-661.121
1078.89
-602.943
1085.92
-545.747
1118.62
-485.234
1135.26
-431.937
1160.34
-360.005
1183.99
-308.292
1207.79
-256.155
1233.55
-210.673
1252.66
-157.342
1280.92
-113.832
1299.54
-68.542
1332.34
-32.8971
1354.04
3.96787
1389.79
36.0602
1413.03
68.1347
1448.17
99.4496
1471.53
129.547
1505.12
158.15
1527.55
183.017
1556.95
204.905
1575.98
221.584
1599.95
234.774
1615.29
241.86
1634.43
244.893
1646.05
242.068
1659.55
235.035
1666.61
222.492
1674.14
205.906
1676.53
184.345
1678.88
158.679
1677.86
128.047
1676.86
93.3048
1674.09
54.654
1670.96
13.7633
1665.97
-27.5994
1658.58
-67.032
1647.84
-102.674
1633.63
-134.011
1617.78
-162.495
1603.06
-191.753
1594.28
-226.083
1595.02
-269.394
1608.67
-323.146
1635.32
-386.334
1674.51
-455.439
1723.5
-526.467
1780.06
-594.263
1844.17
-659.761
-715.398
705.371
-258.812
709.016
-29.1252
688.436
147.951
664.794
260.979
605.112
304.486
565.615
298.005
509.155
249.667
474.882
122.689
430.977
-106.959
398.561
-358.173
368.176
-536.561
337.398
-602.919
338.549
-660.416
326.157
-645.709
339.242
-637.035
355.89
-610.138
366.129
-495.885
392.457
-307.446
379.501
-129.812
416.171
-28.9903
467.623
-72.9085
557.141
-159.161
635.724
-252.88
729.483
-318.656
806.013
-365.713
887.582
-391.75
956.256
-402.754
1023.88
-392.55
1078.61
-370.792
1124.74
-346.649
1157.08
-331.936
1173.6
-330.169
1178.55
-342.972
1168.41
-376.245
1153.23
-433.879
1126.9
-502.812
1099.11
-563.114
1068.08
-623.647
1046.95
-698.862
1029.54
-769.781
1016.62
-815.339
1004.06
-843.867
998.982
-867.155
995.605
-864.168
993.357
-820.571
973.561
-769.281
934.642
-743.275
937.445
-739.108
921.299
-724.148
949.019
-690.114
949.049
-650.832
975.899
-586.301
979.859
-531.094
1010.46
-471.979
1022.97
-412.908
1045.85
-339.198
1070.24
-290.63
1093.46
-236.645
1117.33
-188.089
1133.18
-134.166
1160.36
-94.3174
1178.34
-53.9278
1212.09
-23.6333
1234.71
8.4487
1273.6
35.7107
1300.7
63.6181
1341.16
90.89
1370.24
117.971
1410.14
144.162
1438.87
167.769
1474.4
188.966
1499.43
205.895
1529.21
219.462
1550.27
226.876
1574.89
229.645
1592.28
227.386
1611.44
220.975
1624.35
209.568
1637.53
194.178
1645.72
173.934
1653.78
149.282
1658.52
119.55
1662.86
85.5535
1664.72
47.9883
1664.83
8.89364
1661.39
-29.4884
1653.84
-64.868
1641.95
-96.1359
1626.84
-124.224
1611.74
-152.232
1600.28
-184.919
1596.9
-226.58
1603.73
-279.815
1622.04
-344.236
1650.29
-417.136
1687.23
-494.163
1730.25
-571.149
1777.98
-642.903
1830.06
-712.58
-767.545
630.762
-253.618
635.142
-18.5352
620.032
172.32
608.188
300.697
560.193
352.451
533.403
348.661
487.583
300.651
461.568
167.201
419.735
-67.7469
384.001
-322.078
347.662
-505.981
309.298
-575.652
302.652
-643.079
282.513
-620.487
294.008
-626.929
296.745
-594.512
294.047
-500.45
315.906
-316.284
306.355
-150.294
362.538
-100.447
428.333
-181.126
526.69
-282.706
609.076
-375.429
701.469
-434.34
775.45
-471.571
853.862
-489.316
920.338
-492.281
987.058
-474.102
1042.29
-441.691
1089.57
-404.369
1123.62
-374.754
1141.94
-357.446
1148.6
-354.993
1139.54
-374.732
1125.01
-422.38
1097.97
-482.612
1068.69
-535.066
1036.56
-594.813
1014.59
-674.853
995.132
-749.431
978.593
-794.982
962.776
-826.708
953.695
-855.677
944.663
-855.367
937.854
-809.882
912.461
-749.703
863.316
-715.98
857.412
-717.211
832.881
-714.654
858.583
-694.332
854.552
-660.586
879.102
-589.842
880.811
-540.728
909.076
-484.367
920.684
-426.202
943.158
-354.876
967.232
-314.89
988.527
-259.755
1009.56
-208.882
1022.89
-153.608
1050.23
-118.84
1068.35
-83.3715
1103.39
-58.1697
1127.85
-31.1734
1170.26
-7.69313
1201.33
17.231
1246.64
43.0417
1280.65
69.5178
1325.71
96.6799
1359.36
122.103
1399.68
146.156
1429.48
166.106
1464.68
182.328
1491.5
192.326
1521.36
198.024
1544.11
198.677
1568.36
195.569
1586.23
187.511
1604.08
175.61
1616.85
158.456
1629.24
136.672
1638.05
109.447
1645.75
78.099
1650.02
43.5633
1651.18
8.41453
1647.54
-25.1746
1639.06
-55.392
1626.56
-82.4673
1612.33
-108.854
1600.22
-138.814
1593.48
-177.149
1595.02
-226.975
1605.02
-289.099
1623.25
-361.605
1647.64
-441.106
1677.32
-523.242
1710.52
-604.181
1746.77
-678.871
1785.51
-751.166
-806.611
571.04
-234.514
577.101
1.99597
564.364
198.489
559.287
330.918
521.548
385.102
506.663
378.311
470.033
330.725
450.706
195.066
409.472
-35.623
370.727
-283.718
329.689
-470.045
285.185
-545.219
271.834
-622.585
242.258
-590.73
248.841
-586.563
241.566
-506.7
230.765
-419.461
244.229
-201.081
242.129
-54.2607
327.34
-97.0944
408.153
-219.22
509.977
-343.244
590.826
-445.418
677.739
-508.315
746.287
-547.084
818.914
-565.823
880.889
-569.627
944.605
-552.363
998.677
-517.327
1045.84
-473
1080.91
-434.631
1101.09
-407.339
1110.16
-393.118
1103.29
-401.702
1090.62
-441.047
1064.17
-493.992
1034.96
-540.33
1003.76
-601.385
982.408
-687.188
961.68
-762.365
942.287
-803.214
923.938
-832.254
911.067
-858.107
896.396
-850.524
885.586
-797.954
856.463
-724.664
798.044
-675.453
783.755
-677.672
749.047
-687.389
771.879
-679.474
763.319
-643.525
788.228
-568.489
788.224
-520.143
814.345
-463.302
826.862
-402.426
850.043
-329.849
872.144
-288.414
888.756
-227.51
906.582
-174.375
918.108
-122.674
944.646
-92.8571
961.341
-62.9694
998.212
-45.3816
1025.33
-26.4647