/*--------------------------------*- C++ -*----------------------------------*\
| =========                 |                                                 |
| \\      /  F ield         | OpenFOAM: The Open Source CFD Toolbox           |
|  \\    /   O peration     | Version:  4.1                                   |
|   \\  /    A nd           | Web:      www.OpenFOAM.org                      |
|    \\/     M anipulation  |                                                 |
\*---------------------------------------------------------------------------*/
FoamFile
{
    version     2.0;
    format      ascii;
    class       volVectorField;
    location    "12";
    object      U;
}
// * * * * * * * * * * * * * * * * * * * * * * * * * * * * * * * * * * * * * //

dimensions      [0 1 -1 0 0 0 0];

internalField   nonuniform List<vector> 
26785
(
(1.09441e-15 -0.000483105 13.5923)
(1.13895e-15 -0.000608217 13.6037)
(1.09511e-15 -0.00368881 13.6692)
(1.54841e-15 -0.00475956 13.771)
(8.97498e-16 -0.00484462 13.8682)
(1.19472e-15 -0.00404909 13.9572)
(1.04196e-15 -0.00295811 14.0345)
(7.79533e-16 -0.00206272 14.1038)
(4.60053e-16 -0.00131146 14.1654)
(6.68509e-16 -0.000341698 14.2142)
(5.57923e-16 0.00155484 14.2504)
(6.19967e-16 0.00283324 14.2504)
(6.22822e-16 0.00441667 14.2383)
(6.21633e-16 0.00571886 14.2025)
(6.27637e-16 0.00630524 14.1451)
(6.42052e-16 0.00531878 14.098)
(6.09395e-16 0.00423975 14.0625)
(5.51003e-16 0.00206201 14.0577)
(6.70192e-16 -0.000304239 14.082)
(6.49788e-16 -0.00352406 14.1458)
(5.00185e-16 -0.00643021 14.2427)
(4.76093e-16 -0.00919358 14.3716)
(-4.03639e-16 -0.0112763 14.5239)
(7.56588e-16 -0.0127738 14.6883)
(9.85149e-16 -0.0135525 14.8604)
(2.90458e-16 -0.0138413 15.0296)
(4.37219e-16 -0.0137908 15.1946)
(7.15894e-16 -0.0133638 15.3478)
(-4.37689e-17 -0.0127203 15.4917)
(-2.19094e-16 -0.0118932 15.6208)
(1.57038e-16 -0.0110504 15.7385)
(1.42734e-15 -0.0101343 15.8409)
(1.05336e-15 -0.0092496 15.9311)
(1.55936e-15 -0.00815665 16.0084)
(-3.47811e-16 -0.00688307 16.0735)
(1.14626e-15 -0.00541076 16.1243)
(1.0164e-15 -0.00387048 16.1609)
(1.0864e-15 -0.00209395 16.1835)
(1.03275e-15 -0.000153294 16.1911)
(1.19472e-15 0.00199625 16.1823)
(1.12296e-15 0.00418564 16.1567)
(1.01969e-15 0.00626213 16.1156)
(7.523e-16 0.00795 16.0623)
(9.61192e-16 0.00917225 16.0011)
(1.04879e-15 0.0100558 15.9373)
(1.29444e-15 0.0107619 15.8719)
(1.57282e-15 0.0114998 15.7909)
(1.36867e-15 0.0120317 15.7171)
(1.2973e-15 0.0123975 15.6474)
(1.4818e-15 0.0117415 15.5793)
(8.76266e-16 0.0110175 15.5194)
(9.44984e-16 0.00990305 15.4668)
(1.20634e-15 0.0090002 15.4233)
(1.23092e-15 0.00763838 15.3869)
(1.20648e-15 0.00630455 15.3633)
(9.62048e-16 0.00461582 15.3488)
(1.57708e-15 0.00296709 15.3464)
(1.54086e-15 0.00127622 15.3526)
(1.10534e-15 -0.00041521 15.37)
(1.47603e-15 -0.00195214 15.3948)
(1.30258e-15 -0.00342116 15.428)
(1.12483e-15 -0.00461997 15.4668)
(1.151e-15 -0.00578856 15.511)
(1.41738e-15 -0.00666887 15.5583)
(8.18047e-16 -0.00748211 15.6087)
(9.72832e-16 -0.00802722 15.661)
(9.37797e-16 -0.00855776 15.7141)
(9.38014e-16 -0.00888464 15.7674)
(9.60249e-16 -0.00918768 15.8205)
(1.14988e-15 -0.00931532 15.8735)
(1.1647e-15 -0.00943033 15.925)
(5.11616e-16 -0.00938481 15.9753)
(8.16298e-16 -0.00931601 16.0235)
(8.39189e-16 -0.00911097 16.0699)
(8.04339e-16 -0.00890325 16.1136)
(8.27265e-16 -0.0086118 16.1549)
(9.23624e-16 -0.00831917 16.1935)
(9.77923e-16 -0.00796567 16.2296)
(9.59627e-16 -0.00761297 16.2628)
(9.75902e-16 -0.00722538 16.2935)
(9.55218e-16 -0.00683785 16.3214)
(5.37022e-16 -0.00643244 16.3467)
(1.02624e-15 -0.00602947 16.3694)
(1.0176e-15 -0.00562293 16.3896)
(1.25208e-15 -0.00522667 16.4072)
(9.99131e-16 -0.0048456 16.4226)
(1.00514e-15 -0.00449656 16.4357)
(1.04568e-15 -0.00418753 16.4469)
(9.20095e-16 -0.00393452 16.4562)
(9.1832e-16 -0.00373901 16.4642)
(1.00758e-15 -0.00361493 16.4709)
(1.0054e-15 -0.00355312 16.4768)
(1.00955e-15 -0.00356526 16.4821)
(1.01934e-15 -0.00362463 16.4871)
(1.02239e-15 -0.00375378 16.492)
(9.52663e-16 -0.00385503 16.497)
(1.05871e-15 -0.00411297 16.5021)
(1.04951e-15 -0.00362845 16.5075)
(1.06574e-15 -0.0058453 16.5106)
(1.0732e-15 -0.00538373 16.528)
(1.12285e-15 0.00467968 14.5881)
(1.5192e-15 0.00310931 14.6026)
(1.63166e-15 -0.00814613 14.7062)
(1.27231e-15 -0.0117307 14.8619)
(2.1546e-16 -0.0116733 15.006)
(1.32284e-15 -0.0090339 15.1332)
(1.86651e-15 -0.00574775 15.2394)
(1.27204e-15 -0.00407236 15.3337)
(1.0131e-15 -0.00271006 15.4216)
(1.406e-15 -0.00119805 15.4973)
(1.40995e-15 0.00347631 15.5646)
(1.28014e-15 0.00775417 15.5973)
(1.2402e-15 0.0123885 15.6232)
(1.24547e-15 0.0172195 15.6286)
(1.2437e-15 0.0190268 15.6153)
(1.5643e-15 0.0160199 15.6229)
(3.09338e-15 0.0120726 15.6524)
(5.0562e-16 0.00486725 15.7236)
(1.12003e-15 -0.00260688 15.8278)
(1.39293e-15 -0.0124453 15.971)
(1.59539e-15 -0.0208004 16.1409)
(2.50186e-15 -0.0286423 16.3339)
(1.15269e-15 -0.0340567 16.5399)
(1.16999e-15 -0.0378371 16.7472)
(1.5867e-15 -0.0394148 16.9522)
(1.33452e-15 -0.0400265 17.1461)
(1.35525e-15 -0.0396804 17.3292)
(1.50703e-15 -0.0384912 17.4945)
(1.61628e-15 -0.0365594 17.6452)
(9.44515e-16 -0.0341176 17.7764)
(1.98595e-15 -0.0314856 17.8925)
(1.98571e-15 -0.0287166 17.9907)
(1.75517e-15 -0.025996 18.0749)
(1.83031e-15 -0.0226786 18.1449)
(1.31036e-15 -0.0188665 18.2022)
(1.90146e-15 -0.0145921 18.2452)
(1.9462e-15 -0.0102822 18.2754)
(1.96581e-15 -0.00531594 18.2937)
(1.99622e-15 0.00018265 18.2993)
(1.94265e-15 0.00633417 18.291)
(2.07439e-15 0.0125578 18.2685)
(1.9611e-15 0.0183203 18.2331)
(2.08446e-15 0.0228641 18.1879)
(1.87284e-15 0.026131 18.1367)
(1.58565e-15 0.0284582 18.0839)
(1.5425e-15 0.0303813 18.0301)
(1.98804e-15 0.0324135 17.9609)
(1.62322e-15 0.0337936 17.8971)
(2.46145e-15 0.0346665 17.8349)
(1.88399e-15 0.0328053 17.7712)
(2.21078e-15 0.0308326 17.7115)
(2.19886e-15 0.0279213 17.6536)
(1.86241e-15 0.0255665 17.5984)
(2.49322e-15 0.0221247 17.5431)
(1.84755e-15 0.0187657 17.4921)
(1.63033e-15 0.0146319 17.4418)
(2.66353e-15 0.0106093 17.3946)
(2.61512e-15 0.00653475 17.3474)
(1.67781e-15 0.00251611 17.3029)
(1.8846e-15 -0.00114037 17.258)
(2.04103e-15 -0.00452501 17.2144)
(2.58043e-15 -0.00733618 17.1704)
(2.08411e-15 -0.010003 17.1267)
(1.8936e-15 -0.0120906 17.0822)
(1.90022e-15 -0.0139394 17.0376)
(2.09683e-15 -0.0153036 16.9929)
(2.03895e-15 -0.0165632 16.9477)
(2.13296e-15 -0.0174682 16.9024)
(2.07402e-15 -0.0182194 16.8568)
(1.9305e-15 -0.0186788 16.8118)
(1.96344e-15 -0.0190199 16.7665)
(2.00493e-15 -0.0190772 16.7216)
(1.94351e-15 -0.018998 16.6767)
(1.85941e-15 -0.0186792 16.6325)
(1.96741e-15 -0.0182877 16.5883)
(2.00758e-15 -0.0177379 16.5447)
(1.98706e-15 -0.0171183 16.5015)
(2.01414e-15 -0.0163788 16.4591)
(1.89441e-15 -0.0155874 16.4172)
(1.8735e-15 -0.0147181 16.3761)
(2.0193e-15 -0.0137963 16.3354)
(1.87698e-15 -0.0128172 16.2955)
(1.75349e-15 -0.0117923 16.2559)
(1.96682e-15 -0.0107306 16.2168)
(2.06468e-15 -0.00964551 16.1776)
(1.7882e-15 -0.00856053 16.1385)
(2.13926e-15 -0.00750865 16.0991)
(1.89352e-15 -0.0065184 16.0593)
(1.99728e-15 -0.00562921 16.019)
(2.00603e-15 -0.00485356 15.9781)
(1.99966e-15 -0.00422779 15.9364)
(2.00286e-15 -0.00374015 15.894)
(2.02003e-15 -0.00341937 15.8508)
(1.75917e-15 -0.00321894 15.8068)
(1.98178e-15 -0.00316114 15.7622)
(2.00481e-15 -0.00311452 15.7165)
(1.94241e-15 -0.00336246 15.6708)
(1.93985e-15 -0.00214668 15.6222)
(1.97749e-15 -0.0046271 15.5795)
(1.94968e-15 -0.00604149 15.5018)
(1.54757e-15 0.0113326 15.8092)
(1.68706e-15 0.00567433 15.8897)
(1.36074e-15 -0.0137496 16.0558)
(1.36167e-15 -0.0196588 16.2585)
(1.47501e-15 -0.0184608 16.4384)
(2.27284e-15 -0.0138671 16.5925)
(1.87178e-15 -0.0075165 16.721)
(1.65681e-15 -0.00481314 16.8364)
(1.75475e-15 -0.0020463 16.9455)
(1.82421e-15 0.000800015 17.0428)
(1.79117e-15 0.00805522 17.1321)
(1.7925e-15 0.0149071 17.1948)
(1.80141e-15 0.0207582 17.2563)
(1.78177e-15 0.0278012 17.3034)
(1.8628e-15 0.0285763 17.337)
(1.57883e-15 0.0221151 17.3918)
(2.43297e-15 0.013871 17.4656)
(3.1308e-15 0.00127641 17.5703)
(2.91922e-15 -0.010987 17.691)
(2.32728e-15 -0.0260961 17.8279)
(2.06047e-15 -0.038312 17.9672)
(2.90759e-15 -0.0493268 18.1053)
(2.55184e-15 -0.0565523 18.235)
(2.99097e-15 -0.0611323 18.3486)
(2.47047e-15 -0.0626269 18.4463)
(2.37091e-15 -0.062807 18.5229)
(1.97234e-15 -0.061777 18.5809)
(2.18657e-15 -0.0595263 18.6167)
(2.40128e-15 -0.0562794 18.6359)
(2.48788e-15 -0.0523103 18.637)
(2.37632e-15 -0.0481572 18.6263)
(2.56775e-15 -0.0440552 18.604)
(2.45777e-15 -0.04019 18.5762)
(2.37769e-15 -0.0357277 18.5469)
(2.20288e-15 -0.0305165 18.5198)
(2.4511e-15 -0.024757 18.4944)
(2.48963e-15 -0.018835 18.4711)
(2.49898e-15 -0.0119458 18.4498)
(2.5135e-15 -0.00402142 18.4286)
(2.50482e-15 0.00492281 18.4054)
(2.51163e-15 0.0142535 18.3779)
(2.5327e-15 0.0230277 18.3441)
(2.51537e-15 0.0302386 18.3028)
(2.49972e-15 0.0356076 18.2544)
(2.50772e-15 0.0397741 18.2018)
(2.52861e-15 0.0434164 18.1438)
(2.53711e-15 0.0474437 18.0655)
(2.531e-15 0.0515181 17.9853)
(2.5058e-15 0.0545392 17.8948)
(2.47569e-15 0.054287 17.7871)
(2.48548e-15 0.0533543 17.6675)
(2.52606e-15 0.0518074 17.5343)
(2.55996e-15 0.050849 17.3884)
(2.53263e-15 0.0489776 17.2263)
(2.52704e-15 0.0468144 17.0534)
(3.08103e-15 0.0437715 16.8667)
(2.41721e-15 0.0405368 16.6706)
(1.84482e-15 0.0371926 16.4629)
(2.55314e-15 0.0336857 16.2489)
(2.01066e-15 0.0302882 16.0258)
(2.21644e-15 0.027194 15.7983)
(2.40315e-15 0.0243008 15.5652)
(2.32149e-15 0.0216045 15.3295)
(2.37321e-15 0.0189104 15.0908)
(3.60108e-15 0.0167617 14.852)
(2.08756e-15 0.0144056 14.6135)
(1.79002e-15 0.0125001 14.3763)
(1.82405e-15 0.0101923 14.141)
(2.00523e-15 0.00853988 13.9091)
(1.91144e-15 0.00645183 13.6815)
(1.86201e-15 0.00493211 13.4583)
(1.77912e-15 0.00306635 13.2407)
(1.73345e-15 0.00177045 13.0292)
(1.80064e-15 0.000174635 12.825)
(1.83771e-15 -0.00103902 12.6281)
(1.79604e-15 -0.00252436 12.4397)
(1.69183e-15 -0.00364025 12.2599)
(1.62018e-15 -0.00496104 12.0898)
(1.56546e-15 -0.00597744 11.929)
(1.48779e-15 -0.00712765 11.7784)
(1.39735e-15 -0.00798014 11.6375)
(1.29224e-15 -0.00884977 11.5071)
(7.32618e-16 -0.00943123 11.3863)
(1.37861e-15 -0.00992554 11.2754)
(1.1849e-15 -0.0101661 11.1734)
(1.1282e-15 -0.0102653 11.0802)
(1.10096e-15 -0.0101828 10.9947)
(1.05711e-15 -0.00996381 10.9165)
(1.05497e-15 -0.00965929 10.8445)
(8.95304e-16 -0.00925295 10.7781)
(8.55637e-16 -0.00884396 10.7161)
(8.72633e-16 -0.0083679 10.6579)
(6.00142e-16 -0.00794302 10.6026)
(8.78599e-16 -0.00747391 10.5494)
(7.73392e-16 -0.00702279 10.4977)
(7.43314e-16 -0.00651061 10.4464)
(6.07151e-16 -0.00603561 10.3968)
(7.44754e-16 -0.00480511 10.3409)
(6.73663e-16 -0.00142812 10.3079)
(6.01128e-16 -0.00581253 10.1951)
(1.78309e-15 0.0192492 17.0366)
(1.87971e-15 0.00679955 17.1516)
(1.98867e-15 -0.0198899 17.3401)
(1.42013e-15 -0.0269652 17.5485)
(2.12085e-15 -0.0240963 17.7243)
(2.31598e-15 -0.017074 17.8694)
(2.36934e-15 -0.00796241 17.9876)
(2.74787e-15 -0.00441731 18.092)
(2.10376e-15 -0.000728634 18.1895)
(2.16951e-15 0.00315469 18.2762)
(2.14695e-15 0.0123059 18.3566)
(2.16626e-15 0.0209642 18.4106)
(2.20276e-15 0.0278084 18.459)
(2.3854e-15 0.0366172 18.486)
(2.46669e-15 0.0368082 18.4893)
(2.60665e-15 0.0276181 18.4956)
(2.402e-15 0.0164188 18.4952)
(3.14324e-15 0.000670543 18.4896)
(3.81561e-15 -0.0138427 18.4598)
(2.44232e-15 -0.0310475 18.4035)
(2.44933e-15 -0.0444984 18.3097)
(2.71376e-15 -0.055854 18.1793)
(2.972e-15 -0.0633805 18.0118)
(2.90745e-15 -0.0673855 17.8082)
(2.87834e-15 -0.068536 17.5752)
(2.868e-15 -0.0679555 17.3119)
(2.81571e-15 -0.0668491 17.0253)
(2.76371e-15 -0.0644708 16.7174)
(2.70934e-15 -0.0617435 16.3995)
(2.62174e-15 -0.05855 16.077)
(3.13996e-15 -0.0557589 15.7627)
(2.94257e-15 -0.0538278 15.4613)
(2.4745e-15 -0.0530188 15.1857)
(2.4045e-15 -0.0524894 14.9467)
(2.12475e-15 -0.0512628 14.754)
(2.91199e-15 -0.0495316 14.608)
(1.35971e-15 -0.0469961 14.5058)
(2.00542e-15 -0.0429436 14.4434)
(2.1293e-15 -0.0368627 14.4157)
(1.92258e-15 -0.0290578 14.4182)
(2.06623e-15 -0.0194574 14.4453)
(2.57212e-15 -0.00920506 14.4897)
(1.79611e-15 0.000625041 14.5423)
(2.18744e-15 0.00889082 14.5968)
(2.10847e-15 0.0165414 14.6527)
(2.44117e-15 0.0238789 14.7037)
(2.17829e-15 0.0321823 14.7329)
(1.70625e-15 0.0429519 14.7601)
(1.61349e-15 0.0529498 14.7693)
(2.18509e-15 0.0604451 14.7455)
(2.02796e-15 0.0661743 14.6945)
(3.16745e-15 0.0720521 14.6143)
(2.03559e-15 0.0782125 14.5066)
(1.13211e-15 0.0840323 14.3662)
(1.51619e-15 0.0887254 14.2006)
(2.15278e-15 0.0921544 14.0058)
(3.279e-15 0.0944184 13.7904)
(1.81006e-15 0.0960157 13.5503)
(1.48703e-15 0.0966602 13.2955)
(3.66417e-16 0.096531 13.0209)
(1.6854e-15 0.0962202 12.736)
(1.26093e-15 0.0951228 12.4381)
(1.84015e-15 0.0938779 12.1337)
(1.50444e-15 0.0913524 11.8212)
(1.61729e-15 0.0894956 11.507)
(1.10088e-15 0.0860781 11.1901)
(1.00863e-15 0.0833557 10.8737)
(1.21113e-15 0.0787937 10.5581)
(9.78005e-16 0.0754107 10.2468)
(7.16221e-16 0.0702319 9.94063)
(-4.55274e-16 0.0660593 9.6408)
(4.47956e-16 0.0603307 9.34887)
(6.3845e-16 0.0555929 9.06617)
(5.92841e-16 0.0494955 8.79456)
(1.08002e-15 0.0440246 8.53419)
(9.49033e-17 0.0374082 8.28707)
(-8.70485e-17 0.0314477 8.05362)
(-1.22466e-16 0.024596 7.83548)
(-1.01865e-16 0.0182751 7.63222)
(-3.60775e-16 0.0113248 7.44546)
(-4.16618e-16 0.0049276 7.2748)
(-5.61592e-16 -0.00169385 7.12143)
(-5.62057e-16 -0.00769045 6.98436)
(-8.65433e-16 -0.013525 6.86418)
(-1.07366e-15 -0.018709 6.75961)
(-1.03216e-15 -0.0234587 6.67063)
(-1.46349e-15 -0.0275724 6.59569)
(-9.45955e-16 -0.0310851 6.5342)
(-9.72777e-16 -0.0340208 6.48455)
(-1.04144e-15 -0.0363016 6.44575)
(-1.03145e-15 -0.038089 6.41623)
(-5.79208e-16 -0.0392408 6.39485)
(-1.17529e-15 -0.0399921 6.38016)
(-1.18058e-15 -0.0401995 6.37102)
(-1.22106e-15 -0.0400206 6.36634)
(-1.22811e-15 -0.0393965 6.36469)
(-1.18847e-15 -0.0379964 6.36671)
(-1.14137e-15 -0.037738 6.36347)
(-1.13826e-15 -0.0274372 6.382)
(-1.16519e-15 -0.0287977 6.35804)
(2.06024e-15 0.0292457 18.0666)
(2.20609e-15 0.00942713 18.1473)
(2.32881e-15 -0.0239955 18.2691)
(2.43162e-15 -0.0325596 18.398)
(2.28367e-15 -0.0287324 18.4921)
(2.28645e-15 -0.0199989 18.5576)
(2.67071e-15 -0.00895826 18.5987)
(2.53154e-15 -0.00528674 18.626)
(2.45609e-15 -0.00192332 18.6473)
(2.53594e-15 0.00188474 18.6633)
(2.54172e-15 0.0121728 18.6788)
(2.69602e-15 0.0224164 18.6643)
(2.63542e-15 0.0309161 18.6334)
(2.10965e-15 0.0423216 18.5656)
(3.34977e-15 0.0440593 18.4535)
(3.99705e-15 0.035266 18.3139)
(2.8019e-15 0.025904 18.1247)
(2.7061e-15 0.0131037 17.8775)
(2.66838e-15 0.00263768 17.55)
(2.64514e-15 -0.00988828 17.1451)
(2.61655e-15 -0.0191297 16.6601)
(2.94629e-15 -0.02528 16.108)
(3.18039e-15 -0.0302224 15.499)
(3.05178e-15 -0.0310234 14.8481)
(2.83251e-15 -0.0315018 14.1737)
(2.71681e-15 -0.0295579 13.4784)
(1.71004e-15 -0.0298389 12.7764)
(2.93129e-15 -0.029303 12.0733)
(2.29424e-15 -0.0312758 11.3908)
(1.97088e-15 -0.0343797 10.7402)
(1.78144e-15 -0.0404351 10.1457)
(1.62255e-15 -0.0497019 9.61513)
(1.38102e-15 -0.0622207 9.16725)
(1.17107e-15 -0.0773196 8.81327)
(7.22172e-16 -0.0921193 8.563)
(1.63188e-15 -0.106113 8.41011)
(1.57657e-15 -0.117204 8.34281)
(1.56896e-15 -0.12539 8.34822)
(1.58959e-15 -0.129206 8.4163)
(1.60953e-15 -0.12933 8.53617)
(1.70398e-15 -0.12481 8.69728)
(1.40956e-15 -0.117214 8.88992)
(1.69713e-15 -0.10718 9.10246)
(2.34636e-15 -0.0971201 9.32497)
(2.32064e-15 -0.0858411 9.55483)
(2.18698e-15 -0.0738893 9.78255)
(2.23382e-15 -0.0603412 9.98506)
(2.23976e-15 -0.0410332 10.188)
(1.62724e-15 -0.0214248 10.3748)
(2.69098e-15 -0.00229472 10.5277)
(2.78975e-15 0.0140699 10.6518)
(3.17926e-15 0.0316079 10.7436)
(2.31396e-15 0.0492072 10.8025)
(1.96058e-15 0.0670597 10.8237)
(2.03186e-15 0.0830027 10.8169)
(1.54329e-15 0.0972457 10.7765)
(1.092e-15 0.109134 10.7109)
(1.13365e-15 0.119641 10.6162)
(2.12422e-15 0.12833 10.5031)
(1.4907e-15 0.135537 10.3651)
(1.75099e-15 0.141705 10.2111)
(2.2963e-16 0.146219 10.0389)
(9.08269e-16 0.149767 9.85465)
(9.78004e-16 0.151144 9.65667)
(1.39973e-15 0.152715 9.45033)
(2.85346e-15 0.152007 9.23502)
(-1.03234e-17 0.151469 9.01278)
(1.59347e-16 0.148275 8.78398)
(3.83361e-17 0.145773 8.55106)
(-2.50457e-16 0.140701 8.31585)
(-4.6776e-16 0.136124 8.07858)
(-8.80052e-16 0.129315 7.84174)
(-1.282e-16 0.12304 7.60618)
(-1.45568e-16 0.114778 7.37486)
(-8.9239e-16 0.106595 7.14788)
(-1.08553e-15 0.0967158 6.92828)
(-1.51833e-15 0.0870572 6.71678)
(-1.23497e-15 0.0760656 6.51573)
(-1.28778e-15 0.0651627 6.32505)
(-9.6065e-16 0.0532067 6.14707)
(-3.122e-16 0.0414321 5.98207)
(2.64618e-18 0.0291696 5.83199)
(-1.87861e-15 0.0173606 5.6966)
(-2.6391e-15 0.00566287 5.57713)
(-1.4253e-15 -0.00532639 5.47293)
(-1.55498e-15 -0.0157209 5.38437)
(-1.43482e-15 -0.0252166 5.3103)
(-1.42413e-15 -0.0337786 5.25031)
(-1.28785e-15 -0.0413449 5.203)
(-1.4777e-15 -0.0478148 5.16748)
(-1.57868e-15 -0.0532989 5.1423)
(-1.35652e-15 -0.0576673 5.12637)
(-1.57086e-15 -0.0611226 5.11835)
(-1.48846e-15 -0.0635668 5.11716)
(-1.33333e-15 -0.0651728 5.12164)
(-1.31686e-15 -0.0659044 5.13075)
(-1.45108e-15 -0.0650042 5.1444)
(-1.0546e-15 -0.0658498 5.15621)
(-1.19739e-15 -0.0560661 5.1811)
(-9.69557e-16 -0.0515988 5.19774)
(2.41414e-15 0.0398051 18.6519)
(1.83834e-15 0.0142479 18.5687)
(2.61707e-15 -0.0250202 18.5144)
(2.14236e-15 -0.0358803 18.4765)
(2.76415e-15 -0.0325088 18.4098)
(2.71329e-15 -0.0234313 18.3184)
(2.95941e-15 -0.0119498 18.2072)
(3.04638e-15 -0.00960775 18.0828)
(2.69894e-15 -0.00886687 17.9547)
(2.2762e-15 -0.00743713 17.8355)
(2.95801e-15 0.00253377 17.733)
(2.88873e-15 0.0145558 17.6035)
(2.87339e-15 0.0260667 17.4501)
(2.81057e-15 0.0421433 17.2521)
(2.8065e-15 0.0494324 17.0004)
(2.74835e-15 0.0469412 16.7066)
(2.29284e-15 0.0474966 16.3288)
(1.56393e-15 0.0474253 15.8601)
(2.66921e-15 0.0505711 15.2759)
(1.77289e-15 0.0516374 14.6007)
(3.65027e-15 0.0528948 13.8407)
(3.04336e-15 0.0575188 13.0316)
(3.00448e-15 0.0570009 12.1889)
(4.42381e-15 0.0603566 11.3393)
(1.80559e-15 0.0581102 10.5113)
(1.97511e-15 0.0589161 9.70739)
(1.92146e-15 0.0523222 8.94754)
(1.47739e-15 0.0462228 8.23112)
(1.49649e-15 0.0329985 7.58035)
(5.23294e-16 0.0167909 6.99792)
(9.69503e-16 -0.0053869 6.50353)
(7.01653e-19 -0.0330841 6.09151)
(6.97254e-16 -0.0657828 5.77282)
(7.49458e-16 -0.10214 5.54795)
(1.79496e-15 -0.137051 5.41583)
(-6.89362e-17 -0.169714 5.36227)
(9.95867e-16 -0.196429 5.37465)
(9.08231e-16 -0.217959 5.43986)
(1.02318e-15 -0.232482 5.54737)
(9.53365e-16 -0.241456 5.69049)
(-2.79279e-17 -0.243348 5.86379)
(1.03217e-15 -0.240112 6.06087)
(2.13108e-15 -0.231929 6.27179)
(2.3902e-15 -0.22268 6.48943)
(2.93649e-15 -0.211024 6.71905)
(2.67216e-15 -0.197628 6.95622)
(2.49755e-15 -0.181244 7.17506)
(2.45271e-15 -0.155642 7.40631)
(2.40444e-15 -0.128833 7.62996)
(2.37422e-15 -0.100835 7.82695)
(2.34115e-15 -0.0762152 8.00494)
(2.24335e-15 -0.0488129 8.16252)
(2.05932e-15 -0.0207368 8.29641)
(1.87305e-15 0.00811025 8.39928)
(1.73912e-15 0.0343796 8.48204)
(1.63132e-15 0.058986 8.53784)
(1.50369e-15 0.0806953 8.57223)
(1.16388e-15 0.100412 8.57657)
(1.5439e-15 0.117446 8.56229)
(1.81862e-15 0.13265 8.52355)
(1.61743e-15 0.146294 8.46861)
(9.83574e-16 0.157791 8.39361)
(6.84944e-16 0.167622 8.30314)
(1.05977e-15 0.174871 8.19416)
(1.41742e-15 0.181901 8.07139)
(2.06921e-15 0.186383 7.93369)
(2.64536e-15 0.190334 7.78317)
(9.8705e-17 0.191297 7.6219)
(1.96136e-16 0.192488 7.45219)
(-2.35865e-16 0.190752 7.27611)
(-5.50078e-16 0.189014 7.093)
(-3.35056e-16 0.184535 6.90489)
(-3.06568e-16 0.180052 6.71114)
(-8.80893e-16 0.172877 6.51479)
(-3.85542e-17 0.164871 6.31646)
(2.94779e-16 0.154302 6.12069)
(-3.604e-16 0.143229 5.92904)
(1.76204e-17 0.130194 5.74461)
(1.71562e-16 0.116556 5.56763)
(-2.29607e-16 0.101221 5.40089)
(-4.34224e-16 0.0853948 5.24514)
(5.94681e-16 0.0685763 5.10281)
(-7.22774e-16 0.051771 4.97411)
(-2.03962e-16 0.0348253 4.86052)
(1.54243e-16 0.0184622 4.76164)
(-1.24e-15 0.00276464 4.67792)
(-1.42662e-15 -0.0118486 4.60826)
(-1.41614e-15 -0.0252377 4.5522)
(-1.53165e-15 -0.0372675 4.50831)
(-1.58585e-15 -0.0477873 4.47562)
(-1.3516e-15 -0.0568857 4.4527)
(-1.4663e-15 -0.0644502 4.43848)
(-2.05221e-15 -0.0706806 4.43168)
(-1.30308e-15 -0.0754967 4.43138)
(-7.37874e-16 -0.0791131 4.43652)
(-1.17467e-15 -0.0815069 4.44649)
(-1.08849e-15 -0.0816845 4.46063)
(-1.16268e-15 -0.0836513 4.47638)
(-1.10418e-15 -0.0755554 4.49744)
(-1.0884e-15 -0.0686316 4.52614)
(2.74854e-15 0.0533133 18.433)
(2.72163e-15 0.0225641 18.2004)
(2.87236e-15 -0.0230466 17.962)
(3.12908e-15 -0.0377122 17.7131)
(2.97778e-15 -0.0364801 17.406)
(2.73014e-15 -0.0288659 17.0559)
(2.82523e-15 -0.0192151 16.6819)
(2.69215e-15 -0.020171 16.2893)
(2.38633e-15 -0.0256328 15.898)
(2.7612e-15 -0.0308646 15.5581)
(3.25727e-15 -0.0247157 15.2943)
(2.36793e-15 -0.0118574 15.0492)
(2.51385e-15 0.00307628 14.8068)
(2.40135e-15 0.0246116 14.5519)
(2.40201e-15 0.0399233 14.2776)
(3.84009e-15 0.0490676 13.9971)
(1.89328e-15 0.0667675 13.6341)
(6.2162e-16 0.0870308 13.1951)
(2.45059e-15 0.109609 12.6507)
(2.28895e-15 0.127529 12.046)
(3.33115e-15 0.139121 11.3901)
(1.85724e-15 0.152486 10.7341)
(3.98906e-15 0.153187 10.0911)
(1.99223e-15 0.156353 9.47408)
(2.12526e-15 0.149545 8.90547)
(2.00272e-15 0.145992 8.36974)
(1.40258e-16 0.133039 7.87157)
(-1.02878e-15 0.120826 7.39297)
(2.93593e-15 0.10009 6.94337)
(-1.81663e-16 0.0751891 6.52097)
(5.60829e-16 0.0432083 6.14722)
(6.01757e-16 0.00464411 5.81845)
(4.72003e-16 -0.0407107 5.54572)
(4.41069e-16 -0.0905804 5.33378)
(3.65339e-16 -0.138829 5.18943)
(4.90724e-16 -0.183583 5.10407)
(8.50047e-16 -0.220996 5.06716)
(9.96857e-16 -0.251573 5.06787)
(1.24222e-15 -0.274176 5.10149)
(1.17716e-15 -0.290602 5.16549)
(1.6216e-15 -0.299129 5.25647)
(1.75732e-15 -0.300976 5.37088)
(2.21554e-15 -0.295972 5.50042)
(2.81146e-15 -0.289475 5.63549)
(2.83782e-15 -0.28081 5.78286)
(2.57874e-15 -0.270423 5.94213)
(3.03314e-15 -0.256249 6.08716)
(2.46971e-15 -0.229848 6.25671)
(1.93051e-15 -0.200351 6.4294)
(1.6381e-15 -0.168806 6.58297)
(4.68482e-16 -0.14129 6.7283)
(-6.95731e-16 -0.109083 6.86453)
(-2.98063e-17 -0.0745271 6.98773)
(1.69284e-15 -0.0388393 7.08509)
(2.08763e-15 -0.00670137 7.17025)
(2.2081e-15 0.0240805 7.23855)
(2.43056e-15 0.0525343 7.2961)
(2.51809e-15 0.0796446 7.32955)
(4.081e-15 0.103105 7.34687)
(1.7847e-15 0.124555 7.34158)
(1.89043e-15 0.143936 7.32131)
(2.31702e-15 0.161193 7.283)
(2.38502e-15 0.176576 7.23052)
(1.5334e-15 0.189438 7.15989)
(7.30038e-16 0.201985 7.07514)
(1.42944e-15 0.212009 6.97398)
(3.78486e-15 0.220616 6.85717)
(3.35307e-15 0.225623 6.72669)
(-1.26545e-15 0.230198 6.58545)
(1.83462e-15 0.231535 6.43592)
(1.14684e-15 0.232423 6.27774)
(1.10243e-15 0.230371 6.11453)
(8.16588e-16 0.228033 5.9465)
(1.23244e-15 0.222453 5.77526)
(1.08462e-15 0.21509 5.59955)
(3.12454e-17 0.204004 5.4246)
(-1.33429e-15 0.191574 5.25272)
(1.07376e-15 0.176535 5.08752)
(3.77409e-16 0.160249 4.9291)
(-2.96759e-16 0.141657 4.78012)
(6.10863e-16 0.12192 4.64115)
(-1.81483e-15 0.100694 4.5145)
(-1.59601e-15 0.0790945 4.40027)
(-1.67747e-15 0.0571593 4.29983)
(-1.94561e-15 0.0357277 4.21263)
(-2.16238e-15 0.0150667 4.13902)
(-2.43992e-15 -0.00426574 4.07792)
(-2.77989e-15 -0.0220315 4.02885)
(-2.07406e-15 -0.0380418 3.99045)
(-2.75685e-15 -0.0521238 3.96184)
(-2.33915e-15 -0.0643509 3.94172)
(-2.68694e-15 -0.0746634 3.92923)
(-3.88302e-15 -0.083289 3.92332)
(-2.97628e-15 -0.0901886 3.92337)
(-3.04138e-15 -0.0956184 3.92856)
(-2.82499e-15 -0.0995782 3.93883)
(-2.42165e-15 -0.101132 3.9529)
(-3.03485e-15 -0.104173 3.97262)
(-3.10016e-15 -0.0975063 3.9895)
(-3.16651e-15 -0.0912145 4.03207)
(2.5654e-15 0.0666202 17.7484)
(3.06893e-15 0.0323693 17.3395)
(3.00679e-15 -0.0172639 16.8028)
(3.13342e-15 -0.0343132 16.1727)
(3.03584e-15 -0.0348907 15.437)
(2.6674e-15 -0.0299561 14.6464)
(2.32809e-15 -0.0241903 13.8511)
(1.7225e-15 -0.031037 13.0577)
(2.43947e-15 -0.0493588 12.3156)
(1.99353e-15 -0.0706753 11.7436)
(1.91472e-15 -0.0771141 11.3814)
(1.98701e-15 -0.0682776 11.1416)
(1.98514e-15 -0.0522712 10.9683)
(1.97786e-15 -0.0280954 10.8341)
(1.43116e-15 -0.00713567 10.7372)
(2.50946e-15 0.0136086 10.6916)
(3.14235e-15 0.0506921 10.5807)
(2.82015e-15 0.0919098 10.4087)
(2.78082e-15 0.133291 10.143)
(2.34462e-15 0.163863 9.82656)
(2.15011e-15 0.182639 9.48)
(1.87032e-15 0.201915 9.12561)
(3.69965e-15 0.205176 8.75468)
(3.00919e-15 0.209014 8.37071)
(1.83239e-15 0.202301 7.99863)
(1.47626e-15 0.198813 7.6254)
(-2.56355e-16 0.186652 7.25999)
(2.15347e-15 0.174951 6.89133)
(8.17242e-16 0.153775 6.53236)
(4.71195e-16 0.125656 6.18618)
(4.45268e-17 0.088115 5.87606)
(-1.53498e-16 0.0425893 5.59823)
(7.25798e-18 -0.0111351 5.36062)
(3.41524e-16 -0.0707771 5.16626)
(6.18158e-16 -0.129614 5.02378)
(1.58383e-15 -0.184111 4.92804)
(9.07734e-16 -0.22983 4.87048)
(1.25516e-15 -0.267158 4.84093)
(1.6648e-15 -0.296031 4.83612)
(1.81864e-15 -0.318067 4.85546)
(1.00717e-15 -0.331739 4.89726)
(2.27667e-15 -0.337704 4.96149)
(3.1532e-15 -0.334812 5.04228)
(3.63491e-15 -0.329787 5.1282)
(3.46153e-15 -0.323672 5.22149)
(3.26955e-15 -0.316616 5.32397)
(3.07951e-15 -0.30563 5.41151)
(3.69952e-15 -0.280308 5.52916)
(3.21427e-15 -0.249604 5.6581)
(1.3501e-15 -0.21628 5.77185)
(1.9093e-15 -0.188528 5.88015)
(1.24308e-15 -0.155716 5.98901)
(1.49136e-15 -0.117589 6.09227)
(2.25837e-15 -0.0770799 6.17532)
(2.53055e-15 -0.0412608 6.25133)
(2.34321e-15 -0.00727219 6.31382)
(4.24215e-15 0.0249143 6.37276)
(2.6594e-15 0.0575647 6.41311)
(2.17546e-15 0.0863452 6.44052)
(1.26869e-15 0.113156 6.44806)
(2.8428e-15 0.137389 6.4435)
(3.45009e-15 0.159564 6.42241)
(2.90396e-15 0.179735 6.38728)
(2.56978e-15 0.197408 6.33455)
(2.20069e-15 0.214856 6.26953)
(2.12269e-15 0.230265 6.19086)
(3.7963e-15 0.243754 6.09732)
(1.52396e-15 0.2531 5.99034)
(7.53667e-16 0.261305 5.87276)
(-1.86999e-16 0.265902 5.74741)
(-1.34394e-15 0.269317 5.61353)
(6.34758e-16 0.269345 5.47479)
(-2.21446e-16 0.268761 5.33152)
(-6.58252e-16 0.264978 5.18903)
(-7.76195e-16 0.258871 5.04288)
(-1.35102e-15 0.24788 4.89611)
(-1.81624e-15 0.23454 4.75114)
(-1.51612e-15 0.217942 4.61167)
(-1.41854e-15 0.199497 4.47755)
(-1.66994e-15 0.178228 4.35113)
(-2.35621e-15 0.15526 4.23254)
(-1.03496e-15 0.130359 4.12368)
(-1.43439e-15 0.104718 4.0245)
(-3.37105e-15 0.0785713 3.93639)
(-2.22895e-15 0.0528742 3.85889)
(-3.24508e-15 0.0280256 3.79238)
(-3.33714e-15 0.00469578 3.73597)
(-3.53749e-15 -0.0167875 3.68946)
(-3.74625e-15 -0.0361898 3.65183)
(-3.32152e-15 -0.053344 3.62253)
(-3.50423e-15 -0.0683245 3.60064)
(-4.92474e-15 -0.0811101 3.5856)
(-3.41215e-15 -0.0919795 3.57669)
(-3.5186e-15 -0.100946 3.57362)
(-3.36886e-15 -0.108311 3.57584)
(-4.29589e-15 -0.114084 3.58379)
(-4.36178e-15 -0.117587 3.59569)
(-4.49179e-15 -0.121942 3.61686)
(-4.73078e-15 -0.117475 3.62936)
(-4.71739e-15 -0.114412 3.68334)
(2.82211e-15 0.0781948 16.6189)
(2.80037e-15 0.0516406 15.907)
(2.26135e-15 0.00673289 14.8533)
(2.95628e-15 -0.0100276 13.6442)
(2.49008e-15 -0.0142548 12.3582)
(1.72654e-15 -0.0150816 11.0856)
(1.63907e-15 -0.0170225 9.90495)
(1.7137e-15 -0.0345355 8.81051)
(1.65876e-15 -0.0766384 7.88336)
(1.98201e-15 -0.128413 7.2866)
(5.91372e-16 -0.160465 7.02617)
(8.45849e-16 -0.163678 6.95669)
(9.06508e-16 -0.149834 6.99605)
(9.63702e-16 -0.126049 7.08186)
(1.1405e-15 -0.102688 7.21396)
(1.20633e-15 -0.0734708 7.411)
(2.06821e-15 -0.0191366 7.55389)
(2.88714e-15 0.0398883 7.64604)
(-4.03412e-15 0.0988098 7.65347)
(4.14038e-15 0.144989 7.60199)
(1.13538e-15 0.174261 7.4678)
(1.21182e-15 0.204489 7.30845)
(4.2162e-15 0.215888 7.12021)
(-2.98486e-15 0.225389 6.89936)
(9.41843e-16 0.221857 6.68228)
(1.52981e-15 0.221165 6.45734)
(2.18407e-15 0.211126 6.23462)
(-1.15472e-15 0.201018 6.00619)
(-3.55874e-16 0.180368 5.78333)
(-5.11426e-17 0.150837 5.56347)
(-1.99913e-15 0.109972 5.36437)
(-4.01129e-16 0.060065 5.17795)
(-1.10612e-15 0.00138167 5.00989)
(-1.84576e-15 -0.0639532 4.86252)
(3.44197e-16 -0.129394 4.74602)
(2.83051e-15 -0.190321 4.65976)
(1.44751e-15 -0.241905 4.59918)
(1.72143e-15 -0.284078 4.55666)
(2.10213e-15 -0.31722 4.53286)
(2.14822e-15 -0.342997 4.53028)
(2.70907e-15 -0.36044 4.54774)
(2.45135e-15 -0.369848 4.5857)
(2.8868e-15 -0.368771 4.64106)
(3.4991e-15 -0.36342 4.70209)
(3.50766e-15 -0.357173 4.76653)
(3.47895e-15 -0.351384 4.8351)
(3.32185e-15 -0.342288 4.88511)
(3.34981e-15 -0.318275 4.96675)
(3.38208e-15 -0.286577 5.06517)
(3.1315e-15 -0.251104 5.15217)
(2.96213e-15 -0.222795 5.23312)
(2.78235e-15 -0.189806 5.318)
(2.52201e-15 -0.149074 5.40233)
(2.46631e-15 -0.104829 5.4695)
(2.34002e-15 -0.0662385 5.53509)
(2.32577e-15 -0.0299829 5.58983)
(4.58223e-15 0.00430992 5.64291)
(1.95165e-15 0.0408179 5.68157)
(2.12535e-15 0.0731924 5.71222)
(2.39061e-15 0.103795 5.72628)
(3.52776e-15 0.131567 5.73033)
(2.24418e-15 0.157986 5.7194)
(1.24787e-15 0.182369 5.69533)
(9.18771e-16 0.204308 5.65498)
(1.40289e-15 0.225296 5.60276)
(6.98458e-16 0.244623 5.54166)
(8.21548e-16 0.261929 5.46992)
(5.38372e-16 0.275058 5.38656)
(-1.15454e-15 0.286364 5.29328)
(-2.08633e-15 0.293876 5.19322)
(-1.24423e-15 0.299556 5.08493)
(-1.08951e-15 0.301467 4.97243)
(-1.81393e-15 0.30176 4.85571)
(-1.76035e-15 0.299102 4.73912)
(-4.8994e-16 0.294028 4.62282)
(-3.80272e-15 0.283498 4.50563)
(-3.03184e-15 0.269697 4.38863)
(-2.55666e-15 0.252115 4.27519)
(-2.17196e-15 0.23215 4.16485)
(-2.34347e-15 0.208987 4.0597)
(-2.56055e-15 0.183723 3.95951)
(-2.45355e-15 0.156212 3.86595)
(-2.8123e-15 0.127599 3.77892)
(-2.25789e-15 0.0982691 3.69986)
(-3.37243e-15 0.0692916 3.62843)
(-3.857e-15 0.0411914 3.56525)
(-2.91827e-15 0.0146792 3.50975)
(-2.97321e-15 -0.00985489 3.46219)
(-3.09742e-15 -0.0321504 3.422)
(-3.26072e-15 -0.0520161 3.38909)
(-3.25722e-15 -0.0695464 3.36287)
(-3.42384e-15 -0.0847217 3.34304)
(-4.06764e-15 -0.0978626 3.32907)
(-4.13897e-15 -0.109019 3.32082)
(-4.5101e-15 -0.118553 3.3179)
(-4.17637e-15 -0.126486 3.32115)
(-3.87517e-15 -0.132417 3.3285)
(-4.38562e-15 -0.138688 3.34796)
(-4.16654e-15 -0.137076 3.35547)
(-3.97767e-15 -0.139042 3.41576)