/*--------------------------------*- C++ -*----------------------------------*\
| =========                 |                                                 |
| \\      /  F ield         | OpenFOAM: The Open Source CFD Toolbox           |
|  \\    /   O peration     | Version:  4.1                                   |
|   \\  /    A nd           | Web:      www.OpenFOAM.org                      |
|    \\/     M anipulation  |                                                 |
\*---------------------------------------------------------------------------*/
FoamFile
{
    version     2.0;
    format      ascii;
    class       volScalarField;
    location    "13";
    object      p;
}
// * * * * * * * * * * * * * * * * * * * * * * * * * * * * * * * * * * * * * //

dimensions      [0 2 -2 0 0 0 0];

internalField   nonuniform List<scalar> 
26785
(
2.88931
2.69603
2.76209
2.90444
3.08443
3.35282
3.5661
3.72262
3.73969
3.71833
3.68082
3.62775
3.53957
3.43624
3.32646
3.20494
3.04779
2.88602
2.6974
2.50521
2.30072
2.09701
1.94631
1.83094
1.7203
1.61855
1.56769
1.5724
1.61541
1.66698
1.69439
1.69806
1.67958
1.64046
1.58891
1.54375
1.5171
1.51529
1.53865
1.59909
1.70731
1.87583
2.09447
2.34441
2.5978
2.83329
3.02781
3.16761
3.29553
3.37333
3.42289
3.43321
3.41566
3.36368
3.28121
3.17902
3.06059
2.93768
2.80849
2.68593
2.56848
2.46537
2.37149
2.29137
2.21959
2.16093
2.1103
2.0699
2.03487
2.00833
1.98755
1.97478
1.96724
1.96381
1.96027
1.95383
1.94162
1.92137
1.89161
1.85132
1.80119
1.74185
1.67526
1.60238
1.525
1.44343
1.35886
1.2712
1.18145
1.08942
0.995953
0.90069
0.804169
0.705755
0.605953
0.503537
0.401144
0.291901
0.189083
0.0422793
2.87315
2.69415
2.76242
2.90283
3.08393
3.35355
3.56824
3.72472
3.74043
3.71796
3.67946
3.62619
3.538
3.43608
3.32654
3.2059
3.04845
2.88685
2.6971
2.50472
2.29944
2.0954
1.94438
1.82941
1.71854
1.61633
1.56547
1.57156
1.61657
1.66961
1.69724
1.70052
1.68128
1.64103
1.58845
1.54267
1.51562
1.5132
1.53546
1.59452
1.70202
1.87091
2.09095
2.34272
2.59788
2.83459
3.02968
3.1698
3.29817
3.37554
3.42551
3.43612
3.41887
3.36619
3.28283
3.17992
3.06125
2.93799
2.80836
2.68537
2.56765
2.46452
2.37065
2.29051
2.21868
2.16009
2.10957
2.06926
2.0342
2.00762
1.9868
1.97415
1.9669
1.96384
1.96069
1.95464
1.94278
1.92281
1.8932
1.85289
1.80261
1.74306
1.67626
1.60319
1.52564
1.44395
1.35927
1.27152
1.18168
1.08958
0.99604
0.900747
0.8042
0.705792
0.605985
0.503412
0.40143
0.290772
0.206897
0.0195383
2.84354
2.69175
2.76317
2.89978
3.08283
3.35551
3.57246
3.7293
3.74248
3.71808
3.67771
3.62373
3.5359
3.43618
3.32719
3.20774
3.05021
2.8888
2.69713
2.50403
2.29735
2.09248
1.94119
1.82719
1.71627
1.61285
1.56166
1.57047
1.61976
1.67591
1.70439
1.70712
1.68634
1.64355
1.58845
1.54096
1.51291
1.50931
1.52968
1.58648
1.69287
1.86262
2.08526
2.34037
2.59886
2.83774
3.03415
3.17512
3.30409
3.38095
3.43144
3.44265
3.42562
3.3716
3.2862
3.18178
3.06227
2.93827
2.80763
2.68379
2.56555
2.46241
2.36854
2.28837
2.21638
2.1579
2.10744
2.06724
2.03208
2.00549
1.98466
1.97232
1.96556
1.96323
1.96076
1.95543
1.94425
1.9249
1.89566
1.8555
1.80519
1.74553
1.67857
1.60538
1.52773
1.44597
1.36122
1.27341
1.18349
1.09133
0.997734
0.902414
0.80584
0.707419
0.607622
0.504854
0.403066
0.291026
0.212009
0.0237219
2.80319
2.69075
2.76319
2.8943
3.08056
3.35851
3.57969
3.73743
3.74641
3.71865
3.67519
3.61982
3.5329
3.43628
3.3283
3.21044
3.05302
2.8915
2.69735
2.5029
2.29441
2.08796
1.93639
1.82374
1.7128
1.60729
1.55529
1.56766
1.62314
1.68389
1.71401
1.71629
1.69378
1.6478
1.58966
1.54028
1.5113
1.50653
1.52498
1.57936
1.68495
1.85595
2.08156
2.33999
2.6016
2.8419
3.03888
3.18137
3.30943
3.38662
3.43722
3.45004
3.43275
3.37754
3.2894
3.18342
3.06256
2.93759
2.80552
2.68085
2.5621
2.45925
2.36558
2.28574
2.21388
2.15577
2.10547
2.0654
2.03007
2.00339
1.98243
1.9703
1.96384
1.96202
1.95993
1.9551
1.94432
1.9254
1.89629
1.85618
1.80566
1.74587
1.67866
1.60536
1.5275
1.44565
1.36069
1.2728
1.1827
1.09049
0.996769
0.901441
0.804805
0.706411
0.606548
0.50393
0.401394
0.290874
0.197349
0.0417861
2.75613
2.69478
2.76314
2.88718
3.07795
3.36335
3.59043
3.74891
3.75178
3.71915
3.67153
3.61445
3.52949
3.4366
3.32994
3.21327
3.05626
2.89442
2.69778
2.50195
2.29201
2.08346
1.93129
1.81952
1.7085
1.60039
1.54736
1.56303
1.62442
1.68931
1.72126
1.7231
1.699
1.64999
1.58934
1.53851
1.50889
1.50272
1.51904
1.57097
1.67596
1.84795
2.07569
2.33587
2.59881
2.83886
3.03527
3.17917
3.30584
3.38435
3.43566
3.45085
3.4337
3.37784
3.28773
3.18085
3.05938
2.93385
2.80112
2.67623
2.55794
2.45594
2.36312
2.28394
2.21267
2.15508
2.10511
2.06514
2.0297
2.00289
1.98186
1.96991
1.96374
1.96233
1.96056
1.95608
1.9456
1.92695
1.89785
1.85762
1.80682
1.7468
1.67934
1.60589
1.52787
1.44589
1.36077
1.27277
1.18258
1.09036
0.996643
0.901407
0.804873
0.706634
0.606847
0.504517
0.40135
0.292065
0.188805
0.0549115
2.7049
2.7054
2.76255
2.87891
3.07503
3.36956
3.60436
3.76326
3.75814
3.71925
3.66714
3.60828
3.52655
3.43762
3.33273
3.21647
3.06024
2.89776
2.6996
2.50251
2.29192
2.08092
1.92754
1.81504
1.70329
1.59229
1.53796
1.55545
1.62081
1.6881
1.72118
1.72236
1.69687
1.64551
1.58331
1.53198
1.50201
1.49442
1.50831
1.55787
1.66244
1.83556
2.0652
2.32689
2.59087
2.83113
3.02778
3.17289
3.2993
3.37916
3.43214
3.4495
3.43291
3.37569
3.28355
3.17562
3.05411
2.92811
2.79511
2.67021
2.55299
2.45218
2.36057
2.28209
2.21155
2.15445
2.10487
2.06489
2.02938
2.00239
1.98138
1.96971
1.96406
1.96325
1.96197
1.95795
1.94788
1.92952
1.9004
1.85989
1.80865
1.7482
1.68029
1.60647
1.52808
1.44577
1.36025
1.27191
1.1814
1.08899
0.995112
0.899825
0.803276
0.705108
0.605321
0.503166
0.399492
0.290995
0.182885
0.0605332
2.64934
2.71667
2.75726
2.86804
3.07113
3.37607
3.62006
3.77851
3.76456
3.71917
3.66318
3.60332
3.52567
3.43992
3.33598
3.21864
3.06327
2.90012
2.70119
2.50311
2.2925
2.0788
1.9237
1.80995
1.698
1.58472
1.52901
1.54831
1.61727
1.68687
1.7209
1.7219
1.69541
1.64215
1.57848
1.52631
1.49511
1.48498
1.49505
1.54116
1.64436
1.81785
2.04869
2.31166
2.57677
2.81767
3.01491
3.16097
3.28746
3.36838
3.42336
3.44298
3.42702
3.36808
3.27373
3.16509
3.04414
2.9182
2.7852
2.66074
2.5452
2.44621
2.35617
2.27859
2.20882
2.1523
2.10312
2.06317
2.0276
2.00052
1.9796
1.96839
1.9635
1.96352
1.96289
1.95944
1.94992
1.93195
1.90285
1.86205
1.81036
1.74944
1.68106
1.60685
1.5281
1.44546
1.35957
1.27088
1.18005
1.08743
0.993416
0.898074
0.801531
0.703457
0.603743
0.501782
0.397868
0.290058
0.179414
0.0637942
2.60153
2.73068
2.74874
2.85635
3.06651
3.38193
3.63613
3.79313
3.77051
3.71909
3.66039
3.60006
3.5265
3.44172
3.33709
3.2171
3.06255
2.89862
2.69989
2.50189
2.29212
2.0762
1.91962
1.80642
1.69587
1.58084
1.52226
1.54295
1.61559
1.68734
1.72123
1.72172
1.69463
1.63964
1.57462
1.52155
1.48869
1.47551
1.4808
1.52222
1.62326
1.79658
2.02809
2.29209
2.55837
2.80015
2.9983
3.14578
3.27221
3.35367
3.41053
3.43275
3.41745
3.35642
3.25952
3.15068
3.03096
2.90575
2.77288
2.64917
2.53579
2.43928
2.35126
2.27476
2.20576
2.14989
2.10111
2.0612
2.0256
1.99849
1.97777
1.96716
1.96323
1.96424
1.96432
1.96138
1.95241
1.93487
1.9058
1.86466
1.81243
1.75098
1.68203
1.60734
1.52814
1.44508
1.35873
1.26961
1.17836
1.08541
0.991155
0.895645
0.79897
0.70087
0.601161
0.499337
0.395315
0.288055
0.176271
0.0648878
2.56828
2.7431
2.73608
2.84333
3.05996
3.3844
3.64864
3.80298
3.77303
3.717
3.65681
3.59662
3.5272
3.44179
3.33483
3.21215
3.05869
2.8948
2.69602
2.49829
2.28831
2.06894
1.91054
1.79904
1.69068
1.57427
1.51302
1.53623
1.61377
1.68779
1.72135
1.72192
1.69577
1.64013
1.57433
1.52036
1.48533
1.46845
1.46874
1.50519
1.60383
1.77637
2.00752
2.27147
2.53822
2.78044
2.97927
3.12851
3.25501
3.33622
3.39438
3.41917
3.40445
3.3411
3.24162
3.13322
3.01523
2.89107
2.75832
2.63563
2.52498
2.4316
2.34597
2.2706
2.20221
2.14691
2.09849
2.05866
2.02307
1.99602
1.97558
1.96571
1.96285
1.96497
1.96573
1.96316
1.95464
1.93758
1.90861
1.86712
1.81431
1.75224
1.68265
1.60743
1.52775
1.44425
1.35744
1.26785
1.17615
1.08281
0.98826
0.892525
0.795665
0.697472
0.597764
0.496092
0.392132
0.285424
0.173446
0.0649472
2.55398
2.74795
2.71944
2.8301
3.05156
3.38251
3.65551
3.80619
3.77069
3.71199
3.65176
3.59211
3.52692
3.44091
3.33026
3.20447
3.05109
2.88682
2.68769
2.4901
2.2792
2.05572
1.89634
1.78825
1.68267
1.56531
1.50297
1.53045
1.61413
1.68946
1.72162
1.72279
1.6996
1.64494
1.57858
1.52316
1.48505
1.46363
1.45879
1.4905
1.58698
1.75834
1.98804
2.25074
2.51717
2.7595
2.95871
3.10974
3.23648
3.31657
3.37495
3.40192
3.38771
3.32188
3.21991
3.11274
2.9971
2.87411
2.74138
2.62016
2.51297
2.42343
2.34057
2.26626
2.19838
2.14364
2.09561
2.05602
2.02077
1.99391
1.97393
1.9649
1.96315
1.96631
1.96768
1.96525
1.95713
1.9406
1.9118
1.86991
1.8164
1.75361
1.68332
1.60751
1.52727
1.44327
1.35594
1.26582
1.17357
1.07975
0.984778
0.888713
0.791567
0.693198
0.593434
0.491905
0.388104
0.281985
0.170355
0.0641976
2.56251
2.73956
2.69955
2.81743
3.04195
3.37663
3.65653
3.80309
3.76376
3.70424
3.64469
3.58497
3.52324
3.43696
3.32278
3.1944
3.04133
2.87693
2.67682
2.47934
2.26703
2.03867
1.87911
1.77546
1.67209
1.55315
1.49182
1.52596
1.61622
1.69123
1.72103
1.72345
1.70491
1.65271
1.58564
1.52775
1.48589
1.45938
1.44956
1.47729
1.5722
1.74248
1.97005
2.23057
2.49596
2.73804
2.93735
3.09009
3.21745
3.29584
3.35329
3.38179
3.36779
3.29964
3.19584
3.09077
2.97781
2.85572
2.72287
2.60374
2.50082
2.41557
2.33547
2.262
2.19447
2.14026
2.09252
2.05322
2.01854
1.99206
1.97268
1.96454
1.9637
1.96762
1.96935
1.96693
1.9592
1.94326
1.91458
1.87215
1.81786
1.75433
1.68343
1.60704
1.5262
1.44163
1.35377
1.26309
1.17027
1.07594
0.980505
0.884065
0.786609
0.688049
0.588248
0.486918
0.383416
0.277998
0.167015
0.0632435
2.60511
2.72925
2.68219
2.8069
3.0317
3.36855
3.65394
3.79539
3.75235
3.69312
3.63546
3.57588
3.51664
3.43035
3.31345
3.1833
3.03079
2.86515
2.66278
2.46478
2.25083
2.01754
1.85945
1.7613
1.65923
1.53809
1.48062
1.52429
1.62093
1.69356
1.72039
1.7256
1.71321
1.66445
1.59613
1.5346
1.48847
1.45691
1.44239
1.46691
1.56069
1.72973
1.95448
2.21186
2.47543
2.7166
2.91552
3.0698
3.19803
3.27414
3.3292
3.35838
3.34424
3.27406
3.16925
3.06722
2.95727
2.83555
2.70279
2.58664
2.48864
2.40785
2.33027
2.2575
2.19057
2.13706
2.08959
2.05056
2.01671
1.991
1.97249
1.96519
1.96487
1.96913
1.97108
1.96878
1.96156
1.94614
1.91737
1.87421
1.81919
1.75507
1.6837
1.60672
1.5252
1.43993
1.35142
1.26012
1.16667
1.07173
0.97574
0.878849
0.781034
0.682254
0.582419
0.481333
0.378236
0.273629
0.163393
0.062267
2.65617
2.71077
2.66403
2.79605
3.01973
3.35728
3.64788
3.7835
3.7368
3.67868
3.62401
3.56507
3.50726
3.4206
3.30148
3.17079
3.01955
2.85197
2.64612
2.44737
2.232
1.99409
1.83958
1.74777
1.64576
1.52159
1.47036
1.52562
1.6271
1.6951
1.7192
1.729
1.72296
1.67742
1.607
1.54095
1.49051
1.45447
1.43576
1.45816
1.55136
1.71914
1.94085
2.19465
2.45586
2.69528
2.89336
3.04916
3.17862
3.25216
3.30372
3.33271
3.31806
3.24627
3.14148
3.04348
2.93641
2.81438
2.68217
2.57005
2.47724
2.40058
2.32496
2.25297
2.18716
2.13453
2.08712
2.04809
2.01507
1.99045
1.97314
1.96646
1.96604
1.97014
1.97231
1.97042
1.96357
1.94836
1.91918
1.87528
1.81985
1.75544
1.68374
1.60618
1.52389
1.43779
1.3485
1.25646
1.1623
1.0667
0.970124
0.872764
0.774636
0.675698
0.575928
0.475201
0.372676
0.269029
0.159663
0.061285
2.70059
2.69031
2.64804
2.78579
3.00634
3.34311
3.63951
3.76973
3.71905
3.66215
3.61051
3.55254
3.49555
3.40811
3.28734
3.15736
3.00778
2.83735
2.62696
2.42673
2.20939
1.96771
1.81938
1.73472
1.63155
1.50426
1.46194
1.5301
1.63423
1.69551
1.71821
1.73524
1.73503
1.69152
1.61812
1.54749
1.49349
1.45406
1.43171
1.45273
1.54562
1.71181
1.93006
2.17989
2.43814
2.67473
2.8712
3.02834
3.15952
3.23009
3.27689
3.30466
3.28913
3.21598
3.11205
3.01886
2.91443
2.79163
2.66109
2.55416
2.46636
2.3932
2.3191
2.24837
2.18449
2.13306
2.08547
2.04604
2.01385
1.99075
1.97507
1.96849
1.96732
1.97096
1.97371
1.97241
1.96563
1.95027
1.92042
1.87616
1.82077
1.75638
1.68439
1.6062
1.52298
1.43581
1.34542
1.2524
1.15737
1.061
0.963785
0.865945
0.767553
0.668544
0.568939
0.468679
0.366872
0.2643
0.155996
0.0600841
2.73532
2.67237
2.63365
2.77503
2.99191
3.32612
3.62837
3.7536
3.69946
3.64386
3.59495
3.5385
3.48221
3.39362
3.27146
3.14294
2.99526
2.82152
2.60627
2.40447
2.18463
1.94042
1.80031
1.72284
1.61696
1.4871
1.45574
1.53683
1.64081
1.69409
1.71769
1.74349
1.74729
1.7039
1.62683
1.5521
1.49564
1.45407
1.42875
1.44905
1.542
1.70649
1.92123
2.16727
2.42219
2.65494
2.84878
3.00725
3.14097
3.20856
3.24959
3.27513
3.25851
3.18436
3.08213
2.99415
2.89171
2.76792
2.64059
2.53967
2.45616
2.38565
2.31298
2.24415
2.18281
2.13278
2.08462
2.04439
2.01279
1.99155
1.97754
1.97043
1.96791
1.97132
1.97481
1.97378
1.96676
1.95105
1.92055
1.87651
1.82157
1.75742
1.68512
1.60614
1.52172
1.43314
1.34133
1.24708
1.15107
1.05392
0.956122
0.857904
0.759378
0.660477
0.561212
0.461579
0.360683
0.259333
0.152454
0.0585143
2.76224
2.65883
2.62117
2.76475
2.9779
3.30791
3.61521
3.73577
3.67921
3.62499
3.57813
3.52331
3.46774
3.37781
3.25473
3.1278
2.98163
2.80395
2.58365
2.37964
2.15624
1.91187
1.7823
1.71158
1.60136
1.4707
1.45273
1.54545
1.64622
1.69113
1.71875
1.75425
1.75965
1.71447
1.63364
1.55614
1.49948
1.45723
1.42949
1.44902
1.54186
1.70434
1.91517
2.15749
2.4089
2.63667
2.82636
2.98597
3.12296
3.18752
3.22158
3.24386
3.22582
3.15106
3.05144
2.96887
2.86748
2.74306
2.62074
2.52592
2.44573
2.37753
2.30683
2.24068
2.18245
2.13367
2.08472
2.04349
2.01234
1.99322
1.98051
1.9723
1.96831
1.97197
1.97586
1.97475
1.96769
1.95142
1.9207
1.87732
1.82319
1.75923
1.68633
1.6061
1.52003
1.42964
1.33611
1.24042
1.14334
1.04542
0.947113
0.848632
0.750104
0.651481
0.552744
0.453898
0.354092
0.254102
0.149042
0.0566013
2.78643
2.65075
2.61235
2.75611
2.96462
3.28921
3.60082
3.71626
3.65826
3.60547
3.56012
3.50702
3.45234
3.36091
3.2374
3.11194
2.96675
2.78515
2.56012
2.35453
2.12632
1.8841
1.76636
1.70127
1.58495
1.45577
1.45278
1.55469
1.64931
1.68645
1.72168
1.76571
1.7692
1.72067
1.63682
1.5578
1.50365
1.46169
1.43199
1.45067
1.54363
1.70417
1.91091
2.14989
2.39803
2.61967
2.80375
2.96426
3.105
3.16724
3.19356
3.2117
3.19205
3.11757
3.02157
2.94444
2.84289
2.7184
2.60216
2.51271
2.43481
2.36924
2.3011
2.23824
2.18316
2.13513
2.08548
2.0433
2.01262
1.99542
1.98324
1.9735
1.96862
1.97248
1.97594
1.97471
1.96788
1.95086
1.92043
1.87819
1.82482
1.76061
1.6865
1.60439
1.51623
1.42382
1.32849
1.23135
1.13326
1.03472
0.936119
0.837612
0.739344
0.641257
0.543327
0.445503
0.347012
0.248554
0.145693
0.0545223
2.8065
2.64469
2.60609
2.74937
2.95116
3.2707
3.58598
3.69576
3.63696
3.58579
3.5413
3.48984
3.43619
3.34319
3.21965
3.09566
2.95033
2.76416
2.53486
2.32834
2.09341
1.85703
1.75254
1.69139
1.56723
1.44321
1.45658
1.56407
1.64984
1.68076
1.72731
1.77728
1.77546
1.72279
1.6379
1.56015
1.51112
1.47022
1.43846
1.45629
1.54927
1.70739
1.90909
2.1451
2.39003
2.60426
2.78164
2.94234
3.08631
3.14698
3.16542
3.17855
3.15715
3.08396
2.99259
2.92048
2.8178
2.69383
2.58411
2.49918
2.4232
2.36089
2.29576
2.2366
2.18455
2.1367
2.08663
2.04385
2.01401
1.99811
1.98579
1.97491
1.96989
1.97321
1.97578
1.97462
1.96801
1.95064
1.92098
1.88004
1.82673
1.76125
1.685
1.60041
1.50985
1.41535
1.31833
1.21989
1.12097
1.02205
0.923409
0.825156
0.727414
0.630117
0.533221
0.436637
0.33963
0.242845
0.142387
0.0524604
2.82234
2.63989
2.60288
2.74478
2.93722
3.25325
3.57117
3.67403
3.61468
3.56547
3.52171
3.47218
3.41979
3.32469
3.20138
3.07895
2.93265
2.74109
2.51015
2.30304
2.05996
1.83194
1.74143
1.68241
1.54891
1.43315
1.46276
1.57236
1.64744
1.67506
1.73533
1.7863
1.77629
1.72102
1.63736
1.56384
1.51932
1.47994
1.44664
1.46433
1.5572
1.7122
1.90873
2.14248
2.38349
2.58918
2.75963
2.91979
3.06652
3.12647
3.13768
3.14557
3.12268
3.05149
2.96555
2.8976
2.79254
2.67007
2.56698
2.48547
2.4118
2.35279
2.29069
2.23532
2.18593
2.13784
2.08746
2.04474
2.01599
2.00056
1.9876
1.9769
1.97156
1.97364
1.97524
1.97388
1.96709
1.95001
1.92189
1.88155
1.82698
1.75903
1.67988
1.59254
1.49962
1.40328
1.30495
1.20563
1.10626
1.00731
0.908976
0.8113
0.71438
0.618124
0.522482
0.427336
0.331982
0.237001
0.139057
0.0504835
2.83393
2.63554
2.60221
2.74192
2.92262
3.23793
3.55608
3.65137
3.59175
3.54503
3.5017
3.45422
3.40353
3.30609
3.18286
3.06199
2.91297
2.71502
2.48568
2.2772
2.02527
1.80768
1.73192
1.67384
1.53108
1.42599
1.47112
1.57931
1.64272
1.67104
1.74493
1.792
1.77333
1.71867
1.63879
1.57159
1.52865
1.49175
1.45836
1.4762
1.56842
1.71903
1.91063
2.14304
2.37836
2.57491
2.73899
2.89709
3.04532
3.10504
3.10981
3.11262
3.08815
3.01903
2.93932
2.87446
2.76578
2.64675
2.55025
2.47099
2.40088
2.34471
2.28568
2.23427
2.18687
2.13808
2.08734
2.04572
2.01806
2.00242
1.98932
1.97994
1.97398
1.9743
1.97532
1.97339
1.96635
1.94995
1.92333
1.8821
1.82475
1.75332
1.67092
1.58092
1.486
1.38826
1.28908
1.18938
1.08996
0.991288
0.893513
0.796638
0.70072
0.605658
0.511392
0.41779
0.324189
0.231102
0.135683
0.0485921
2.84143
2.63201
2.60491
2.74011
2.90774
3.22505
3.54035
3.6277
3.56827
3.52419
3.48138
3.43624
3.38752
3.28759
3.16383
3.04467
2.89118
2.68877
2.46295
2.25202
1.99196
1.78558
1.72429
1.66637
1.51524
1.42153
1.48024
1.58419
1.63614
1.66985
1.75453
1.79323
1.76838
1.71655
1.64184
1.57951
1.53456
1.50062
1.46984
1.48792
1.57952
1.72525
1.91335
2.14636
2.37294
2.56171
2.71993
2.87455
3.02237
3.08257
3.08182
3.08
3.0542
2.98723
2.91426
2.85133
2.73803
2.62464
2.53405
2.45629
2.39082
2.33677
2.28052
2.23325
2.18684
2.1368
2.08566
2.04609
2.01916
2.00281
1.99098
1.98279
1.97634
1.97444
1.97491
1.97201
1.9649
1.94992
1.92336
1.87951
1.8182
1.74294
1.65747
1.56526
1.46891
1.37037
1.27086
1.17124
1.07218
0.974079
0.87708
0.781183
0.686418
0.592678
0.499897
0.407937
0.316187
0.225089
0.132232
0.0467816
2.84609
2.62961
2.61002
2.73871
2.89264
3.21425
3.52323
3.60375
3.54515
3.50338
3.46105
3.41852
3.37147
3.2701
3.14469
3.02665
2.86561
2.66254
2.44075
2.22598
1.95927
1.76501
1.71728
1.6587
1.50195
1.42092
1.48998
1.58786
1.62857
1.67162
1.76284
1.78994
1.76512
1.71464
1.64749
1.58784
1.53855
1.50648
1.48007
1.49977
1.59187
1.73235
1.91758
2.15356
2.36822
2.55062
2.70367
2.85249
2.99695
3.05786
3.05303
3.0469
3.0199
2.95509
2.8895
2.82729
2.7098
2.60337
2.51784
2.4417
2.38123
2.32824
2.27533
2.23216
2.18578
2.1339
2.08261
2.04555
2.01865
2.00206
1.99258
1.98535
1.97895
1.97459
1.97367
1.97002
1.96304
1.94971
1.92116
1.87312
1.80743
1.72857
1.64053
1.54671
1.44953
1.35069
1.25125
1.152
1.05352
0.956172
0.86008
0.765267
0.671736
0.579394
0.488166
0.397914
0.308065
0.219021
0.128727
0.0450764
2.8482
2.6294
2.61631
2.73724
2.87812
3.20479
3.50535
3.57933
3.52188
3.48213
3.44076
3.40139
3.35535
3.25341
3.12522
3.00759
2.83819
2.63794
2.41943
2.20044
1.92962
1.74703
1.71097
1.65118
1.49153
1.4243
1.49949
1.59028
1.61948
1.67635
1.76841
1.78252
1.76391
1.71306
1.65246
1.59258
1.53818
1.50504
1.48331
1.5073
1.60259
1.73858
1.92242
2.16097
2.3625
2.53911
2.68853
2.83062
2.96881
3.03056
3.02364
3.01413
2.98621
2.92379
2.86566
2.80271
2.68256
2.58339
2.50162
2.42756
2.37145
2.31923
2.27039
2.23056
2.18316
2.12904
2.078
2.04319
2.01559
2.00033
1.99276
1.9867
1.98066
1.97413
1.96996
1.96655
1.96081
1.9474
1.91508
1.86206
1.79211
1.71023
1.62033
1.52554
1.42801
1.32926
1.23018
1.13151
1.03379
0.937372
0.84235
0.748758
0.656579
0.565733
0.476153
0.387684
0.299807
0.212895
0.125172
0.0435047
2.84764
2.63126
2.62207
2.73585
2.86546
3.19617
3.48626
3.55493
3.49897
3.46087
3.42085
3.38512
3.33892
3.23753
3.10588
2.98647
2.80944
2.61431
2.39799
2.1742
1.9016
1.72982
1.70377
1.64259
1.48317
1.43297
1.51043
1.59215
1.61125
1.68426
1.7705
1.77523
1.76402
1.71508
1.6576
1.5955
1.53609
1.49927
1.48207
1.51202
1.61314
1.74559
1.92937
2.16767
2.35498
2.52558
2.67397
2.80886
2.93815
3.00138
2.99376
2.98155
2.95257
2.8926
2.842
2.77697
2.6563
2.56431
2.48504
2.41374
2.36009
2.3105
2.26604
2.2282
2.17868
2.12245
2.07206
2.03881
2.01064
1.99782
1.99189
1.98737
1.98097
1.97278
1.96468
1.9621
1.95889
1.94291
1.90523
1.84713
1.77348
1.6893
1.59815
1.50285
1.40527
1.3068
1.20823
1.11028
1.01343
0.918026
0.824172
0.731913
0.641177
0.551905
0.46403
0.377396
0.291528
0.20681
0.121636
0.042094
2.84516
2.63519
2.62749
2.73479
2.85536
3.18735
3.46689
3.5306
3.47563
3.4392
3.40142
3.36951
3.3222
3.22137
3.08577
2.96294
2.7808
2.59095
2.37716
2.14885
1.87684
1.71466
1.69749
1.63356
1.47686
1.44551
1.52233
1.59217
1.60738
1.69371
1.76852
1.77132
1.76262
1.7177
1.66045
1.59349
1.52842
1.48815
1.47514
1.51126
1.62019
1.75109
1.93665
2.17155
2.34271
2.50908
2.66034
2.78632
2.90514
2.97157
2.9639
2.94986
2.91996
2.86286
2.81882
2.75123
2.63155
2.5461
2.4684
2.40016
2.34749
2.30202
2.26186
2.22443
2.17185
2.11404
2.06438
2.0317
2.00414
1.99362
1.98971
1.98711
1.97832
1.96811
1.9584
1.95697
1.95463
1.93433
1.89086
1.82831
1.75178
1.66597
1.57405
1.47854
1.38113
1.28312
1.18523
1.08813
0.992266
0.897995
0.805425
0.71462
0.625453
0.537862
0.451771
0.367029
0.283224
0.200758
0.118134
0.0407845
2.84107
2.64024
2.63224
2.73409
2.84813
3.1779
3.44716
3.50687
3.45256
3.4176
3.38246
3.35411
3.30552
3.20367
3.06443
2.93657
2.75336
2.5673
2.35592
2.12234
1.85251
1.70102
1.69199
1.62313
1.47347
1.46125
1.53608
1.59156
1.60915
1.70358
1.7631
1.7701
1.76023
1.71778
1.66241
1.58909
1.51821
1.47599
1.46657
1.509
1.62407
1.75483
1.94467
2.1757
2.32868
2.49264
2.647
2.76275
2.87041
2.94193
2.93315
2.91814
2.88785
2.8342
2.79522
2.72509
2.60807
2.52828
2.45223
2.38645
2.33568
2.29471
2.25784
2.219
2.16289
2.10411
2.05508
2.02205
1.99689
1.9885
1.98616
1.98528
1.97125
1.95912
1.95138
1.95278
1.94828
1.92233
1.87335
1.80706
1.72827
1.64127
1.54886
1.45334
1.35624
1.2588
1.16169
1.06552
0.970715
0.877643
0.786412
0.697108
0.609577
0.523743
0.439478
0.356661
0.274958
0.194766
0.11469
0.0394668
2.83852
2.64676
2.63711
2.73366
2.84355
3.16849
3.42768
3.48288
3.4294
3.3957
3.36347
3.33813
3.28895
3.18347
3.04113
2.90707
2.72653
2.54332
2.33477
2.09555
1.83005
1.69066
1.68782
1.61167
1.47431
1.47757
1.54974
1.5908
1.61426
1.71199
1.75578
1.76814
1.75687
1.71859
1.66052
1.57906
1.5028
1.46009
1.45426
1.50432
1.62222
1.75725
1.95761
2.17298
2.31117
2.47713
2.63118
2.73673
2.83515
2.9127
2.90152
2.88597
2.85687
2.80744
2.77199
2.6992
2.58585
2.51115
2.43638
2.37239
2.32573
2.28878
2.25348
2.21158
2.15181
2.09253
2.04377
2.00999
1.98806
1.98219
1.98118
1.97903
1.95697
1.94451
1.9419
1.94573
1.93706
1.90576
1.85244
1.78326
1.70279
1.61498
1.52234
1.427
1.33037
1.23365
1.13743
1.04231
0.94866
0.856872
0.767054
0.679305
0.593482
0.509473
0.427096
0.34626
0.266708
0.188788
0.111289
0.038071
2.83832
2.65471
2.64193
2.73291
2.84165
3.1599
3.40815
3.4584
3.40759
3.37432
3.34453
3.3214
3.27191
3.16145
3.01764
2.87741
2.69902
2.51922
2.31329
2.0658
1.80775
1.68347
1.68398
1.60029
1.47852
1.49506
1.56336
1.59166
1.62225
1.71951
1.74862
1.76673
1.75351
1.72051
1.6569
1.56688
1.48608
1.44415
1.43979
1.49861
1.61852
1.75923
1.97785
2.16253
2.29068
2.46352
2.61279
2.70625
2.80111
2.88576
2.8713
2.85267
2.82598
2.78133
2.74894
2.67294
2.56463
2.49489
2.42072
2.3588
2.31752
2.28358
2.24821
2.202
2.13897
2.0797
2.03098
1.9965
1.97762
1.97464
1.9746
1.96669
1.93748
1.92595
1.92945
1.9339
1.92167
1.8858
1.82907
1.75769
1.67601
1.58771
1.49507
1.4001
1.30406
1.20814
1.1129
1.0189
0.926472
0.836014
0.747641
0.661473
0.577381
0.495214
0.414759
0.335935
0.258537
0.182862
0.107926
0.0366127
2.84019
2.66341
2.64705
2.73251
2.84155
3.15161
3.38887
3.43391
3.38646
3.35335
3.32525
3.30431
3.25302
3.13781
2.99186
2.84842
2.67331
2.49554
2.29253
2.03555
1.78785
1.67947
1.67975
1.59072
1.48419
1.51249
1.57469
1.59324
1.63219
1.72578
1.74485
1.76496
1.74989
1.71767
1.64846
1.55042
1.46635
1.42551
1.42109
1.49062
1.61255
1.76127
1.99124
2.14814
2.2725
2.4511
2.5899
2.67276
2.76814
2.86075
2.84443
2.82091
2.79597
2.75593
2.72618
2.64684
2.54521
2.47931
2.40584
2.34639
2.31003
2.27813
2.24108
2.19042
2.12482
2.06573
2.01702
1.98153
1.96479
1.96484
1.96421
1.94836
1.91857
1.90758
1.91529
1.9194
1.90324
1.86286
1.80321
1.73017
1.64769
1.5592
1.46679
1.37235
1.27706
1.18207
1.08792
0.995135
0.904021
0.814969
0.728106
0.643566
0.56123
0.480928
0.40243
0.325638
0.2504
0.176967
0.104558
0.0351547
2.8433
2.67287
2.65284
2.73306
2.843
3.1444
3.36962
3.41081
3.36559
3.33312
3.30589
3.28696
3.23281
3.11379
2.96244
2.82048
2.65001
2.47282
2.27211
2.00541
1.76971
1.67771
1.67395
1.58252
1.49241
1.5296
1.58493
1.59674
1.64413
1.73353
1.74768
1.76335
1.74843
1.71435
1.6388
1.53258
1.44642
1.40629
1.40026
1.48142
1.60863
1.76675
1.99113
2.13122
2.26534
2.44067
2.56299
2.64158
2.7385
2.83571
2.81933
2.79298
2.76792
2.73132
2.70266
2.62132
2.52802
2.46405
2.39246
2.33562
2.30249
2.27207
2.23211
2.17712
2.10987
2.05048
2.00323
1.96523
1.94825
1.9492
1.94856
1.92451
1.90071
1.88949
1.90108
1.90302
1.88206
1.83782
1.7758
1.7015
1.61854
1.53005
1.43802
1.34423
1.24979
1.15583
1.06283
0.971342
0.881601
0.79401
0.708692
0.625798
0.545213
0.466776
0.390233
0.315476
0.242374
0.171166
0.101196
0.0337488
2.847
2.6829
2.65889
2.73515
2.84566
3.13798
3.35063
3.38818
3.34413
3.31293
3.28527
3.26832
3.21111
3.08964
2.93099
2.79562
2.62713
2.45033
2.25229
1.97782
1.75509
1.67719
1.66774
1.5751
1.50195
1.54424
1.59259
1.60321
1.65682
1.74127
1.75266
1.76038
1.74645
1.7088
1.6251
1.51051
1.42394
1.38258
1.3763
1.47063
1.60507
1.77332
1.97928
2.11048
2.26451
2.42916
2.53557
2.61673
2.71112
2.8059
2.79638
2.76913
2.74276
2.70921
2.67879
2.59779
2.51218
2.44888
2.38023
2.32659
2.29488
2.26473
2.22138
2.1622
2.09431
2.03388
1.98853
1.94671
1.92782
1.93114
1.92511
1.89302
1.87413
1.86561
1.88008
1.88056
1.85704
1.81029
1.74661
1.67149
1.58832
1.50006
1.40855
1.31552
1.22205
1.1292
1.03745
0.947351
0.859081
0.773034
0.689329
0.608118
0.529306
0.452738
0.378156
0.305432
0.234449
0.165445
0.0978338
0.0323949
2.85198
2.69438
2.66531
2.73986
2.84946
3.13277
3.33139
3.36647
3.3226
3.29217
3.26361
3.2475
3.18968
3.06795
2.9043
2.77489
2.60444
2.42801
2.23279
1.95104
1.74484
1.67724
1.662
1.56892
1.51315
1.55843
1.60024
1.6147
1.67296
1.74852
1.75906
1.75775
1.7462
1.70483
1.60935
1.4873
1.40109
1.35587
1.35331
1.45963
1.6001
1.77699
1.96014
2.09004
2.26637
2.41881
2.51232
2.5972
2.68531
2.77274
2.77554
2.74833
2.71972
2.68948
2.65513
2.57675
2.49743
2.43363
2.36864
2.31917
2.28751
2.2557
2.20903
2.14608
2.07774
2.01748
1.97044
1.92542
1.90612
1.91293
1.89571
1.86017
1.84332
1.83935
1.85546
1.85525
1.82964
1.78119
1.7164
1.64078
1.55762
1.46974
1.37885
1.28667
1.19421
1.10254
1.01209
0.923425
0.836678
0.752234
0.670183
0.590682
0.513643
0.43894
0.366304
0.295602
0.2267
0.159856
0.0945219
0.0310715
2.85783
2.70644
2.67206
2.74551
2.85356
3.12788
3.31288
3.34438
3.3007
3.26957
3.24034
3.22439
3.16647
3.04647
2.88363
2.75656
2.58282
2.40692
2.21442
1.92756
1.73971
1.67673
1.65804
1.56425
1.52472
1.57162
1.60816
1.62819
1.6886
1.75282
1.76467
1.75481
1.74538
1.69978
1.58971
1.46157
1.37354
1.32602
1.33261
1.44911
1.58912
1.7712
1.93667
2.07354
2.26902
2.40872
2.49012
2.5766
2.66404
2.74536
2.75591
2.729
2.69886
2.67116
2.63334
2.55767
2.4833
2.41853
2.35698
2.31198
2.2797
2.24478
2.19522
2.12968
2.05978
2.00076
1.94802
1.90043
1.88223
1.89273
1.86703
1.82887
1.81133
1.81484
1.83067
1.82824
1.80013
1.75044
1.68499
1.6092
1.52624
1.43889
1.34873
1.25748
1.16612
1.07569
0.98661
0.899431
0.81428
0.731507
0.651172
0.573425
0.498179
0.425341
0.354649
0.285964
0.219126
0.154409
0.0912973
0.0297787
2.86413
2.71949
2.67979
2.75291
2.85859
3.12348
3.29509
3.32256
3.27871
3.24392
3.21652
3.19995
3.14192
3.02597
2.86842
2.73714
2.56266
2.38694
2.19568
1.9087
1.73852
1.67752
1.65612
1.56176
1.5381
1.58507
1.61882
1.64427
1.70518
1.75421
1.77091
1.75428
1.74569
1.69611
1.57093
1.43605
1.3438
1.29701
1.31562
1.43982
1.57303
1.75567
1.91513
2.06773
2.27145
2.39852
2.46967
2.55565
2.65108
2.72456
2.73678
2.70924
2.6796
2.65313
2.61433
2.54035
2.47012
2.40357
2.344
2.3039
2.27078
2.23227
2.18002
2.11316
2.04145
1.98239
1.92214
1.87322
1.85805
1.86597
1.84068
1.80151
1.78023
1.79289
1.80688
1.80029
1.76969
1.71898
1.65312
1.57733
1.4947
1.40796
1.31859
1.22833
1.13811
1.04896
0.96126
0.875592
0.792058
0.710988
0.632398
0.556433
0.482988
0.412015
0.343252
0.276577
0.211779
0.149154
0.0882004
0.0285667
2.87035
2.73234
2.68821
2.76067
2.86407
3.1198
3.27679
3.30036
3.25578
3.21559
3.19217
3.17514
3.11543
3.00377
2.85371
2.71353
2.54088
2.36809
2.17877
1.89449
1.73904
1.68094
1.65668
1.5616
1.55184
1.59854
1.63053
1.66005
1.72149
1.75457
1.77636
1.75304
1.74452
1.69075
1.55107
1.40742
1.31177
1.26973
1.30041
1.42774
1.55277
1.73271
1.89594
2.06894
2.26648
2.38642
2.45487
2.53858
2.64437
2.70753
2.71837
2.68812
2.66085
2.63576
2.59699
2.52431
2.45774
2.38972
2.33086
2.29552
2.26054
2.21889
2.16374
2.0958
2.02345
1.96008
1.89312
1.84489
1.83306
1.83313
1.8063
1.76967
1.74901
1.76743
1.77873
1.77023
1.73814
1.68674
1.62067
1.54505
1.46284
1.3768
1.28828
1.19907
1.11005
1.02222
0.935945
0.851824
0.769945
0.690615
0.613814
0.539662
0.468037
0.398932
0.332087
0.267413
0.20464
0.144089
0.0852202
0.027511
2.87594
2.74581
2.69775
2.76971
2.87072
3.11701
3.25906
3.27788
3.23193
3.18636
3.16993
3.15252
3.09048
2.98024
2.8379
2.68661
2.51729
2.34995
2.16306
1.8837
1.74025
1.68691
1.6593
1.56482
1.567
1.6138
1.6438
1.67773
1.74006
1.75547
1.78229
1.75467
1.74503
1.68737
1.53323
1.3792
1.28102
1.24629
1.28747
1.4114
1.52961
1.7067
1.87707
2.07029
2.25693
2.37393
2.45012
2.52887
2.64041
2.6947
2.70044
2.666
2.64256
2.62014
2.58043
2.50899
2.44615
2.37685
2.31816
2.28716
2.24958
2.20555
2.147
2.07732
2.00506
1.93381
1.86015
1.81498
1.80726
1.79589
1.76183
1.72961
1.71406
1.7355
1.74755
1.73918
1.70623
1.65433
1.58815
1.51278
1.43109
1.34578
1.25818
1.17003
1.08222
0.995727
0.910888
0.828318
0.748094
0.670518
0.595524
0.523203
0.45341
0.386166
0.321222
0.258525
0.197745
0.139235
0.0823311
0.0266529
2.88086
2.75913
2.70809
2.77876
2.87801
3.11463
3.24183
3.25482
3.20647
3.15718
3.14954
3.13072
3.06609
2.95452
2.81828
2.66085
2.49716
2.33198
2.1453
1.8749
1.74208
1.6946
1.66358
1.57124
1.58258
1.62922
1.65659
1.69387
1.75839
1.75771
1.78669
1.7572
1.74572
1.68337
1.51511
1.3502
1.25125
1.2256
1.27627
1.3914
1.50399