/*--------------------------------*- C++ -*----------------------------------*\
| =========                 |                                                 |
| \\      /  F ield         | OpenFOAM: The Open Source CFD Toolbox           |
|  \\    /   O peration     | Version:  4.1                                   |
|   \\  /    A nd           | Web:      www.OpenFOAM.org                      |
|    \\/     M anipulation  |                                                 |
\*---------------------------------------------------------------------------*/
FoamFile
{
    version     2.0;
    format      ascii;
    class       surfaceScalarField;
    location    "13";
    object      phi;
}
// * * * * * * * * * * * * * * * * * * * * * * * * * * * * * * * * * * * * * //

dimensions      [0 3 -1 0 0 0 0];

internalField   nonuniform List<scalar> 
52920
(
1678.57
-72.2373
1743.65
-63.6561
1805.5
-60.3915
1864.6
-56.9544
1924.26
-58.5932
1993.32
-64.655
2063.49
-73.2012
2144.33
-77.2206
2221.91
-79.7748
2303.61
-81.7578
2382.95
-82.4729
2462.91
-81.7584
2541.15
-80.4029
2617.48
-79.2489
2693.32
-78.3633
2768.89
-78.3467
2845.36
-79.8878
2927.21
-83.606
3012.94
-87.5279
3099.63
-89.1709
3186.48
-87.6088
3267.18
-83.2569
3344.21
-77.3377
3414.36
-71.6012
3482.15
-67.466
3545.98
-64.0046
3607.84
-60.7938
3667.39
-58.7729
3727.52
-58.6134
3789.68
-60.1485
3855.08
-63.008
3924.16
-67.0457
3998.13
-71.8242
4077.47
-76.5652
4160.48
-80.3199
4246.08
-83.0208
4333.24
-84.7528
4421.23
-85.7363
4509.46
-86.2488
4598.16
-86.5515
4686.57
-86.7851
4775.53
-87.1653
4864.68
-87.8824
4954.83
-89.0897
5046.12
-90.86
5140.74
-93.2908
5240.49
-96.1074
5336.02
-98.0664
5437.68
-100.364
5536.92
-101.914
5641.25
-103.935
5743.61
-105.108
5848.96
-105.628
5951.49
-104.375
6051.92
-101.835
6149.06
-98.3598
6241.9
-94.6898
6332.49
-91.4889
6419.8
-88.789
6506.15
-86.8363
6590.18
-85.3299
6674.38
-84.4668
6757.19
-83.85
6840.73
-83.593
6923.15
-83.2796
7006.29
-83.0686
7088.32
-82.6604
7170.85
-82.3345
7252.22
-81.8789
7333.97
-81.5473
7414.8
-81.1444
7495.98
-80.9256
7576.62
-80.8205
7657.88
-81.011
7739.25
-81.4029
7821.56
-82.0568
7904.53
-82.9118
7988.77
-83.9831
8074.03
-85.1411
8160.61
-86.3283
8248.23
-87.4675
8337.01
-88.5533
8426.72
-89.5337
8517.33
-90.4062
8608.65
-91.1546
8700.6
-91.7782
8793.03
-92.2809
8885.82
-92.6553
8978.88
-92.9208
9072.05
-93.0703
9165.29
-93.1303
9258.45
-93.0956
9351.54
-92.9972
9444.4
-92.8261
9537.1
-92.6364
9629.45
-92.3356
9721.79
-92.3007
9813.07
-91.2824
9906.07
-92.9759
-85.9474
1804.08
-153.132
1876.51
-135.464
1944.63
-127.676
2009.95
-120.343
2077.21
-125.261
2157.37
-140.205
2239.09
-157.718
2334
-168.089
2424.44
-172.805
2519.95
-177.657
2612.72
-178.652
2706.49
-177.682
2798.63
-175.041
2889
-173.1
2979.17
-171.635
3069.3
-171.885
3160.88
-175.458
3258.5
-183.261
3360.15
-191.06
3462.31
-194.004
3564.16
-190.389
3659.33
-181.061
3750.81
-169.322
3835.74
-158.118
3919.19
-150.733
3999.61
-144.96
4079.25
-139.611
4158.1
-136.85
4239.27
-137.993
4323.94
-142.265
4412.8
-148.805
4505.46
-156.899
4602.14
-165.516
4702.38
-173.13
4803.94
-178.297
4905.46
-181.243
5005.84
-182.224
5104.39
-181.741
5200.65
-180.367
5295.03
-178.741
5387.04
-177.192
5477.64
-176.104
5566.63
-175.795
5654.86
-176.453
5742.57
-178.325
5831.85
-181.278
5924.52
-184.83
6011.6
-187.518
6103.02
-190.47
6190.79
-192.59
6282.7
-195.656
6372.48
-197.89
6465.41
-199.143
6556.08
-197.264
6645.34
-192.85
6732.02
-186.675
6815.05
-179.873
6896.23
-173.833
6974.38
-168.705
7051.55
-164.716
7126.27
-161.627
7200.77
-159.432
7273.45
-157.795
7346.27
-156.607
7417.43
-155.488
7488.67
-154.322
7558.12
-152.921
7627.32
-151.414
7694.56
-149.781
7761.31
-148.149
7826.16
-146.452
7890.3
-144.837
7952.64
-143.402
8014.17
-142.257
8074.19
-141.439
8133.4
-140.906
8191.35
-140.705
8248.61
-140.833
8304.93
-141.187
8360.67
-141.633
8415.63
-142.117
8470.08
-142.616
8523.94
-143.085
8577.38
-143.505
8630.37
-143.862
8683
-144.154
8735.33
-144.364
8787.36
-144.492
8839.16
-144.527
8890.7
-144.479
8942.07
-144.343
8993.19
-144.134
9044.16
-143.858
9094.92
-143.534
9145.55
-143.184
9196.02
-142.78
9246.3
-142.534
9297.45
-142.424
9345.32
-140.825
-137.232
1948.74
-241.797
2032.79
-217.75
2114.37
-206.976
2194.33
-198.149
2276.62
-206.38
2370.7
-229.761
2466.26
-256.448
2573.12
-271.568
2675.44
-277.252
2781.92
-284.029
2885.66
-285.185
2990.08
-283.511
3092.81
-279.511
3193.74
-276.351
3294.1
-273.949
3393.99
-273.957
3494.63
-278.841
3600.01
-290.028
3708.2
-300.7
3816.15
-303.966
3923.25
-297.946
4024
-283.932
4121.16
-266.559
4212.13
-250.255
4301.34
-239.494
4387.13
-230.693
4470.92
-222.27
4551.94
-217.099
4631.99
-216.715
4711.05
-219.668
4788.65
-224.436
4863.55
-230.16
4935.53
-235.754
5004.32
-239.584
5068.22
-239.897
5126.45
-237.155
5178.42
-231.957
5223.99
-225.114
5263.3
-217.7
5297.32
-210.555
5325.96
-204.121
5350.34
-198.537
5370.32
-194.365
5386.9
-191.898
5400.51
-191.501
5413.51
-192.635
5427.79
-194.279
5433.26
-196.747
5441.28
-196.848
5444.14
-199.19
5452.77
-203.561
5462.08
-211.034
5479.52
-216.767
5499.33
-219.541
5522.59
-217.933
5547.86
-213.425
5573.49
-208.025
5601.08
-202.532
5628.68
-198.336
5658.2
-194.815
5687.4
-192.631
5718.49
-190.79
5749.15
-189.928
5781.54
-188.992
5813.27
-188.448
5846.28
-187.15
5878.04
-185.624
5910.16
-183.169
5940.24
-180.608
5969.88
-177.395
5997.06
-174.093
6022.89
-170.215
6045.62
-166.367
6066.04
-162.236
6082.88
-158.318
6096.64
-154.219
6106.39
-150.355
6112.61
-146.622
6114.85
-143.229
6113.56
-139.92
6108.6
-136.904
6100.52
-134.148
6089.49
-131.775
6076.08
-129.737
6060.62
-128.111
6043.61
-126.843
6025.47
-125.938
6006.56
-125.343
5987.31
-125.025
5967.99
-124.971
5948.99
-125.13
5930.51
-125.528
5912.92
-126.097
5896.39
-126.927
5881.22
-127.884
5867.74
-129.265
5855.34
-130.049
5847.28
-134.35
5836.58
-130.072
-138.254
2094.43
-335.922
2188.24
-310.931
2279.88
-297.595
2369.32
-286.171
2459.73
-296.586
2559.45
-325.481
2659.2
-358.646
2767.71
-376.747
2870.73
-383.05
2976.52
-390.317
3078.7
-390.632
3180.29
-387.146
3278.89
-380.624
3374.19
-374.867
3467.1
-369.87
3557.48
-367.543
3646.1
-371.293
3736.91
-383.029
3828.89
-394.745
3920.06
-398.004
4010.42
-389.565
4094.81
-371.151
4175.46
-347.957
4248.89
-325.465
4318.95
-309.457
4383.75
-296.071
4443.76
-281.32
4496.48
-268.762
4542.24
-260.214
4580.03
-254.332
4608.8
-249.389
4627.06
-244.717
4635.02
-239.641
4633.53
-233.028
4621.95
-223.161
4600.36
-210.523
4568.48
-195.428
4526.29
-178.69
4474.18
-161.894
4413.75
-146.337
4345.16
-132.669
4269.85
-120.301
4187.33
-109.99
4098.83
-102.07
4005.26
-97.8032
3910.66
-95.489
3818.33
-93.3716
3713.5
-97.369
3614.1
-94.7307
3509.23
-101.129
3417.47
-111.615
3332.2
-132.891
3266.21
-152.23
3210.76
-169.216
3167.57
-178.861
3134.46
-184.056
3108.83
-187.401
3093.15
-189.651
3084.08
-193.368
3084.28
-196.814
3089.79
-201.745
3103.54
-205.755
3121.34
-210.602
3145.87
-214.122
3172.88
-217.783
3204.83
-219.29
3237.43
-219.979
3272.69
-218.298
3306.66
-215.993
3341.48
-211.976
3373.85
-207.402
3405.3
-201.219
3433.02
-194.517
3458.17
-186.748
3478.8
-178.864
3495.59
-170.153
3507.01
-161.276
3513.66
-152.244
3514.71
-143.528
3510.72
-134.851
3501.32
-126.695
3487.36
-119.2
3469.03
-112.673
3447.25
-107.12
3422.53
-102.692
3395.69
-99.3367
3367.38
-97.0268
3338.23
-95.6897
3308.93
-95.2309
3279.96
-95.6252
3252.01
-96.7702
3225.44
-98.6865
3200.92
-101.251
3178.74
-104.554
3159.49
-108.399
3143.53
-113.191
3131.03
-117.381
3122.29
-125.568
3120.77
-128.462
-140.042
2217.5
-433.785
2313.75
-405.118
2404.93
-386.388
2490.99
-370.078
2575.11
-379.429
2665.24
-411.298
2752.9
-449.152
2846.37
-467.313
2932.46
-471.352
3019.41
-477.213
3100.76
-474.873
3179.15
-467.118
3251.83
-455.269
3318.13
-443.632
3378.84
-432.707
3433.76
-424.811
3483.25
-423.758
3531.99
-433.418
3581.1
-445.586
3630.84
-450.206
3682.68
-442.076
3731.98
-423.039
3780.86
-397.06
3824.42
-370.504
3866.51
-351.085
3905.66
-335.176
3941.66
-315.931
3969.96
-296.055
3989.61
-278.157
3999.44
-261.981
3998.68
-245.983
3985.94
-229.695
3961.87
-213.071
3928.33
-195.97
3885.31
-176.572
3833.29
-154.721
3771.54
-129.821
3698.96
-102.16
3614.97
-74.2052
3521.16
-48.3488
3417.5
-25.6047
3306.11
-4.99187
3186.31
12.793
3059.98
26.5964
2929.18
34.0595
2801.82
35.9964
2685.14
34.0952
2555.34
24.1746
2442.49
21.1685
2325.83
7.30247
2231.41
-16.1354
2143.57
-53.3946
2080.04
-89.3763
2025.59
-120.12
1982.83
-140.108
1948.66
-153.154
1919.74
-163.774
1900.85
-173.248
1887.69
-184.383
1884.93
-195.418
1887.33
-207.748
1899.8
-218.933
1916.74
-230.376
1942.36
-239.881
1970.86
-248.609
2005.95
-254.161
2041.83
-257.601
2081.66
-257.554
2120.23
-255.906
2160.81
-251.883
2199.15
-246.511
2237.66
-238.902
2272.98
-230.176
2307.16
-220.108
2338.04
-209.727
2366.93
-198.217
2392.18
-186.263
2414.88
-174.126
2434.01
-162.243
2450.17
-150.22
2462.58
-138.629
2471.97
-127.861
2478.05
-118.239
2481.46
-109.869
2482.26
-102.96
2480.96
-97.4774
2477.87
-93.4295
2473.35
-90.7198
2467.87
-89.3045
2461.73
-89.1448
2455.54
-90.1963
2449.57
-92.4752
2444.53
-95.8992
2440.67
-100.536
2438.73
-106.227
2438.93
-113.316
2442.29
-120.585
2447.52
-130.764
2459.85
-140.717
-154.093
2288
-520.355
2371.47
-487.541
2447.28
-460.559
2515.88
-437.142
2579.87
-443.22
2646.2
-473.038
2706.01
-511.554
2767.14
-525.233
2816.74
-524.631
2863.64
-524.792
2901.15
-516.546
2931.98
-500.57
2953.32
-480.123
2964.71
-458.966
2967.87
-439.84
2963.49
-424.535
2951.85
-417.105
2939.09
-424.025
2929.84
-439.666
2928.13
-453.04
2937.99
-454.522
2955.51
-445.096
2983.33
-426.635
3014.02
-404.174
3050.69
-388.094
3091.82
-377.333
3136.63
-359.508
3177.75
-335.497
3212.38
-309.319
3239.28
-284.127
3258.49
-259.297
3268.72
-234.065
3270.82
-208.628
3267.02
-184.033
3256.71
-157.846
3239.43
-129.087
3213.51
-96.0912
3177.18
-58.6547
3129.1
-19.8239
3070.51
16.5341
3001.08
48.6973
2923.3
77.5431
2836.75
102.412
2743.45
121.806
2645.09
132.678
2549.57
135.576
2463.74
132.46
2358.99
121.112
2266.95
117.195
2164.78
99.9736
2081.02
67.3798
1998.56
18.6624
1936.58
-29.8323
1879.62
-70.6775
1831.49
-98.2345
1789.63
-117.015
1750.82
-132.581
1720.56
-147.575
1694.5
-164.655
1678.12
-182.221
1666.07
-201.263
1664.1
-219.232
1666.42
-237.122
1677.99
-252.751
1692.66
-266.83
1714.74
-276.821
1737.87
-283.405
1765.73
-285.433
1792.64
-284.939
1822.52
-281.564
1850.73
-276.101
1880.09
-267.703
1906.9
-257.565
1933.62
-245.888
1958.05
-233.909
1981.74
-220.549
2002.83
-206.444
2022.63
-192.279
2040.02
-178.388
2055.54
-164.041
2068.11
-149.92
2078.43
-136.641
2085.97
-124.589
2091.29
-113.909
2094.26
-104.874
2095.3
-97.5026
2094.61
-91.8064
2092.46
-87.7635
2089.31
-85.3471
2085.42
-84.6085
2081.44
-85.5303
2077.66
-88.1968
2074.86
-92.5433
2073.34
-98.643
2073.87
-106.352
2076.71
-115.925
2082.89
-126.505
2091.53
-139.294
2105.98
-155.035
-172.274
2265.54
-593.639
2333.83
-553.663
2391.06
-514.78
2436.57
-480.389
2471.17
-476.365
2500.4
-497.225
2514.71
-529.286
2522.6
-529.69
2511.89
-516.819
2493.68
-506.385
2461.72
-488.421
2420.5
-461.405
2368.48
-430.726
2306.63
-400.517
2239.2
-375.312
2169.19
-357.854
2096.81
-349.017
2029.5
-358.953
1975.49
-388.041
1942.94
-423.951
1937.45
-449.763
1952.9
-464.061
1991.15
-464.97
2040.77
-455.692
2102.4
-448.906
2172.36
-447.044
2248.97
-434.106
2322.7
-407.817
2389.43
-373.775
2448.8
-340.613
2503.18
-310.233
2550.8
-278.863
2590.57
-245.397
2624.65
-213.834
2652.98
-182.021
2675.67
-147.472
2690.56
-106.752
2694.93
-58.8142
2686.75
-7.7719
2666.51
41.14
2633.06
85.7125
2588.12
126.64
2530.7
163.083
2462.36
192.71
2384.61
211.8
2306.55
218.665
2237.51
214.037
2147.3
201.218
2064.88
203.196
1965.01
190.506
1881.12
152.527
1797.73
92.7606
1735.46
31.8902
1678.39
-19.4125
1630.53
-54.6866
1589.31
-79.2258
1551.03
-100.174
1520.81
-120.044
1493.59
-142.106
1475.09
-165.188
1459.83
-190.076
1453.91
-214.047
1451.29
-237.713
1457.44
-259.019
1466.17
-278.25
1482.26
-292.635
1499.04
-302.263
1520.56
-306.221
1540.9
-306.872
1564.64
-304.408
1586.87
-299.191
1610.65
-290.396
1631.85
-279.102
1653.23
-266.216
1672.76
-253.391
1692.27
-239.025
1709.51
-223.364
1725.93
-207.706
1740.49
-192.486
1753.77
-176.388
1764.48
-160.108
1773.48
-144.763
1780.21
-130.714
1785.26
-118.152
1788.44
-107.42
1790.14
-98.5185
1790.48
-91.5268
1789.71
-86.4389
1788.26
-83.3343
1786.38
-82.3079
1784.76
-83.4347
1783.71
-86.8304
1784.01
-92.4737
1785.98
-100.407
1790.37
-110.471
1797.36
-122.811
1807.82
-136.782
1821.13
-152.558
1839.45
-173.27
-195.106
2187.23
-648.471
2234.57
-599.073
2263.25
-540.6
2271.47
-486.334
2259.35
-463.608
2232.74
-464.144
2182.09
-482.043
2118.26
-461.873
2029.53
-434.007
1931.5
-409.553
1818.85
-382.878
1700.27
-347.685
1577.39
-314.512
1454.02
-284.566
1338.03
-266.842
1235.08
-262.623
1144.94
-268.17
1075.16
-295.505
1033.41
-352.626
1026.65
-425.543
1056.2
-484.453
1107.54
-523.305
1180.36
-541.331
1261.59
-542.017
1350.92
-539.397
1442.14
-540.136
1537.2
-527.655
1630.52
-498.739
1718.08
-456.395
1797.96
-413.803
1873.38
-377.419
1944.4
-341.82
2010.21
-302.386
2072.15
-264.936
2129.61
-228.485
2182.6
-189.577
2228.12
-142.059
2262.16
-83.4477
2282.36
-19.7319
2290.26
41.298
2284.56
97.7985
2265.66
151.624
2231.39
201.435
2182.86
243.706
2121.38
273.89
2055.03
289.658
1993.11
289.784
1909.23
275.808
1834.64
283.554
1737.17
277.736
1655.22
234.147
1574.27
161.643
1516.44
86.803
1464.59
23.7709
1422.53
-20.0706
1387.29
-50.7922
1354.57
-76.5706
1329.11
-100.297
1305.02
-125.745
1288.28
-152.553
1273.29
-181.88
1266.64
-210.404
1262.02
-238.577
1265.54
-264.4
1271.02
-288.089
1283.83
-306.348
1296.87
-318.596
1314.52
-323.994
1330.67
-325.643
1350.75
-324.275
1369.49
-319.619
1390.06
-310.315
1407.8
-297.542
1425.73
-282.97
1441.93
-269.17
1458.71
-253.983
1473.54
-236.93
1488.04
-220.022
1501.33
-204.152
1514.27
-187.078
1525.14
-169.32
1534.84
-152.465
1542.69
-137.017
1549.28
-123.085
1554.27
-111.007
1557.98
-100.842
1560.47
-92.7202
1562.01
-86.8008
1563.07
-83.2473
1564.03
-82.2967
1565.63
-84.0715
1568.29
-88.7346
1572.8
-96.2264
1579.43
-106.507
1588.8
-119.309
1600.94
-134.622
1616.39
-151.9
1634.63
-170.645
1656.91
-195.391
-221.811
2050.58
-681.283
2065
-610.731
2051.65
-523.716
2011.16
-442.613
1945.39
-395.507
1861.94
-372.637
1750.18
-375.694
1623.76
-329.407
1469.16
-284.759
1309.86
-249.876
1141.66
-222.641
980.901
-191.702
834.039
-173.461
707.323
-165.675
608.828
-174.68
540.829
-201.681
499.535
-235.39
489.765
-289.74
509.711
-376.576
557.932
-479.079
630.677
-558.183
709.389
-606.933
797.399
-629.37
884.736
-631.843
976.15
-629.653
1066.29
-629.77
1158.15
-616.814
1247.97
-586.641
1333.83
-539.327
1413.71
-490
1489.66
-449.031
1562.06
-410.871
1631.26
-368.076
1698.61
-327.212
1763.1
-288.301
1824.87
-246.549
1880.69
-193.221
1926.05
-124.065
1957.42
-46.8057
1976.3
27.2508
1983.11
94.9972
1978.56
160.862
1958.79
224.995
1923.84
281.668
1874.78
324.786
1819.54
350.72
1766.62
356.516
1689.77
341.32
1626.13
351.87
1536.96
356.186
1461.06
311.557
1385.11
227.298
1333.22
138.352
1287.74
63.0441
1252.53
10.6023
1224.03
-25.7761
1197.09
-55.9416
1176.25
-82.188
1154.99
-109.529
1139.69
-138.662
1124.57
-171.173
1116.83
-203.286
1110.01
-235.233
1110.92
-265.292
1113.32
-293.49
1123.06
-315.732
1132.62
-330.549
1146.72
-337.163
1159.08
-339.787
1176.03
-340.017
1191.84
-336.314
1209.86
-326.918
1225.11
-313.114
1240.7
-297.248
1254.39
-282.788
1269.04
-267.414
1282.2
-249.809
1295.5
-232.233
1307.99
-216.243
1320.87
-198.937
1332.22
-180.177
1342.78
-162.03
1351.65
-145.251
1359.42
-129.938
1365.64
-116.522
1370.7
-105.129
1374.8
-96.1238
1378.42
-89.8008
1382.28
-86.4892
1386.91
-86.4613
1393.18
-89.8383
1401.43
-96.6547
1412.28
-106.693
1425.69
-119.712
1441.92
-135.274
1460.63
-153.24
1482.01
-173.106
1505.45
-194.042
1531.56
-221.421
-251.595
1842.24
-670.383
1818
-582.869
1769.76
-470.28
1696.8
-365.459
1599.82
-296.732
1487.88
-249.48
1347.49
-241.393
1196.78
-170.763
1017.47
-118.696
847.349
-83.0127
680.936
-73.107
542.674
-65.8696
437.425
-83.2001
364.532
-109.368
323.264
-148.263
307.508
-200.416
311.476
-255.359
341.402
-329.624
390.408
-435.29
455.022
-555.723
533.334
-644.205
608.098
-692.626
685.871
-712.555
758.108
-711.231
833.169
-706.992
906.835
-706.279
981.985
-690.426
1054.98
-656.567
1125.98
-603.937
1194.05
-549.303
1259.76
-503.885
1321.81
-462.218
1382.36
-417.08
1443.96
-374.708
1505.05
-335.339
1565.68
-293.212
1622.63
-236.785
1670.88
-159.918
1706.4
-71.4636
1729.72
14.3954
1741.31
91.9126
1743.9
166.294
1733.35
241.171
1708.11
310.381
1668.52
365.637
1622.1
402.474
1576.87
416.355
1504.07
404.071
1449.43
414.451
1367.83
426.967
1296.24
382.743
1223.53
286.411
1175.97
182.487
1135.95
93.2534
1107.23
30.6777
1085.3
-11.7496
1063.86
-45.1249
1047.25
-72.3716
1028.71
-100.083
1015.04
-129.953
1000.07
-164.165
991.622
-198.473
983.137
-233.279
982.02
-266.6
981.839
-298.436
988.795
-323.827
995.005
-340.666
1005.78
-348.043
1014.74
-351.861
1028.96
-353.983
1042.26
-351.638
1058.42
-342.336
1072.01
-327.553
1086.14
-309.977
1098.03
-294.062
1111.02
-278.035
1122.89
-260.079
1135.48
-242.126
1147.57
-226.307
1160.39
-208.919
1171.97
-189.691
1183
-170.582
1192.24
-152.554
1200.39
-135.998
1207.2
-121.514
1213.46
-109.586
1219.78
-100.781
1227.04
-95.5479
1236.13
-94.153
1247.58
-96.7169
1261.94
-103.066
1279.1
-112.936
1299.09
-125.846
1321.36
-141.384
1345.7
-159.037
1371.49
-178.68
1398.64
-199.915
1426.62
-221.856
1455.54
-250.185
-283.058
1562.16
-648.515
1538.44
-555.724
1494.16
-420.671
1422.73
-289.422
1324.65
-194.907
1215.39
-125.598
1080.88
-118.49
947.41
-23.9412
785.302
32.0546
649.77
53.104
523.283
39.3748
429.576
20.1038
364.906
-26.4541
322.891
-78.1762
301.631
-134.555
295.803
-202.871
303.545
-272.472
335.409
-364.795
383.806
-486.951
443.888
-620.178
513.932
-714.006
577.806
-760.584
643.181
-776.98
701.257
-771.174
761.73
-765.609
821.164
-764.576
881.194
-747.21
937.764
-710.906
993.538
-656.476
1049.23
-600.897
1104.14
-553.913
1154.85
-509.269
1205.37
-463.818
1259.07
-422.559
1313.68
-384.947
1369.96
-344.584
1424.92
-287.122
1472.96
-203.281
1509.38
-103.783
1534.23
-5.778
1547.48
82.5269
1553.04
165.462
1547.85
250.232
1529.28
332.066
1496.45
400.498
1456.51
448.791
1416.86
470.671
1346.71
462.52
1298.69
467.781
1221.66
491.756
1153.31
452.675
1082.84
345.832
1038.61
226.64
1003.14
122.289
980.208
48.9633
964.261
0.763513
947.64
-35.1677
934.735
-62.128
918.819
-89.509
907.207
-119.603
893.002
-154.634
884.471
-190.371
874.966
-227.498
872.359
-263.873
869.905
-299.275
874.002
-327.512
876.301
-345.725
883.134
-353.651
888.508
-359.197
900.122
-363.975
911.418
-363.801
926.554
-355.696
939.343
-340.651
952.771
-321.851
963.591
-304.803
975.459
-288.497
986.435
-270.882
998.706
-253.313
1010.63
-237.955
1023.28
-220.414
1034.75
-200.693
1045.62
-180.319
1054.39
-160.648
1062.4
-143.019
1070.14
-128.523
1079.18
-117.841
1090.6
-111.537
1105.35
-109.717
1123.96
-112.208
1146.24
-118.603
1171.94
-128.34
1200.16
-140.897
1230.34
-155.733
1261.59
-172.486
1293.52
-190.767
1325.54
-210.633
1357.55
-231.798
1389.27
-253.563
1420.4
-281.251
-315.54
1339.28
-622.526
1323.85
-534.099
1291.81
-379.267
1230.37
-220.133
1140.89
-101.161
1048.38
-12.9279
938.25
-20.1601
841.032
89.4609
706.984
144.485
603.292
151.564
501.162
119.618
423.667
80.9943
367.383
11.8316
328.249
-58.7317
306.486
-129.52
297.437
-209.765
300.904
-292.87
329.824
-404.086
376.155
-543.478
432.49
-689.044
496.249
-786.163
552.781
-828.644
609.691
-840.018
657.68
-826.985
707.745
-818.631
757.122
-817.309
806.011
-794.64
849.452
-750.785
892.423
-692.043
937.21
-635.169
981.704
-585.179
1021.98
-536.591
1064.01
-491.55
1110.63
-451.868
1158.84
-416.391
1210.7
-379.794
1263.75
-323.734
1311.48
-235.863
1348.13
-127.339
1373.92
-19.1364
1387.93
78.7211
1394.55
168.473
1392.65
259.094
1378.9
350.236
1351.1
430.218
1316.24
489.551
1281.11
520.778
1214.72
518.253
1171.48
519.73
1095.54
555.633
1028.99
518.608
959.595
400.277
917.606
264.674
885.687
143.298
867.629
57.1781
856.984
2.41185
844.78
-35.0254
835.461
-60.5482
822.462
-86.8491
813.459
-116.308
800.525
-150.717
792.322
-186.258
782.112
-224.76
778.226
-262.957
773.411
-300.318
774.021
-329.274
771.116
-347.306
772.712
-355.237
773.827
-363.983
782.833
-372.764
792.5
-375.942
807.285
-369.736
819.986
-354.375
833.414
-333.653
843.915
-314.447
855.349
-296.943
865.882
-279.444
878.093
-262.134
889.863
-247.166
902.161
-229.176
913.036
-208.991
922.753
-187.033
930.533
-166.099
939.196
-149.221
950.509
-137.746
966.57
-131.9
988.138
-131.326
1015.2
-135.209
1047.04
-142.63
1082.41
-152.806
1120.23
-165.079
1159.21
-179.052
1198.65
-194.398
1237.72
-211.009
1276.2
-228.719
1313.67
-247.79
1350.2
-268.017
1385.75
-288.964
1419.75
-315.108
-349.298
1128.38
-600.065
1127.05
-528.232
1116.26
-361.228
1071.97
-169.025
998.02
-21.4551
925.966
77.0841
837.577
52.3311
769.81
178.137
656.128
246.437
567.362
241.903
474.534
200.472
402.846
146.604
350.166
58.9
313.278
-30.9615
292.429
-114.451
282.303
-206.479
284.604
-302.825
314.306
-435.658
361.692
-592.761
416.609
-746.782
476.572
-844.635
528.692
-883.52
579.735
-889.133
619.81
-868.029
662.153
-858.434
704.889
-858.188
745.913
-831.96
779.429
-781.671
812.725
-721.948
848.971
-666.806
883.979
-614.557
914.538
-563.141
949.085
-521.892
989.079
-485.176
1030.31
-452.162
1077.27
-421.461
1128.28
-369.957
1175.66
-278.6
1212.22
-160.034
1238.36
-40.8528
1252.61
68.0943
1259.39
166.398
1259.26
263.209
1249.11
363.656
1225.68
455.951
1195.34
526.8
1164.02
567.244
1100.17
570.39
1060.5
564.501
985.083
616.396
920.041
585.022
851.42
457.195
811.522
304.795
782.868
165.379
769.212
66.1419
763.301
4.97456
754.967
-33.715
748.95
-57.0641
738.678
-82.175
732.173
-110.863
720.538
-143.941
712.757
-178.66
702.022
-218.041
697.012
-257.86
689.561
-296.594
685.521
-324.714
675.562
-340.612
670.241
-348.291
666.603
-362.475
673.4
-377.446
681.969
-385.363
696.887
-382.516
710.11
-367.953
724.303
-346.111
735.371
-325.557
747.191
-307.178
757.609
-289.804
769.699
-273.06
781.059
-258.32
792.598
-239.38
801.535
-217.462
808.805
-193.117
816.538
-173.212
829.625
-161.429
850.262
-157.81
879.45
-160.492
916.087
-167.498
958.391
-177.127
1004.43
-188.313
1052.35
-200.493
1100.94
-213.409
1149.05
-227.033
1196.22
-241.379
1241.85
-256.584
1285.95
-272.69
1328.25
-290.079
1368.95
-308.629
1408.06
-328.084
1445.16
-352.167
-384.449
928.222
-573.381
944.922
-535.633
955.179
-356.485
925.722
-128.491
872.528
38.1871
821.792
147.442
742.364
121.426
685.227
254.916
585.019
324.266
508.253
313.533
426.817
260.603
365.066
190.726
320.454
85.0269
289.604
-20.4486
271.827
-113.802
261.909
-212.712
265.318
-322.959
298.575
-479.307
348.009
-652.53
401.126
-812.518
457.501
-909.751
505.892
-943.609
551.471
-941.27
584.538
-909.22
621.011
-898.392
658.645
-899.463
693.096
-864.923
718.713
-803.125
744.16
-738.801
772.751
-682.992
799.308
-625.225
821.211
-569.716
848.401
-531.728
882.16
-498.013
916.998
-467.241
959.826
-444.657
1009.92
-400.228
1057.88
-307.976
1094.75
-181.178
1121.17
-52.7054
1136.11
65.1658
1143.32
170.473
1143.81
271.11
1136.31
376.626
1117.07
477.93
1091.17
559.151
1063.66
609.765
1002.3
620.6
964.485
609.883
888.785
677.478
824.886
648.064
756.754
509.238
719.089
337.997
693.929
178.594
684.295
64.8061
682.176
-2.90634
676.888
-41.7897
673.814
-62.5572
666.112
-85.9041
662.034
-113.115
651.84
-143.794
644.781
-176.019
633.923
-215.418
628.023
-255.329
617.068
-292.115
606.361
-314.843
587.249
-326.566
574.364
-335.32
566.934
-359.43
572.806
-383.347
580.753
-396.343
595.62
-396.695
609.13
-382.661
624.283
-359.195
636.699
-336.805
649.066
-315.869
658.997
-297.209
670.88
-280.549
680.952
-265.105
690.708
-244.849
695.759
-219.607
701.351
-195.581
714.214
-183.757
739.493
-184.362
776.812
-193.217
824.008
-205.907
877.647
-219.604
934.805
-232.955
993.268
-245.589
1051.39
-257.654
1108.29
-269.417
1163.17
-281.239
1215.84
-293.402
1265.93
-306.227
1313.58
-319.914
1358.65
-334.884
1401.48
-351.186
1442.04
-368.518
1480.29
-390.29
-419.573
727.262
-544.386
760.696
-563.645
793.671
-381.19
786.138
-115.13
756.807
72.4751
726.802
191.19
658.276
175.074
603.393
330.949
509.094
408.722
445.938
379.255
378.163
318.774
327.931
236.746
292.037
117.547
267.074
-2.73915
251.583
-102.15
241.729
-208.027
247.944
-334.82
286.196
-517.7
336.96
-703.502
387.019
-863.624
439.615
-959.351
484.069
-989.249
523.491
-977.553
550.404
-935.95
583.591
-928.233
617.674
-930.938
645.841
-888.966
664.952
-819.241
684.299
-754.736
706.336
-699.697
726.758
-639.148
742.607
-581.608
762.885
-547.464
790.058
-517.797
817.775
-489.192
855.958
-477.536
905.419
-445.01
954.487
-353.071
991.841
-215.427
1018.45
-75.6387
1034.14
52.3779
1041.67
167.109
1042.13
274.281
1036.82
384.953
1021.48
495.542
999.703
587.979
975.583
649.15
916.047
668.628
877.771
652.469
802.009
735.084
740.777
710.16
674.181
563.682
640.239
372.519
619.544
192.745
613.602
66.1103
613.907
-6.42227
610.342
-45.5531
610.116
-64.685
605.469
-87.0171
603.913
-112.394
594.645
-139.615
587.695
-168.996
577.09
-209.092
570.858
-249.17
555.082
-280.861
535.213
-294.222
506.296
-301.544
488.075
-314.952
480.253
-353.848
487.846
-388.313
495.976
-405.333
509.773
-408.065
521.93
-395.263
537.175
-372.508
551.048
-350.999
563.028
-326.131
571.629
-305.716
582.177
-289.54
589.082
-271.862
593.403
-247.706
594.081
-219.955
605.265
-205.885
633.968
-212.131
680.297
-230.154
738.871
-251.517
804.58
-271.305
873.096
-287.912
941.697
-301.388
1008.7
-312.441
1073.04
-321.912
1134.27
-330.53
1191.98
-338.926
1246.26
-347.589
1296.99
-356.959
1344.5
-367.36
1388.79
-379.197
1430.38
-392.731
1469.29
-407.447
1505.7
-426.673
-452.771
521.328
-542.75
582.851
-612.456
643.783
-424.346
659.784
-119.087
649.557
90.6525
635.676
224.084
577.237
225.449
525.861
403.067
439.469
474.4
390.021
424.14
335.452
352.234
295.403
258.454
266.679
127.624
246.326
-2.96758
232.096
-105.245
222.975
-215.068
234.089
-362.17
277.498
-571.286
327.515
-763.699
373.095
-921.586
421.853
-1016.81
462.028
-1040.93
494.658
-1016.78
516.953
-966.307
549.254
-964.196
579.707
-964.964
600.86
-908.362
614.622
-828.066
629.496
-759.487
644.959
-700.75
659.968
-635.624
671.07
-575.223
684.51
-540.805
705.021
-514.232
725.204
-486.722
758.986
-488.31
809.287
-472.763
861.015
-382.976
899.637
-236.243
926.938
-86.8625
943.765
48.7729
952.123
171.174
952.502
283.272
948.589
395.124
936.8
510.738
919.39
612.36
899.367
684.061
842.726
713.937
800.44
700
725.24
791.61
668.569
765.662
604.568
610.895
575.302
397.003
559.041
196.309
555.206
58.0813
556.107
-18.0982
553.56
-57.426
556.939
-77.3192
556.699
-99.0824
557.942
-120.385
548.351
-141.08
540.678
-166.212
531.081
-208.239
525.016
-246.384
503.094
-265.923
473.731
-265.325
438.807
-272.664
421.935
-298.231
418.958
-356.184
430.626
-400.478
438.713
-416.966
449.163
-417.659
456.937
-404.127
470.346
-382.783
483.848
-362.856
493.171
-331.181
497.964
-307.18
504.488
-290.503
506.593
-270.004
502.333
-239.235
506.152
-221.426
536.387
-233.636
591.023
-264.981
661.874
-299.191
739.829
-328.026
819.328
-349.451
896.915
-364.347
970.914
-374.382
1040.53
-381.153
1105.37
-386.026
1165.56
-390.024
1221.12
-393.964
1272.48
-398.443
1319.84
-403.963
1363.73
-410.897
1404.34
-419.592
1442.28
-430.449
1477.68
-442.745
1510.67
-459.554
-483.104
399.621
-568.15
469.058
-675.624
535.419
-483.483
560.387
-139.271
558.386
96.9909
550.311
243.419
496.903
264.01
453.321
469.523
378.681
542.536
342.274
463.836
298.872
387.784
266.482
288.207
242.949
149.681
225.891
8.19362
212.573
-94.5115
205.814
-212.35
223.783
-384.192
271.287
-617.74
318.22
-809.63
358.626
-961.823
403.957
-1058.08
439.761
-1076.72
465.292
-1038.27
484.888
-984.786
518.154
-993.297
544.034
-987.388
557.007
-916.459
566.844
-834.334
579.691
-768.437
588.207
-702.721
597.901
-637.601
606.985
-579.579
614.811
-544.013
628.249
-519.102
639.78
-492.3
667.707
-510.919
719.767
-520.881
775.362
-434.974
815.962
-274.487
844.417
-112.524
862.393
32.8325
872.421
164.705
873.076
285.85
869.074
401.995
860.035
522.172
847.23
632.546
831.648
714.762
777.664
756.898
728.774
752.454
655.93
843
605.94
815.763
547.368
657.299
523.863
421.506
511.272
202.63
507.712
57.1629
508.452
-21.82
507.63
-64.0198
515.249
-87.033
518.857
-108.435
521.549
-123.655
510.357
-135.361
502.185
-157.87
494.662
-205.071
488.526
-240.466
460.749
-243.982
427.086
-230.661
395.558
-245.622
388.197
-288.205
393.148
-363.291
408.207
-412.527
414.05
-423.652
418.222
-419.175
418.9
-405.275
429.304
-390.71
438.731
-372.977
441.57
-332.287
439.141
-304.663
438.004
-287.599
428.411
-260.453
421.199
-231.114
446.903
-247.226
509.354
-295.688
592.404
-348.022
682.851
-389.42
772.22
-417.368
856.988
-434.127
935.563
-442.893
1007.66
-446.458
1073.49
-446.956
1133.45
-445.992
1188.17
-444.71
1238.12
-443.951
1284.03
-444.309
1326.26
-446.237
1365.48
-450.077
1401.91
-456.071
1436.14
-464.642
1468.35
-474.991
1498.53
-489.71
-511.232
318.959
-600.591
389.599
-730.986
454.962
-529.469
484.407
-155.931
486.271
104.481
478.259
270.222
427.877
307.081
392.015
530.141
328.483
589.913
301.579
486.622
266.421
401.67
239.23
296.538
219.543
150.744
205.488
1.33583
193.787
-100.596
191.674
-226.59
217.488
-425.804
266.692
-677.165
308.487
-861.68
343.637
-1009.4
385.943
-1109.27
418.132
-1120.49
437.811
-1064.77
456.606
-1011.63
490.526
-1030.98
510.528
-1010.78
515.588
-919.248
522.237
-834.635
534.599
-768.437
535.433
-684.835
539.476
-618.232
546.246
-565.22
548.398
-522.372
554.731
-497.17
556.395
-468.144
576.378
-504.435
631.12
-547.964
693.628
-471.665
737.787
-298.282
768.567
-125.467
788.313
27.7131
800.971
165.817
802.755
294.634
798.208
413.772
791.052
533.583
783.115
648.196
772.999
739.77
722.702
796.175
671.68
807.153
603.504
891.232
556.106
861.363
503.421
693.127
484.219
435.838
472.951
200.773
467.38
50.2173
468.282
-33.9386
471.235
-81.9194
482.909
-108.334
488.102
-126.447
490.35
-132.859
477.811
-135.002
471.961
-157.899