/*--------------------------------*- C++ -*----------------------------------*\
| =========                 |                                                 |
| \\      /  F ield         | OpenFOAM: The Open Source CFD Toolbox           |
|  \\    /   O peration     | Version:  4.1                                   |
|   \\  /    A nd           | Web:      www.OpenFOAM.org                      |
|    \\/     M anipulation  |                                                 |
\*---------------------------------------------------------------------------*/
FoamFile
{
    version     2.0;
    format      ascii;
    class       volScalarField;
    location    "20";
    object      p;
}
// * * * * * * * * * * * * * * * * * * * * * * * * * * * * * * * * * * * * * //

dimensions      [0 2 -2 0 0 0 0];

internalField   nonuniform List<scalar> 
26785
(
5.83295
7.17445
8.67352
10.1271
11.4492
12.9407
14.2703
15.5804
16.6339
17.6244
18.4134
19.1064
19.5932
20.0846
20.2829
20.5871
20.9772
21.6436
22.3672
23.2498
24.3264
25.5672
26.8334
28.0417
29.2158
30.5656
31.9633
33.3038
34.3964
35.277
35.9052
36.3676
36.6848
36.909
36.9037
36.5983
35.8143
34.5765
32.943
31.0136
28.8998
26.6725
24.4262
22.2093
20.0991
18.1238
16.391
14.9945
13.5839
12.4176
11.2899
10.3891
9.56975
8.93969
8.39098
7.95562
7.5684
7.25066
6.96552
6.72443
6.50791
6.32373
6.15994
6.01773
5.88954
5.77393
5.66635
5.56341
5.46351
5.36318
5.26302
5.16033
5.05782
4.9529
4.84853
4.74074
4.63199
4.51737
4.39917
4.27287
4.14076
3.99884
3.8494
3.68917
3.52091
3.34176
3.15498
2.95814
2.75509
2.5434
2.32684
2.10213
1.87289
1.63535
1.39399
1.14574
0.895911
0.641818
0.376827
0.130496
5.81527
7.17269
8.67542
10.1265
11.4485
12.9418
14.271
15.5824
16.6357
17.6271
18.4161
19.1095
19.5958
20.0868
20.2832
20.5851
20.9727
21.6392
22.3631
23.2446
24.3246
25.5704
26.836
28.0414
29.2146
30.5659
31.9681
33.3125
34.4068
35.2869
35.9123
36.3742
36.6925
36.9222
36.9231
36.621
35.8349
34.5917
32.9511
31.0147
28.8942
26.6607
24.4092
22.1885
20.0763
18.1005
16.3687
14.9755
13.5654
12.402
11.2754
10.3777
9.56034
8.93306
8.38587
7.95194
7.5652
7.248
6.9629
6.72206
6.50563
6.32184
6.15836
6.01663
5.88882
5.77366
5.6664
5.56379
5.46409
5.36391
5.2638
5.16113
5.05862
4.95375
4.84944
4.74175
4.63314
4.51868
4.40063
4.27446
4.14241
4.00051
3.85102
3.69075
3.52239
3.34316
3.15624
2.95929
2.75609
2.54434
2.32771
2.10299
1.87368
1.63601
1.39442
1.14579
0.896376
0.640947
0.398596
0.102838
5.7814
7.16999
8.67911
10.1249
11.4475
12.9439
14.2729
15.5863
16.6399
17.633
18.4219
19.1159
19.6015
20.0908
20.2849
20.5824
20.9643
21.6306
22.3534
23.231
24.317
25.5727
26.8363
28.0355
29.2081
30.5675
31.9826
33.3379
34.4383
35.3195
35.9389
36.3966
36.7146
36.9529
36.9654
36.6699
35.8806
34.6273
32.9741
31.0252
28.8929
26.6482
24.3867
22.158
20.0408
18.0625
16.3308
14.9411
13.5306
12.3705
11.2453
10.3519
9.53804
8.91524
8.37092
7.93959
7.55413
7.23815
6.95364
6.71362
6.4979
6.31515
6.15267
6.01209
5.8853
5.77119
5.66478
5.56296
5.46385
5.36417
5.26437
5.16198
5.0597
4.95513
4.85113
4.74383
4.63559
4.52156
4.40387
4.27805
4.14623
4.00453
3.85511
3.69491
3.52655
3.34733
3.16035
2.96338
2.76012
2.54841
2.33178
2.10714
1.87777
1.64001
1.39815
1.14924
0.899869
0.643715
0.406383
0.111345
5.73347
7.16859
8.6843
10.122
11.4462
12.9474
14.2765
15.5933
16.6474
17.6433
18.4323
19.1273
19.6115
20.0981
20.2875
20.5774
20.9499
21.6165
22.3375
23.2103
24.3078
25.5789
26.8374
28.0255
29.1961
30.5667
32.0033
33.3787
34.4905
35.3739
35.9842
36.4354
36.75
36.9975
37.0241
36.7347
35.9387
34.6708
33.002
31.0388
28.8935
26.6364
24.3633
22.125
20.0009
18.0194
16.2875
14.8979
13.4887
12.3301
11.2089
10.3195
9.51181
8.89369
8.35394
7.92541
7.54235
7.22782
6.94465
6.7058
6.49134
6.30994
6.14871
6.00939
5.88353
5.77033
5.66443
5.56311
5.46413
5.36458
5.26468
5.16227
5.05993
4.95545
4.8515
4.74437
4.63624
4.5224
4.40477
4.27903
4.14709
4.00526
3.85554
3.69506
3.52626
3.34668
3.15916
2.96177
2.75796
2.54589
2.32877
2.1038
1.87388
1.63569
1.39319
1.14425
0.893657
0.640001
0.382461
0.133093
5.67578
7.17218
8.69133
10.1183
11.4448
12.9523
14.2817
15.6029
16.6578
17.6572
18.4461
19.1421
19.6246
20.1068
20.2909
20.5707
20.9318
21.5993
22.3172
23.1833
24.2973
25.5871
26.8374
28.0109
29.1774
30.5619
32.0232
33.4224
34.5486
35.4363
36.0376
36.4813
36.7916
37.0471
37.0871
36.8013
35.9958
34.7121
33.0291
31.055
28.9003
26.634
24.3514
22.1049
19.9745
17.9903
16.2572
14.8648
13.4571
12.2978
11.1806
10.2936
9.49157
8.87664
8.34056
7.91371
7.53232
7.21847
6.93617
6.69801
6.48454
6.30415
6.14395
6.00559
5.88048
5.76792
5.66243
5.56144
5.46259
5.36313
5.26326
5.16098
5.05886
4.95472
4.85118
4.74454
4.63692
4.52363
4.40647
4.28117
4.14953
4.00793
3.85831
3.69791
3.5291
3.34948
3.16183
2.96431
2.76036
2.54822
2.33102
2.10603
1.87594
1.63755
1.39464
1.14573
0.894432
0.642038
0.373526
0.149838
5.61295
7.18279
8.70002
10.1142
11.4437
12.9583
14.2885
15.6147
16.6708
17.6741
18.4631
19.1599
19.6403
20.117
20.2942
20.5611
20.9103
21.5808
22.2965
23.1568
24.2916
25.6013
26.8422
28.0007
29.1608
30.5534
32.0371
33.459
34.5967
35.4887
36.0841
36.5239
36.8273
37.0867
37.1365
36.8493
36.0323
34.734
33.0408
31.0607
28.9007
26.6286
24.3387
22.0858
19.9497
17.9628
16.2284
14.8314
13.4257
12.265
11.1524
10.2678
9.47216
8.86067
8.32884
7.90382
7.52454
7.21139
6.9303
6.69285
6.4807
6.30129
6.14235
6.00483
5.88058
5.76844
5.66335
5.56242
5.46363
5.36397
5.26402
5.16161
5.05956
4.95553
4.85225
4.74592
4.6387
4.52583
4.40905
4.28408
4.15261
4.01109
3.86144
3.70096
3.53198
3.3521
3.16405
2.96611
2.76171
2.54923
2.33174
2.10654
1.87608
1.63712
1.39335
1.1439
0.892033
0.640264
0.370212
0.151373
5.54756
7.19629
8.70667
10.1089
11.4425
12.9645
14.2958
15.627
16.6844
17.6912
18.48
19.1773
19.6555
20.1262
20.2977
20.5505
20.8883
21.5635
22.279
23.1342
24.2907
25.6159
26.8471
27.995
29.1464
30.5435
32.0447
33.4862
34.6317
35.5243
36.1152
36.5523
36.8452
37.1015
37.1539
36.8613
36.0337
34.726
33.0291
31.049
28.8889
26.6151
24.3209
22.0634
19.9229
17.9337
16.1975
14.796
13.3909
12.2287
11.1198
10.238
9.44862
8.84134
8.31407
7.89149
7.51449
7.20234
6.92255
6.68602
6.47531
6.29708
6.13954
6.00299
5.87969
5.76803
5.66337
5.56252
5.46378
5.36392
5.26384
5.16128
5.05928
4.95538
4.85242
4.74653
4.63987
4.52761
4.41142
4.28695
4.15585
4.0146
3.86512
3.70477
3.5358
3.35579
3.16745
2.96914
2.76437
2.55162
2.334
2.10877
1.87807
1.63845
1.39358
1.1434
0.891311
0.640524
0.372064
0.151767
5.48866
7.21378
8.71252
10.1044
11.4424
12.971
14.3033
15.6387
16.6975
17.7072
18.4958
19.193
19.669
20.1331
20.3016
20.5412
20.8679
21.5458
22.2639
23.1195
24.2983
25.6333
26.8526
27.9952
29.1397
30.5348
32.0512
33.5108
34.6581
35.5451
36.1315
36.561
36.834
37.0802
37.1311
36.83
35.9939
34.6828
32.9889
31.0138
28.8562
26.5811
24.2822
22.0193
19.8739
17.882
16.1444
14.7393
13.3353
12.1734
11.07
10.1938
9.41347
8.81313
8.29268
7.87423
7.50078
7.1905
6.91268
6.67758
6.46879
6.29211
6.13633
6.001
5.87889
5.76786
5.66382
5.56317
5.46463
5.36467
5.26461
5.162
5.06018
4.9565
4.85394
4.74854
4.64248
4.53081
4.41511
4.29102
4.16012
4.01902
3.86961
3.70932
3.54025
3.35998
3.17111
2.97218
2.76675
2.5535
2.3355
2.11013
1.87908
1.63861
1.39231
1.14114
0.888848
0.639146
0.371885
0.152799
5.44314
7.2318
8.71651
10.101
11.443
12.9765
14.3096
15.6479
16.7078
17.7193
18.5077
19.2048
19.6777
20.1359
20.3042
20.5363
20.854
21.5302
22.2487
23.1072
24.3095
25.6492
26.8542
27.9944
29.1328
30.5254
32.0523
33.5262
34.6792
35.5572
36.1346
36.5411
36.7945
37.0393
37.0911
36.7766
35.9308
34.6199
32.9326
30.9636
28.8074
26.5291
24.224
21.9552
19.8051
17.8117
16.0741
14.6676
13.2661
12.1064
11.0102
10.1417
9.37203
8.78031
8.26759
7.854
7.48427
7.17602
6.90013
6.66655
6.45972
6.28475
6.13087
5.99699
5.87625
5.76611
5.66288
5.56269
5.46455
5.36474
5.2649
5.16248
5.061
4.9577
4.85566
4.75083
4.64537
4.53424
4.41887
4.29499
4.16413
4.0231
3.87374
3.7136
3.54453
3.36405
3.17467
2.97509
2.76894
2.55512
2.3366
2.11097
1.87955
1.63825
1.3905
1.13839
0.885874
0.637267
0.369691
0.155847
5.41365
7.24218
8.71579
10.098
11.4438
12.9805
14.3145
15.6547
16.7161
17.7288
18.5177
19.2148
19.6852
20.1351
20.3034
20.5339
20.8462
21.5178
22.231
23.0938
24.322
25.6681
26.8602
27.9963
29.1308
30.513
32.0428
33.5287
34.6781
35.5309
36.1023
36.4958
36.7409
36.9946
37.045
36.708
35.8508
34.5417
32.8606
30.8947
28.7355
26.4502
24.1369
21.8615
19.7079
17.7147
15.9793
14.5741
13.1777
12.0231
10.9367
10.0786
9.32206
8.74081
8.2373
7.82945
7.46417
7.15847
6.88508
6.6535
6.44908
6.27624
6.12458
5.99244
5.87327
5.76424
5.66199
5.56246
5.4649
5.36549
5.26614
5.16423
5.06338
4.96075
4.85942
4.75536
4.65054
4.53985
4.42454
4.30052
4.16932
4.02809
3.87861
3.7186
3.54953
3.36887
3.17893
2.9787
2.77178
2.55737
2.33813
2.11195
1.87993
1.63778
1.3888
1.1359
0.883155
0.635381
0.366667
0.15874
5.40753
7.23985
8.7092
10.0953
11.4451
12.9836
14.3187
15.66
16.7229
17.7364
18.5256
19.2229
19.6928
20.1334
20.298
20.5307
20.8417
21.5115
22.2127
23.0766
24.3305
25.6842
26.8653
27.9943
29.118
30.4824
32.0154
33.4981
34.6213
35.45
36.0239
36.4196
36.68
36.9513
36.9907
36.6264
35.7596
34.4536
32.7777
30.812
28.6471
26.3535
24.0321
21.7516
19.5962
17.6053
15.8742
14.4725
13.0825
11.9343
10.8586
10.012
9.26907
8.69876
8.20449
7.80258
7.44187
7.13907
6.86847
6.63923
6.43738
6.26677
6.11725
5.98678
5.86901
5.76103
5.65967
5.56082
5.46383
5.36498
5.26631
5.16521
5.06529
4.96367
4.8634
4.76043
4.65652
4.54642
4.43116
4.30684
4.17511
4.03346
3.88377
3.72387
3.55486
3.37412
3.18377
2.98302
2.77549
2.56064
2.34081
2.11398
1.88123
1.63844
1.38862
1.1351
0.88181
0.634109
0.363824
0.160238
5.44051
7.23918
8.7041
10.095
11.4472
12.9859
14.3224
15.6643
16.7292
17.7434
18.5336
19.2306
19.7019
20.1344
20.2896
20.5231
20.8359
21.509
22.1952
23.0575
24.3338
25.6972
26.8683
27.9897
29.0952
30.438
31.9619
33.4027
34.4817
35.3291
35.9154
36.3271
36.6193
36.9114
36.9314
36.5383
35.6602
34.3531
32.6776
30.7074
28.5335
26.23
23.9004
21.6154
19.4599
17.4732
15.7487
14.3528
12.9716
11.8322
10.7698
9.93648
9.20894
8.65053
8.16638
7.77108
7.41579
7.11678
6.84979
6.62357
6.42463
6.25647
6.10901
5.98019
5.86366
5.75678
5.65632
5.55834
5.46212
5.36416
5.26653
5.16667
5.06805
4.96779
4.8689
4.76735
4.66465
4.55533
4.44014
4.31541
4.18288
4.04054
3.89033
3.73029
3.56115
3.38024
3.18945
2.98828
2.78028
2.56514
2.34489
2.1175
1.88397
1.64051
1.38992
1.13557
0.881333
0.633176
0.361036
0.160805
5.48808
7.23203
8.69614
10.0938
11.4483
12.9873
14.3256
15.6679
16.7349
17.7497
18.5409
19.2375
19.7097
20.1378
20.2817
20.5112
20.8262
21.5071
22.1797
23.0385
24.3275
25.6947
26.8578
27.975
29.0632
30.3814
31.854
33.2405
34.3164
35.2021
35.7883
36.2131
36.5517
36.8657
36.8646
36.4434
35.5528
34.2424
32.5648
30.5883
28.4047
26.0916
23.7549
21.4671
19.3131
17.3324
15.616
14.2277
12.8567
11.7274
10.6792
9.85988
9.14754
8.60072
8.12611
7.73731
7.3875
7.09271
6.82968
6.60682
6.41086
6.24519
6.09969
5.97246
5.85715
5.75149
5.65207
5.55517
5.45988
5.36301
5.26656
5.16806
5.07084
4.97198
4.87448
4.77437
4.67294
4.56448
4.44945
4.32435
4.19104
4.04794
3.89713
3.73688
3.56756
3.38648
3.19537
2.99394
2.78575
2.57041
2.34997
2.12227
1.88807
1.64384
1.39228
1.13686
0.881472
0.632718
0.358901
0.161459
5.53388
7.22148
8.68846
10.093
11.4492
12.9879
14.3285
15.6711
16.7406
17.7561
18.5492
19.2454
19.7189
20.1425
20.2764
20.4948
20.8109
21.4986
22.1653
23.0219
24.3158
25.6782
26.8442
27.9611
29.0295
30.3111
31.7053
33.0644
34.1619
35.069
35.6409
36.0789
36.4846
36.8099
36.7835
36.3343
35.4294
34.1131
32.4304
30.4447
28.25
25.927
23.5836
21.2936
19.1425
17.1694
15.463
14.0847
12.7269
11.6106
10.5796
9.77658
9.08094
8.54625
8.08159
7.69973
7.35605
7.06622
6.80772
6.58865
6.39579
6.23271
6.08912
5.96358
5.84961
5.74544
5.64737
5.5519
5.45789
5.36244
5.26747
5.17057
5.07492
4.97762
4.88158
4.78293
4.68274
4.5751
4.46022
4.33482
4.20084
4.057
3.90547
3.74476
3.57497
3.39337
3.20175
3.00019
2.7922
2.57701
2.35628
2.12809
1.89306
1.64782
1.39514
1.13875
0.882596
0.633773
0.358687
0.163294
5.57146
7.20975
8.6811
10.0918
11.4493
12.9877
14.3306
15.6737
16.7456
17.7621
18.5572
19.2533
19.7281
20.1473
20.2738
20.4774
20.7918
21.4832
22.1504
23.0058
24.2956
25.6472
26.8282
27.942
28.9817
30.2166
31.5423
32.8928
34.0163
34.9184
35.4915
35.9506
36.4098
36.7251
36.6779
36.2084
35.2924
33.9708
32.2823
30.2879
28.0828
25.7513
23.4023
21.1114
18.9643
16.9999
15.3046
13.9374
12.594
11.4923
10.48
9.69407
9.01489
8.49185
8.0365
7.66141
7.32384
7.03916
6.78522
6.56987
6.3799
6.21915
6.07725
5.95324
5.84063
5.73807
5.64154
5.54768
5.45514
5.3613
5.26798
5.17283
5.07886
4.98324
4.8889
4.79182
4.69279
4.58579
4.47093
4.34519
4.21082
4.06664
3.91461
3.75334
3.58288
3.40043
3.20798
3.00639
2.79898
2.58429
2.36329
2.13434
1.89829
1.65197
1.39824
1.14119
0.884693
0.636079
0.360157
0.165875
5.60187
7.1982
8.67309
10.0892
11.4478
12.986
14.3316
15.6755
16.7504
17.7685
18.5662
19.2629
19.7395
20.1534
20.2716
20.4595
20.7688
21.4595
22.1308
22.9898
24.2702
25.6181
26.8185
27.9268
28.9251
30.0976
31.3786
32.7263
33.862
34.7494
35.3411
35.8291
36.3072
36.6097
36.5488
36.0634
35.1366
33.8072
32.1106
30.1058
27.8899
25.5498
23.1955
20.9043
18.7621
16.8078
15.1255
13.7713
12.4452
11.3615
10.3716
9.60535
8.94446
8.43394
7.9888
7.62127
7.29064
7.01168
6.76264
6.55107
6.36385
6.20515
6.06462
5.9419
5.83053
5.72959
5.63472
5.54264
5.45177
5.35981
5.2685
5.17544
5.08347
4.98977
4.89747
4.80236
4.7046
4.5981
4.48315
4.35699
4.22232
4.0781
3.9258
3.7638
3.5923
3.40889
3.21551
3.01378
2.807
2.59275
2.37113
2.14101
1.90373
1.65628
1.40169
1.1444
0.887955
0.639935
0.36298
0.169197
5.62884
7.18821
8.6643
10.0852
11.445
12.983
14.3313
15.6762
16.7542
17.7742
18.5748
19.2728
19.7512
20.16
20.2695
20.4431
20.7444
21.4286
22.099
22.966
24.2367
25.5862
26.8034
27.8999
28.8436
29.9619
31.2167
32.5539
33.6826
34.5664
35.1731
35.6879
36.1691
36.4662
36.3988
35.903
34.9673
33.6307
31.9264
29.9124
27.6871
25.3397
22.9813
20.6908
18.5548
16.6114
14.9425
13.6019
12.2937
11.2292
10.263
9.51729
8.87461
8.37652
7.94145
7.58164
7.25806
6.98488
6.74065
6.53271
6.34805
6.19114
6.05171
5.92998
5.81967
5.72019
5.62693
5.53655
5.44729
5.35718
5.26794
5.17713
5.08736
4.9957
4.90548
4.81247
4.71605
4.60988
4.49476
4.36841
4.23362
4.08958
3.93722
3.77453
3.60194
3.41777
3.22377
3.02191
2.81571
2.60175
2.37943
2.14801
1.90945
1.66092
1.40559
1.14823
0.891854
0.644221
0.366024
0.172438
5.64901
7.17748
8.65335
10.079
11.4402
12.9781
14.3294
15.6759
16.7575
17.7802
18.5845
19.2844
19.7654
20.1685
20.2673
20.4249
20.716
21.3891
22.0554
22.935
24.2017
25.5604
26.7908
27.8541
28.7327
29.805
31.0366
32.372
33.506
34.3754
34.9957
35.5306
36.0089
36.3027
36.2312
35.7248
34.7785
33.4326
31.7193
29.6948
27.4591
25.1045
22.7423
20.4536
18.3249
16.3941
14.7402
13.4145
12.1267
11.0846
10.1454
9.42249
8.79998
8.31557
7.89195
7.54086
7.22513
6.95815
6.71896
6.51475
6.3327
6.17758
6.03915
5.9183
5.80892
5.71077
5.61905
5.5303
5.44264
5.35441
5.26731
5.17896
5.09179
5.0026
4.91459
4.82343
4.72823
4.62235
4.50713
4.38086
4.24618
4.10219
3.94964
3.78632
3.61286
3.42813
3.23359
3.03135
2.82547
2.61162
2.38848
2.15579
1.91594
1.66627
1.41026
1.15306
0.896845
0.649794
0.369538
0.176136
5.66273
7.16645
8.64124
10.0715
11.4341
12.972
14.3262
15.6744
16.7597
17.7854
18.5939
19.2957
19.7794
20.1784
20.2644
20.4048
20.6858
21.3403
22.001
22.8947
24.1593
25.5261
26.7588
27.7633
28.5814
29.6168
30.8324
32.1766
33.317
34.1667
34.8018
35.3496
35.8257
36.1202
36.0474
35.5324
34.5773
33.2241
31.5033
29.4697
27.2251
24.8643
22.4994
20.2138
18.0937
16.1765
14.5378
13.2269
11.9599
10.9404
10.0285
9.32836
8.72557
8.25483
7.84279
7.50063
7.19271
6.93185
6.69753
6.49699
6.31754
6.16423
6.02684
5.90686
5.79833
5.70136
5.6111
5.52387
5.43774
5.35125
5.26606
5.18
5.09557
5.00913
4.92353
4.83367
4.73928
4.63391
4.5189
4.39275
4.25823
4.1141
3.96122
3.79755
3.62381
3.43873
3.24348
3.04061
2.83501
2.62139
2.39767
2.16397
1.92287
1.67206
1.41547
1.15861
0.902473
0.655737
0.373153
0.179635
5.67025
7.15447
8.62725
10.0617
11.4259
12.964
14.3214
15.6718
16.7614
17.7911
18.6049
19.3094
19.7952
20.1911
20.2617
20.3827
20.651
21.2844
21.9424
22.8497
24.117
25.4893
26.7041
27.6255
28.3893
29.3945
30.6144
31.9731
33.1166
33.9497
34.6038
35.1564
35.63
35.9235
35.8473
35.322
34.3574
32.9957
31.2661
29.2218
26.9669
24.5996
22.2323
19.9511
17.8414
15.9396
14.3182
13.0242
11.7806
10.7864
9.90389
9.22783
8.64638
8.19061
7.79167
7.45937
7.15983
6.90527
6.67597
6.47919
6.30248
6.15113
6.0149
5.89594
5.78839
5.69256
5.60376
5.51799
5.4334
5.34872
5.2655
5.18158
5.1001
5.01663
4.93343
4.84467
4.75105
4.6467
4.53234
4.40615
4.27153
4.12722
3.97413
3.81026
3.6364
3.45075
3.25427
3.05028
2.84462
2.63111
2.40676
2.17232
1.93
1.67805
1.42106
1.16493
0.909017
0.663011
0.377296
0.183874
5.67459
7.14235
8.61227
10.0505
11.4163
12.9548
14.3151
15.668
16.7618
17.7963
18.6153
19.3239
19.8103
20.2049
20.2598
20.3614
20.6126
21.2235
21.8775
22.7905
24.0628
25.4312
26.604
27.4375
28.1613
29.1542
30.3916
31.7624
32.9011
33.7177
34.3872
34.9432
35.4163
35.7104
35.6315
35.099
34.128
32.76
31.0228
28.9687
26.7048
24.3321
21.9632
19.6878
17.589
15.7036
14.1004
12.8242
11.6051
10.6359
9.78196
9.12897
8.56798
8.1271
7.74122
7.41878
7.12729
6.87875
6.65404
6.46079
6.28675
6.13745
6.00261
5.8849
5.77852
5.6839
5.59656
5.51223
5.42922
5.34635
5.26509
5.18308
5.10434
5.02363
4.94227
4.85462
4.76214
4.65906
4.54554
4.41924
4.28439
4.14012
3.98732
3.82342
3.64947
3.46318
3.26525
3.05982
2.8537
2.6401
2.41518
2.18026
1.93687
1.68389
1.4267
1.17155
0.915736
0.670456
0.381433
0.189251
5.67581
7.12915
8.59542
10.0371
11.4046
12.9436
14.307
15.6634
16.762
17.8025
18.6276
19.3416
19.8279
20.2199
20.2586
20.3387
20.5698
21.1623
21.8126
22.7288
24.0041
25.354
26.4617
27.213
27.9126
28.9107
30.1669
31.545
32.6743
33.4817
34.1608
34.7195
35.1901
35.4833
35.3994
34.8598
33.8824
32.5057
30.7572
28.6904
26.4166
24.039
21.6692
19.4008
17.3143
15.4476
13.8655
12.6103
11.4192
10.4777
9.65419
9.02529
8.48644
8.06174
7.69018
7.37816
7.09505
6.85239
6.63202
6.44195
6.2704
6.12311
5.98988
5.87371
5.76871
5.67543
5.58971
5.50698
5.42584
5.34499
5.26588
5.1857
5.1093
5.03107
4.95137
4.86517
4.77454
4.67257
4.55981
4.43363
4.29877
4.15473
4.00247
3.83858
3.66425
3.47729
3.27779
3.07039
2.86293
2.6487
2.42296
2.18769
1.94347
1.68952
1.4323
1.17842
0.922636
0.678838
0.385524
0.197989
5.67288
7.1147
8.57739
10.0223
11.3914
12.9311
14.2974
15.6575
16.761
17.8081
18.6394
19.3592
19.8466
20.2344
20.2569
20.3145
20.5241
21.097
21.7376
22.6533
23.9251
25.2403
26.2717
26.9602
27.6509
28.6614
29.929
31.3105
32.4275
33.2295
33.9143
34.4759
34.9466
35.2401
35.1528
34.6107
33.629
32.244
30.4839
28.4059
26.1253
23.7456
21.3754
19.1147
17.0411
15.1938
13.6338
12.4006
11.2385
10.3243
9.53016
8.92455
8.40713
7.99856
7.64094
7.3391
7.06389
6.82669
6.61011
6.42283
6.25343
6.10792
5.97629
5.86184
5.75831
5.66656
5.58266
5.50184
5.42272
5.34396
5.2671
5.18874
5.11389
5.03763
4.95967
4.87524
4.78644
4.68522
4.57288
4.44728
4.31286
4.16915
4.01725
3.85352
3.6788
3.49155
3.2908
3.08133
2.87195
2.6567
2.43014
2.19454
1.94978
1.69495
1.43781
1.18529
0.929338
0.687371
0.388931
0.210619
5.6654
7.09843
8.55756
10.0054
11.376
12.9169
14.2863
15.6512
16.7602
17.8151
18.6536
19.3797
19.8699
20.2493
20.2537
20.2883
20.4759
21.0289
21.6608
22.5742
23.8328
25.0963
26.0406
26.6862
27.3756
28.3953
29.677
31.0628
32.1693
32.9709
33.6573
34.221
34.6897
34.9822
34.8911
34.3456
33.3564
31.9584
30.1823
28.0933
25.8065
23.427
21.0574
18.8048
16.746
14.9207
13.3859
12.1776
11.048
10.1634
9.40119
8.82047
8.32627
7.93488
7.59214
7.30076
7.03353
6.80164
6.58879
6.4041
6.23661
6.09261
5.96241
5.84966
5.74778
5.65761
5.57556
5.49687
5.41974
5.34287
5.26851
5.19265
5.11968
5.04494
4.96905
4.88671
4.79944
4.69877
4.58672
4.46212
4.32858
4.18518
4.03328
3.86955
3.69416
3.50658
3.30485
3.09317
2.88127
2.6645
2.43685
2.20089
1.95563
1.69998
1.44296
1.19181
0.935743
0.696275
0.391298
0.226643
5.65475
7.08093
8.53673
9.98687
11.3592
12.9015
14.2741
15.6437
16.7582
17.8214
18.6667
19.3997
19.8939
20.2634
20.2476
20.2615
20.4235
20.9494
21.5725
22.4786
23.7124
24.9109
25.7679
26.3891
27.0774
28.1052
29.4055
30.7927
31.8888
32.6929
33.3803
33.9471
34.4162
34.7096
34.6171
34.0686
33.0717
31.6614
29.8724
27.7798
25.4879
23.1095
20.7422
18.4973
16.4549
14.6521
13.1425
11.9598
10.8632
10.008
9.27709
8.7209
8.249
7.87422
7.54555
7.26395
7.00399
6.77711
6.56773
6.38542
6.21962
6.07709
5.94827
5.83708
5.73697
5.64849
5.5682
5.49165
5.41668
5.34162
5.26935
5.19607
5.12573
5.05202
4.97824
4.8983
4.81204
4.71151
4.59964
4.47603
4.34376
4.20086
4.04891
3.88492
3.7087
3.52069
3.31846
3.10484
2.89041
2.67194
2.44321
2.20691
1.96109
1.7049
1.44812
1.19817
0.942152
0.705101
0.392445
0.243701
5.64271
7.0622
8.51432
9.96614
11.3404
12.8846
14.2607
15.6359
16.7565
17.8293
18.6825
19.4238
19.9214
20.2782
20.2381
20.2312
20.3683
20.8704
21.4868
22.3811
23.5749
24.6932
25.4631
26.0723
26.7606
27.8
29.1212
30.5038
31.5935
32.4041
33.0918
33.6625
34.1312
34.4247
34.3276
33.7703
32.7613
31.3377
29.5397
27.4448
25.1459
22.7659
20.4024
18.1662
16.1428
14.365
12.8831
11.7289
10.6689
9.84605
9.14959
8.6198
8.17197
7.81465
7.5005
7.22851
6.9759
6.7539
6.54778
6.36746
6.20294
6.06178
5.93443
5.82455
5.72611
5.63927
5.56066
5.48601
5.41346
5.34047
5.27042
5.19981
5.13238
5.05987
4.98838
4.91111
4.82605
4.72559
4.61402
4.49106
4.3602
4.21801
4.06609
3.90147
3.72398
3.53503
3.33225
3.11679
2.89962
2.67909
2.44903
2.21241
1.96582
1.70928
1.45281
1.20386
0.948118
0.712962
0.391861
0.259535
5.6301
7.0427
8.49094
9.94396
11.3203
12.8668
14.2463
15.627
16.7535
17.8362
18.6971
19.4475
19.9481
20.2921
20.2245
20.1956
20.3078
20.7852
21.3888
22.2659
23.4087
24.4372
25.1295
25.7333
26.4245
27.4786
28.8151
30.1881
31.2755
32.0936
32.7832
33.3601
33.8318
34.1268
34.0237
33.4565
32.438
31.0122
29.2158
27.1134
24.8083
22.425
20.0665
17.8401
15.8363
14.0833
12.6285
11.5029
10.4799
9.68894
9.02631
8.52292
8.09864
7.75823
7.4576
7.19455
6.94899
6.73169
6.52834
6.34963
6.18597
6.04606
5.92044
5.81203
5.71515
5.62997
5.55312
5.4804
5.41042
5.33871
5.2707
5.20355
5.13863
5.06766
4.99835
4.92318
4.83954
4.73938
4.6281
4.50556
4.3758
4.23454
4.0827
3.91736
3.73852
3.54848
3.34505
3.12815
2.90848
2.68582
2.4545
2.2175
1.97002
1.71367
1.45789
1.21004
0.954444
0.719923
0.389841
0.272708
5.61409
7.02102
8.46532
9.91948
11.2983
12.8477
14.2309
15.618
16.7512
17.8451
18.7152
19.4757
19.9775
20.3054
20.2094
20.1628
20.25
20.7028
21.2897
22.1404
23.223
24.154
24.7765
25.3795
26.0774
27.1465
28.4897
29.8518
30.9407
31.7681
32.4604
33.0445
33.5198
33.8139
33.6988
33.1182
32.0938
30.6735
28.8696
26.7527
24.445
22.059
19.7073
17.4934
15.5102
13.784
12.359
11.2644
10.282
9.52498
8.89895
8.42436
8.02562
7.70277
7.41611
7.16204
6.92353
6.71084
6.51007
6.33277
6.16964
6.03064
5.90657
5.79958
5.70389
5.62004
5.54498
5.47486
5.40888
5.33855
5.27093
5.20697
5.14492
5.07635
5.00929
4.93572
4.85363
4.75438
4.64367
4.52164
4.39263
4.25239
4.10037
3.93408
3.75362
3.56216
3.35761
3.13923
2.91712
2.69207
2.45932
2.22172
1.97314
1.71724
1.46243
1.21564
0.959669
0.724241
0.385702
0.281595
5.59545
6.99816
8.43855
9.89374
11.2751
12.8275
14.2144
15.6077
16.7475
17.8527
18.7315
19.5033
20.0073
20.3152
20.191
20.1278
20.1854
20.6062
21.1693
21.9869
23.0057
23.8404
24.4047
25.0075
25.711
26.793
28.1356
29.4889
30.5805
31.4184
32.1167
32.7114
33.1932
33.4846
33.3573
32.7686
31.7531
30.3415
28.5143
26.3946
24.0868
21.6986
19.3543
17.1542
15.1907
13.4923
12.0986
11.0356
10.093
9.36861
8.77737
8.33035
7.95627
7.65045
7.37692
7.13106
6.89838
6.68964
6.49131
6.31553
6.15313
6.0153
5.89254
5.78694
5.69233
5.60951
5.53587
5.46754
5.40574
5.33955
5.27349
5.21053
5.15047
5.08459
5.01988
4.94778
4.8668
4.76863
4.65873
4.53732
4.40893
4.26947
4.11715
3.94976
3.76773
3.57479
3.36901
3.14926
2.92529
2.69792
2.46395
2.22543
1.97588
1.72097
1.46755
1.22193
0.964899
0.727314
0.381074
0.286117
5.57386
6.97317
8.40952
9.86593
11.2501
12.8061
14.1969
15.5974
16.7447
17.8622
18.7521
19.5364
20.0419
20.321
20.1711
20.0987
20.1275
20.5054
21.0408
21.8185
22.7657
23.5064
24.021
24.6231
25.33
26.42
27.758
29.1049
30.2001
31.0499
31.7563
32.3632
32.8509
33.1365
32.9937
32.4007
31.4021
29.9741
28.1278
26.0091
23.7026
21.3156
18.9801
16.7937
14.8513
13.184
11.8269
10.7975
9.89829
9.20959
8.65596
8.23616
7.88815
7.60099
7.34144
7.10361
6.87545
6.66953
6.47328
6.29866
6.13701
6.00051
5.87881
5.77418
5.68065
5.59939
5.52766
5.46094
5.40169
5.34003
5.27764
5.21522
5.15648
5.09322
5.03092
4.96052
4.88071
4.78372
4.67492
4.55437
4.42655
4.28733
4.1345
3.96583
3.78202
3.58722
3.37979
3.15842
2.93278
2.70302
2.468
2.228
1.9775
1.72377
1.47178
1.22704
0.968255
0.727461
0.375516
0.285802
5.55256
6.94763
8.37973
9.83712
11.224
12.7837
14.1782
15.5855
16.7402
17.8702
18.7706
19.5685
20.0764
20.3203
20.1474
20.0642
20.0628
20.3939
20.8898
21.6216
22.4946
23.1488
23.622
24.2186
24.9235
26.018
27.3513
28.6932
29.793
30.656
31.3747
31.9981
32.4931
32.7712
32.6177
32.0323
31.051
29.5933
27.7519
25.6313
23.3238
20.9397
18.6127
16.4397
14.5195
12.8832
11.5611
10.5675
9.71194
9.05902
8.54184
8.14707
7.82276
7.55403
7.30842
7.07839
6.85343
6.64957
6.45481
6.28087
6.12007
5.98519
5.86473
5.76092
5.66829
5.58859
5.51881
5.45464
5.39778
5.33979
5.28157
5.2204
5.16273
5.10148
5.04144
4.97277
4.89417
4.79816
4.69045
4.57082
4.44351
4.30424
4.15048
3.98064
3.79514
3.59834
3.38916
3.16623
2.93934
2.70749
2.47186
2.23035
1.97943
1.72696
1.47662
1.23232
0.97125
0.727199
0.37115
0.282817
5.53072
6.9204
8.34823
9.80674
11.1964
12.7602
14.1588
15.5739
16.7369
17.8811
18.7933
19.6064
20.1126
20.3176
20.1247
20.0301
20.002
20.2933
20.7377
21.4109
22.2045
22.7781
23.214
23.7999
24.4982
25.5919
26.9208
28.2584
29.3617
30.2392
30.9728
31.6147
32.1164
32.3842
32.221
31.6481
30.667
29.1816
27.3584
25.23
22.9206
20.54
18.2224
16.0647
14.1714
12.5678
11.2822
10.3296
9.52051
8.90706
8.4281
8.06067
7.76069
7.50992
7.27808
7.05591
6.83381
6.63163
6.43755
6.26341
6.10316
5.96968
5.85059
5.74794
5.6565
5.57852
5.51066
5.44908
5.3946
5.33947
5.2851
5.22632
5.1699
5.11032
5.05243
4.98565
4.90854
4.81351
4.70694
4.5883
4.46133
4.32164
4.16636
3.99521
3.80789
3.60871
3.39737
3.17274
2.9445
2.71082
2.47456
2.23181
1.98052
1.72883
1.48002
1.2354
0.971538
0.724448
0.366805
0.277907
5.50696
6.8915
8.3156
9.77528
11.1678
12.7357
14.1381
15.5606
16.7315
17.8902
18.8137
19.6433
20.1448
20.3127
20.0977
19.9854
19.926
20.1781
20.5671
21.1744
21.8896
22.3889
22.79
23.3577
24.045
25.1345
26.4598
27.7951
28.9027
29.7964
30.5496
31.214
31.7235
31.9818
31.8161
31.2584
30.274
28.7843
26.9687
24.8345
22.524
20.147
17.8398
15.6973
13.8321
12.2617
11.0121
10.1014
9.33627
8.76258
8.32003
7.98087
7.70371
7.4693
7.24876
7.03379
6.81433
6.61365
6.41965
6.24511
6.08526
5.95273
5.83481
5.73366
5.64375
5.56783
5.50264
5.44394
5.39212
5.33952
5.28816
5.23187
5.17689
5.11887
5.06304
4.99811
4.92246
4.82832
4.72277
4.60502
4.47821
4.33787
4.18092
4.0081
3.81901
3.61742
3.4039
3.17776
2.94826
2.71345
2.47674
2.23309
1.98194
1.73134
1.484
1.23846
0.971568
0.72254
0.364595
0.274171
5.48042
6.86032
8.28111
9.74214
11.1376
12.7103
14.1168
15.5476
16.7276
17.9022
18.8394
19.6875
20.1747
20.305
20.0743
19.9487
19.856
20.0656
20.3949
20.9286
21.5619
21.9902
22.3559
22.8991
23.5722
24.6513
25.9722
27.3055
28.4172
29.3278
30.103
30.7919
31.3084
31.5577
31.3945
30.8454
29.842
28.3709
26.5506
24.4149
22.1022
19.7343
17.4387
15.3126
13.4753
11.9426
10.7379
9.86704
9.14959
8.61876
8.21285
7.9051
7.65241
7.43335
7.22329
7.01416
6.79717
6.59742
6.40279
6.22806
6.06846
5.93608
5.81858
5.71898
5.63107
5.5573
5.49458
5.43882
5.38945
5.34105
5.29198
5.23749
5.18412
5.12788
5.07414
5.01113
4.93716
4.84392
4.73928
4.62223
4.49532
4.35393
4.19504
4.01983
3.82865
3.62445
3.40856
3.18087
2.94998
2.71452
2.4774
2.23293
1.98232
1.73302
1.48636
1.239
0.968984
0.71907
0.362685
0.272406
5.4522
6.82767
8.24562
9.70794
11.1063
12.6837
14.0941
15.5328
16.7214
17.9116
18.8624
19.7306
20.198
20.2925
20.0453
19.9051
19.7713
19.9341
20.2006
20.6615
21.2142
21.574
21.9027
22.415
23.07
24.1379
25.4537
26.7866
27.9042
28.834
29.636
30.3528
30.8769
31.1205
30.9734
30.4358
29.4051
27.9569
26.1386
23.9983
21.6872
19.3335
17.0472
14.9402
13.1283
11.6354
10.4742
9.6433
8.97486
8.48492
8.11221
7.83534
7.60591
7.40106
7.20014
6.99477
6.77982
6.58015
6.38464
6.21065
6.05182
5.9193
5.80157
5.70321
5.61774
5.5467
5.48639
5.43346
5.38557
5.34258
5.29568
5.2426
5.19099
5.13652
5.08482
5.02366
4.95127
4.85889
4.75488
4.63822
4.51096
4.3683
4.20732
4.02932
3.83583
3.62911
3.41096
3.18205
2.95013
2.71466
2.47735
2.2326
1.98343
1.7359
1.489
1.23932
0.966769
0.717678
0.362796
0.27619
5.42376
6.79365
8.20852
9.67221
11.0737
12.6563
14.0711
15.5186
16.7173
17.9243
18.8908
19.7801
20.2181
20.2806
20.0219
19.8698
19.6964
19.8055
20.0029
20.3881
20.8575
21.15
21.4382
21.9135
22.5463
23.5996
24.9079
26.2393
27.362
28.3115
29.1422
29.8879
30.4186
30.6594
30.5354
29.9988
28.9481
27.5212
25.7025
23.5565
21.2527
18.9111
16.6345
14.5473
12.7664
11.3197
10.2055
9.41954
8.80173
8.35511
8.01802
7.77008
7.56556
7.37497
7.18162
6.97862
6.76473
6.56355
6.36669
6.19337
6.03573
5.9037
5.78616
5.68859
5.60499
5.53652
5.47873
5.42902
5.38363
5.34353
5.29912
5.2479
5.19819
5.14554
5.09583
5.03667
4.96596
4.87431
4.77059
4.65382
4.52572
4.38133
4.21785
4.03661
3.84022
3.63077
3.41039
3.18049
2.94791
2.71279
2.47554
2.23085
1.98361
1.73785
1.48967
1.23732
0.962717
0.715477
0.361842
0.286029
5.39591
6.75943
8.17107
9.63575
11.04
12.6277
14.0465
15.5023
16.7106
17.934
18.9168
19.8269
20.2306
20.2627
19.9885
19.8184
19.6085
19.6561
19.7831
20.0943
20.4829
20.7083
20.9527
21.3856
21.9927
23.0311
24.3326
25.6628
26.7931
27.7646
28.6282
29.4049
29.9426
30.1866
30.09
29.5518
28.5011
27.0942
25.2697
23.1227
20.8326
18.4967
16.232
14.1652
12.4171
11.0167
9.94858
9.2098
8.63955
8.23394
7.93374
7.7101
7.52943
7.352
7.16431
6.96335
6.74919
6.54607
6.34772
6.17437
6.01743
5.88654
5.77016
5.67424
5.59244
5.52601
5.47086
5.42448
5.38256
5.34385
5.30217
5.25284
5.20491
5.15396
5.10624