/*--------------------------------*- C++ -*----------------------------------*\
| =========                 |                                                 |
| \\      /  F ield         | OpenFOAM: The Open Source CFD Toolbox           |
|  \\    /   O peration     | Version:  4.1                                   |
|   \\  /    A nd           | Web:      www.OpenFOAM.org                      |
|    \\/     M anipulation  |                                                 |
\*---------------------------------------------------------------------------*/
FoamFile
{
    version     2.0;
    format      ascii;
    class       surfaceScalarField;
    location    "20";
    object      phi;
}
// * * * * * * * * * * * * * * * * * * * * * * * * * * * * * * * * * * * * * //

dimensions      [0 3 -1 0 0 0 0];

internalField   nonuniform List<scalar> 
52920
(
1952.2
-68.575
2016.56
-63.3943
2081.28
-63.0575
2144.74
-61.6641
2207.28
-59.8408
2268.92
-60.0246
2330.95
-59.5168
2393.14
-60.4006
2456.12
-60.9087
2520.63
-62.3019
2585.03
-63.7479
2652.7
-65.4146
2717.09
-66.3808
2787.99
-67.233
2852.96
-67.0589
2922.43
-67.0164
2984.38
-65.5696
3052.18
-64.3762
3114.91
-63.4606
3181.5
-65.6028
3251.04
-67.9255
3318.88
-71.188
3387.1
-70.964
3452.96
-63.905
3506.21
-52.56
3546.6
-41.4147
3583.53
-38.6037
3623.65
-44.4211
3669.25
-51.2825
3721.42
-58.7757
3780.76
-67.3117
3853.04
-78.7205
3933.36
-89.0154
4020.62
-93.5801
4108.3
-95.7676
4204.52
-102.837
4310.96
-113.215
4428.98
-124.127
4556.52
-133.435
4690.86
-140.018
4829.06
-143.376
4967.63
-143.661
5104.88
-141.681
5238.49
-138.093
5368.54
-133.724
5491.76
-128.832
5606.91
-123.482
5727.4
-119.487
5837.06
-114.429
5949.75
-111.055
6054.36
-107.482
6160.91
-105.186
6262.1
-102.965
6364.53
-101.533
6463.88
-100.144
6564.06
-99.1942
6661.82
-98.2321
6760.36
-97.571
6857.09
-96.8596
6954.53
-96.3653
7050.37
-95.8078
7146.86
-95.4297
7242.16
-94.991
7337.99
-94.6946
7432.84
-94.3544
7528.07
-94.1337
7622.69
-93.8982
7717.5
-93.7492
7811.98
-93.6126
7906.48
-93.5337
8000.93
-93.4857
8095.25
-93.4725
8189.77
-93.5075
8284.06
-93.5667
8378.72
-93.6854
8473.15
-93.8234
8568.13
-94.0214
8662.89
-94.2346
8758.27
-94.4998
8853.52
-94.7756
8949.44
-95.085
9045.29
-95.3987
9141.8
-95.7282
9238.28
-96.0574
9335.43
-96.3843
9432.56
-96.7073
9530.31
-97.0134
9628.03
-97.3142
9726.33
-97.5856
9824.56
-97.8552
9923.32
-98.0907
10022
-98.3335
10121.1
-98.5434
10220.1
-98.7732
10319.6
-98.9872
10418.8
-99.1583
10518.9
-99.6706
10618
-99.0519
10723.8
-105.479
-97.4811
2081.85
-144.073
2154.44
-134.68
2228.1
-134.799
2300.35
-132.051
2372.94
-129.463
2444.12
-129.463
2516.85
-129.422
2589.39
-131.061
2663.66
-132.952
2739.63
-136.142
2815.94
-139.686
2896.03
-143.258
2973.05
-146.16
3057.02
-148.422
3135.07
-148.923
3218.31
-149.141
3293.98
-146.237
3376.33
-143.616
3454.03
-141.32
3536.86
-144.845
3623.51
-149.069
3708.8
-155.881
3794.58
-156
3877.48
-143.017
3946.76
-120.539
4001.62
-100.616
4052.67
-96.184
4107.27
-106.887
4168.23
-121.422
4236.88
-137.917
4314.53
-156.805
4406.42
-179.915
4506.58
-200.429
4612.57
-209.178
4718.23
-214.064
4831.79
-227.783
4955.07
-247.331
5089.07
-267.093
5231.51
-283.678
5379.5
-295.05
5529.95
-300.297
5679.45
-299.78
5826.3
-294.804
5968.38
-286.747
6105.71
-276.984
6235.38
-266.219
6356.27
-254.783
6480.62
-244.762
6593.61
-233.929
6708
-225.312
6813.6
-217.137
6919.68
-210.843
7019.49
-205.152
7119.15
-200.74
7214.61
-196.638
7309.53
-193.27
7400.83
-190.048
7491.55
-187.307
7579.26
-184.62
7666.35
-182.282
7750.65
-179.967
7834.35
-177.948
7915.69
-175.942
7996.38
-174.182
8074.99
-172.453
8152.87
-170.932
8229.09
-169.47
8304.49
-168.17
8378.58
-166.957
8451.73
-165.862
8523.92
-164.853
8595.07
-163.924
8665.52
-163.076
8734.85
-162.284
8803.64
-161.564
8871.24
-160.879
8938.4
-160.243
9004.33
-159.628
9069.81
-159.042
9134.04
-158.454
9197.77
-157.869
9260.22
-157.263
9322.08
-156.641
9382.62
-155.989
9442.5
-155.303
9501.03
-154.59
9558.81
-153.836
9615.2
-153.062
9670.81
-152.242
9724.99
-151.419
9778.36
-150.559
9830.27
-149.719
9881.39
-148.849
9931.05
-148.027
9979.92
-147.177
10027.4
-146.398
10073.9
-145.627
10119.7
-144.75
10160.7
-146.078
-144.801
2228.33
-227.561
2311.52
-216.969
2395.98
-217.579
2479.42
-213.705
2563.44
-210.835
2646.42
-210.863
2731
-211.594
2815.66
-213.987
2902.08
-217.395
2990.25
-222.13
3078.9
-227.594
3171.07
-233.26
3260.55
-237.19
3356.2
-240.22
3446.32
-240.344
3540.72
-240.51
3627.89
-236.242
3720.68
-232.87
3808.81
-230.689
3901.01
-236.905
3995.84
-244.078
4088.93
-253.289
4181.75
-252.209
4271.12
-231.478
4347.37
-196.268
4409.96
-162.693
4468.79
-154.282
4530.68
-170.262
4597.64
-190.793
4670.4
-213.858
4749.35
-239.938
4838.78
-272.49
4933.52
-300.604
5031.5
-310.222
5126.88
-314.475
5226.75
-331.706
5332.1
-357.471
5443.43
-383.008
5558.58
-403.497
5675.12
-416.219
5790.69
-420.04
5902.66
-415.854
6009.96
-405.529
6111.02
-391.227
6206.21
-374.761
6292.94
-357.366
6370.09
-339.74
6450.07
-322.3
6517.98
-306.103
6586.84
-291.417
6646.07
-278.885
6705.15
-267.793
6756.95
-258.568
6807.82
-250.24
6853.44
-242.992
6897.72
-236.194
6937.32
-230.118
6975.54
-224.267
7009.72
-218.918
7042.55
-213.723
7071.6
-208.966
7099.37
-204.334
7123.91
-200.071
7147.2
-195.955
7167.62
-192.203
7186.82
-188.623
7203.73
-185.386
7219.42
-182.37
7233.37
-179.675
7246.12
-177.232
7257.68
-175.035
7268.09
-173.103
7277.79
-171.323
7286.37
-169.803
7294.57
-168.331
7301.66
-167.08
7308.58
-165.773
7314.38
-164.641
7320.01
-163.379
7324.47
-162.228
7328.7
-160.881
7331.69
-159.602
7334.29
-158.104
7335.55
-156.653
7336.33
-154.979
7335.7
-153.37
7334.49
-151.564
7331.84
-149.855
7328.61
-147.98
7323.96
-146.259
7318.78
-144.419
7312.26
-142.795
7305.38
-141.094
7297.31
-139.686
7289.01
-138.158
7279.86
-137.175
7270.15
-135.321
7261.77
-136.333
7243.46
-127.338
-140.284
2368.79
-316.788
2460.41
-307.345
2552.92
-308.337
2644.12
-303.301
2735.39
-299.537
2825.15
-299.09
2915.69
-299.655
3005.63
-302.24
3096.37
-306.148
3187.85
-311.745
3278.76
-318.149
3371.82
-324.333
3461.12
-328.797
3554.73
-331.451
3641.71
-330.744
3731.28
-329.066
3812.62
-322.195
3897.71
-315.151
3976.32
-309.987
4056.6
-313.979
4137.22
-320.648
4214.36
-330.149
4289.57
-326.752
4360.7
-299.678
4419.85
-253.731
4466.91
-213.47
4510.72
-203.239
4556.46
-221.935
4603.94
-246.353
4651.94
-271.208
4698.51
-298.583
4748.17
-331.373
4798.68
-362.499
4849.84
-370.963
4895.01
-372.466
4939.93
-388.633
4984.64
-414.382
5029.78
-438.908
5074.16
-458.014
5116.94
-468.866
5157.57
-470.365
5195.13
-463.556
5229.95
-450.196
5261.24
-432.703
5289.99
-412.78
5313.3
-392.189
5329.91
-371.089
5354
-348.853
5368.01
-329.607
5386.8
-310.857
5397.56
-295.594
5411.15
-281.28
5418.83
-269.718
5427.94
-258.922
5433.11
-249.693
5438.89
-240.846
5441.1
-233.061
5443.64
-225.368
5443.07
-218.415
5442.64
-211.514
5439.17
-205.27
5435.75
-199.093
5429.77
-193.484
5423.72
-188.037
5415.45
-183.156
5407.02
-178.505
5397.02
-174.39
5386.8
-170.626
5375.65
-167.385
5364.3
-164.586
5352.77
-162.242
5341.16
-160.387
5330.1
-158.875
5319.09
-157.83
5309.18
-156.977
5299.47
-156.489
5291.25
-156.022
5283.3
-155.796
5276.94
-155.467
5270.9
-155.242
5266.45
-154.824
5262.3
-154.427
5259.64
-153.82
5257.28
-153.215
5256.4
-152.432
5255.87
-151.698
5256.83
-150.86
5258.25
-150.134
5261.29
-149.38
5264.94
-148.825
5270.39
-148.331
5276.65
-148.113
5284.97
-148.026
5294.32
-148.296
5305.98
-148.666
5318.85
-149.583
5334.51
-150.05
5351.04
-152.587
5373.62
-149.329
-163.741
2479.92
-407.838
2572.92
-399.585
2664.84
-398.699
2753.93
-390.802
2841.67
-384.905
2926.57
-382.521
3010.74
-381.612
3092.86
-382.689
3174.06
-385.443
3254.12
-389.656
3331.54
-394.725
3408.76
-399.352
3479.8
-401.093
3552.39
-400.148
3615.84
-395.435
3679.58
-389.592
3733.04
-378.817
3788.17
-366.812
3833.87
-357.882
3878.21
-358.814
3920.14
-363.439
3956.4
-370.907
3989.13
-362.986
4017.64
-327.477
4035.54
-271.421
4043.26
-221.057
4048.54
-207.62
4054.51
-229.195
4058.66
-253.65
4057.83
-274.105
4047.14
-293.959
4031.56
-319.155
4012.38
-349.618
3991.98
-353.061
3962.19
-348.758
3928.56
-359.232
3891.16
-382.445
3852.41
-405.608
3813.87
-425.316
3778.25
-439.249
3748.39
-446.009
3725.52
-446.247
3711
-440.332
3703.69
-430.131
3703.75
-416.356
3705.97
-401.087
3707.58
-384.725
3725.72
-362.457
3736.37
-346.493
3757.87
-327.544
3772.96
-314.243
3795.06
-299.792
3812.54
-289.446
3834.48
-278.548
3853.73
-269.891
3875.9
-260.805
3895.44
-253.174
3917.16
-245.063
3936.58
-237.891
3957.66
-230.398
3976.3
-223.71
3996.25
-216.849
4014.16
-210.665
4033.06
-204.552
4050.15
-199.117
4067.93
-193.934
4084.54
-189.404
4101.56
-185.335
4118.01
-181.92
4134.64
-179.104
4151.37
-176.877
4168.17
-175.306
4185.68
-174.212
4203.18
-173.722
4221.85
-173.544
4240.55
-173.821
4260.76
-174.225
4281.09
-174.92
4303.06
-175.604
4325.28
-176.413
4349.27
-177.109
4373.62
-177.835
4399.76
-178.424
4426.4
-179.017
4454.9
-179.499
4484.02
-180.028
4514.98
-180.498
4546.62
-181.066
4580.1
-181.625
4614.25
-182.35
4650.16
-183.126
4686.65
-184.128
4724.83
-185.225
4763.45
-186.617
4803.64
-188.068
4844.01
-189.884
4886.18
-191.551
4927.49
-193.846
4975.6
-196.981
-206.185
2528.38
-488.296
2609.74
-479.613
2688.33
-475.43
2763.18
-464.026
2835.67
-454.877
2904.04
-449.278
2969.97
-445.008
3031.83
-442.69
3090.32
-441.763
3144.88
-442.159
3193.69
-442.976
3239.14
-442.57
3274.96
-439.052
3309.28
-431.801
3331.21
-420.963
3351.48
-408.612
3359.66
-392.764
3369.18
-373.401
3367.1
-357.845
3361.75
-350.158
3352.08
-350.613
3335.56
-355.007
3315.65
-342.528
3292.73
-301.477
3260.1
-235.105
3217.93
-183.221
3173.66
-169.839
3128.92
-194.066
3080.1
-219.265
3024.83
-236.061
2954.71
-245.222
2871.35
-255.239
2775.23
-278.337
2671.29
-271.571
2552.83
-256.624
2433.44
-264.321
2321.38
-296.11
2227.21
-335.838
2158.1
-380.543
2119.29
-424.725
2112.13
-462.523
2132.7
-490.402
2176.05
-505.662
2234.27
-509.696
2302.63
-503.555
2371
-491.098
2434.01
-473.965
2513.16
-447.177
2577.28
-426.634
2649.92
-402.294
2710.21
-384.229
2775.21
-365.356
2831.4
-351.163
2890.11
-337.043
2943.24
-325.451
2997.7
-313.9
3047.3
-303.945
3097.9
-293.832
3144.54
-284.698
3191.96
-275.519
3235.65
-267.157
3280.05
-258.892
3321.44
-251.325
3363.34
-244.071
3402.69
-237.536
3442.33
-231.462
3480.22
-226.101
3518.13
-221.377
3554.98
-217.391
3591.57
-214.138
3627.78
-211.57
3663.54
-209.747
3699.48
-208.502
3734.81
-207.923
3770.72
-207.764
3806.02
-208.105
3842.26
-208.688
3877.97
-209.599
3914.78
-210.615
3951.21
-211.771
3988.88
-212.915
4026.31
-214.07
4064.94
-215.157
4103.41
-216.194
4143.01
-217.139
4182.38
-218.027
4222.66
-218.818
4262.53
-219.547
4303.01
-220.175
4342.77
-220.777
4382.78
-221.317
4421.72
-221.877
4460.58
-222.417
4497.99
-223.06
4535
-223.674
4570.21
-224.425
4604.9
-225.074
4637.56
-226.067
4669.4
-228.088
-234.89
2479.58
-553.588
2545.23
-544.501
2606.15
-534.664
2661.26
-517.517
2711.48
-502.577
2754.58
-490.787
2791.98
-479.953
2821.97
-470.805
2845.22
-462.824
2861.3
-455.706
2868.56
-449.214
2870.15
-441.345
2859.81
-430.224
2847.12
-413.693
2820.24
-395.567
2792.17
-375.589
2752.24
-357.108
2717.51
-333.164
2672.12
-315.627
2624.6
-303.274
2572.57
-300.223
2513.43
-304.302
2452.95
-289.595
2392.28
-240.22
2320.91
-163.363
2237.77
-99.6462
2150.85
-80.8564
2061.66
-105.498
1966.56
-123.895
1866.01
-134.396
1741.56
-127.311
1584.04
-104.346
1396.49
-109.212
1202.2
-84.3257
1015.19
-88.2715
885.967
-148.325
837.931
-263.062
873.806
-384.42
976.443
-494.692
1123.07
-581.7
1292.24
-640.19
1466.25
-672.117
1635.58
-680.796
1792.89
-672.363
1937.19
-651.367
2061.96
-623.613
2165.7
-591.889
2276.3
-551.402
2361.89
-518.602
2450.44
-484.435
2521.18
-458.291
2593.53
-433.091
2654.12
-413.811
2715.46
-395.467
2769.6
-380.335
2824.04
-365.697
2872.65
-353.022
2921.71
-340.53
2966.24
-329.182
3011.3
-318.066
3052.29
-307.85
3093.91
-297.977
3132.36
-288.869
3171.34
-280.303
3207.71
-272.543
3244.44
-265.471
3279.46
-259.241
3314.61
-253.854
3348.79
-249.356
3382.86
-245.76
3416.69
-242.991
3450.21
-241.098
3484.09
-239.922
3517.54
-239.511
3551.8
-239.656
3585.64
-240.376
3620.67
-241.464
3655.36
-242.922
3691.35
-244.563
3727.07
-246.326
3764.08
-248.068
3800.75
-249.721
3838.43
-251.197
3875.53
-252.434
3913.26
-253.385
3950.04
-254.031
3986.87
-254.319
4022.27
-254.275
4057.17
-253.853
4090.14
-253.167
4122.11
-252.178
4151.7
-251.035
4179.96
-249.689
4205.52
-248.364
4229.55
-246.911
4250.71
-245.549
4270.35
-244.022
4287.69
-243.354
4299.91
-239.834
-248.012
2366.77
-599.266
2410.09
-586.27
2444
-566.393
2467.82
-539.432
2482.96
-514.819
2487.75
-493.549
2484.52
-473.608
2472.31
-456.072
2452.58
-440.174
2425.59
-425.835
2390.2
-412.799
2350.97
-398.828
2301.34
-383.136
2253.04
-361.319
2191.33
-338.744
2131.4
-313.435
2060.36
-295.543
2001.48
-270.589
1935.21
-254.649
1871.65
-235.773
1805.17
-230.457
1730.66
-232.39
1656.42
-214.819
1584.34
-161.622
1495.86
-65.8729
1384.78
1.95561
1260.94
24.2233
1129.61
-10.7519
973.392
-25.2857
774.438
-7.34749
520.478
43.9191
251.901
94.3622
34.0889
16.9473
-53.2836
-82.0523
-5.81546
-226.487
181.92
-397.634
423.519
-554.948
675.984
-677.948
921.571
-776.793
1154.01
-847.573
1370.41
-887.066
1567.78
-897.999
1746.37
-884.955
1904.96
-854.817
2045.95
-813.055
2165.03
-765.979
2261.8
-716.072
2363.62
-660.364
2440.97
-612.819
2520.29
-567.045
2582.23
-530.519
2645.17
-497.417
2696.68
-471.264
2748.66
-447.742
2793.68
-428.056
2838.92
-409.871
2878.56
-393.977
2918.63
-378.898
2954.32
-365.123
2990.55
-352.022
3022.78
-339.905
3055.66
-328.484
3085.39
-317.918
3115.68
-308.172
3143.39
-299.344
3171.53
-291.442
3198.03
-284.524
3224.79
-278.659
3250.73
-273.843
3276.74
-270.11
3302.74
-267.37
3328.7
-265.655
3355.36
-264.814
3381.91
-264.867
3409.65
-265.607
3437.32
-266.998
3466.53
-268.823
3495.64
-271.009
3526.27
-273.342
3556.68
-275.668
3588.37
-277.831
3619.53
-279.674
3651.46
-281.122
3682.44
-282.051
3713.65
-282.449
3743.39
-282.256
3772.74
-281.473
3800.14
-280.096
3826.65
-278.161
3850.82
-275.778
3873.76
-273.01
3894.15
-270.003
3913.22
-266.817
3929.7
-263.675
3945
-260.567
3957.88
-257.614
3969.96
-254.746
3980.61
-253.45
3987.24
-245.605
-257.005
2186.39
-618.2
2193.89
-592.813
2186.92
-557.338
2168.37
-518.871
2141.85
-485.031
2106.81
-456.355
2066.66
-430.001
2020.77
-407.455
1971.15
-387.269
1918.19
-369.025
1860.49
-353.5
1803.82
-337.626
1740.07
-321.805
1683.87
-296.36
1614.83
-272.566
1550.14
-240.969
1471.26
-224.85
1410.07
-200.179
1342.68
-193.15
1284.1
-178.54
1226.48
-175.668
1158.29
-182.599
1088.81
-162.73
1022.88
-95.5288
930.712
23.9132
797.961
135.943
638.137
187.056
418.959
199.073
53.0372
330.962
-419.896
457.476
-628.712
241.156
-498.681
-44.0788
-326.083
-173.476
-132.544
-274.744
65.7044
-436.646
304.391
-638.663
546.41
-800.31
784.439
-918.478
1012.81
-1007.47
1228.98
-1065.86
1431.52
-1090.91
1618
-1085.74
1788.23
-1055.49
1940.61
-1007.64
2076.81
-948.652
2192.35
-885.283
2286.46
-819.979
2384.6
-750.726
2459.37
-691.29
2535.23
-635.744
2594.23
-591.231
2653.54
-551.72
2701.63
-520.481
2749.72
-492.695
2790.9
-469.524
2831.98
-448.259
2867.4
-429.639
2902.95
-412.082
2933.93
-395.957
2965.14
-380.687
2992.06
-366.463
3019.32
-353.122
3043.13
-340.737
3067.25
-329.392
3088.51
-319.125
3110.02
-310.036
3129.69
-302.161
3149.52
-295.598
3168.43
-290.341
3187.39
-286.407
3206.35
-283.71
3225.33
-282.248
3245.09
-281.882
3264.84
-282.557
3285.89
-284.067
3306.93
-286.288
3329.58
-289.003
3352.13
-292.043
3376.21
-295.191
3400.02
-298.208
3425.14
-300.934
3449.7
-303.16
3475.13
-304.813
3499.69
-305.739
3524.73
-305.942
3548.56
-305.352
3572.43
-303.991
3594.81
-301.87
3616.92
-299.063
3637.36
-295.724
3657.39
-291.966
3675.74
-287.997
3693.77
-283.914
3710.26
-279.995
3726.7
-276.283
3741.87
-272.834
3757.38
-269.627
3772.52
-268.572
3786.24
-258.88
-272.258
1922.44
-588.318
1884.7
-553.067
1840.29
-510.049
1792.17
-468.136
1742.96
-431.779
1690.56
-400.919
1637.93
-372.694
1583.54
-349.071
1529.25
-328.293
1475.05
-310.083
1418.64
-295.194
1366.87
-280.269
1309.08
-267.85
1263.85
-244.648
1204.15
-221.381
1149.94
-183.956
1074.38
-166.647
1018.24
-140.656
951.467
-138.371
898.144
-121.697
853.767
-124.006
798.906
-130.561
740.375
-102.732
691.738
-34.4388
586.737
136.714
410.634
286.399
176.636
381.787
-174.101
492.584
-473.661
563.752
-555.345
469.308
-509.436
113.327
-386.348
-233.977
-241.879
-396.228
-61.9129
-522.858
128.396
-690.199
340.325
-893.047
558.61
-1054.45
780.944
-1172.04
999.941
-1255.45
1210.97
-1304.21
1410.99
-1316.36
1596.61
-1295.47
1766.8
-1247.7
1919.62
-1181.29
2056.23
-1103.71
2172.3
-1022.21
2267.01
-939.641
2364.35
-855.095
2438.86
-781.437
2513.52
-714.05
2571.71
-659.195
2629.61
-611.477
2676.58
-573.275
2723.2
-540.007
2762.99
-512.079
2802.4
-486.879
2836.07
-464.674
2869.56
-443.999
2898.24
-424.931
2926.81
-407.042
2950.79
-390.323
2974.78
-374.761
2995
-360.321
3015.23
-347.169
3032.29
-335.3
3049.36
-324.852
3064.31
-315.853
3079.18
-308.417
3092.91
-302.534
3106.49
-298.222
3119.89
-295.395
3133.15
-294.023
3147.07
-293.949
3160.84
-295.091
3175.83
-297.202
3190.71
-300.128
3207.22
-303.612
3223.62
-307.457
3241.72
-311.406
3259.71
-315.186
3279.37
-318.621
3298.86
-321.466
3319.78
-323.654
3340.43
-325.001
3362.29
-325.533
3383.7
-325.152
3406.01
-323.922
3427.69
-321.827
3450.04
-319.007
3471.64
-315.613
3493.79
-311.827
3515.18
-307.84
3537.16
-303.82
3558.4
-299.988
3580.31
-296.474
3601.52
-293.19
3623.37
-290.06
3645.13
-289.723
3665.78
-278.649
-293.359
1578.89
-546.804
1538.44
-511.289
1494.5
-463.13
1448.41
-419.334
1402.51
-381.253
1354.05
-349.415
1306.48
-320.12
1257.97
-296.668
1210.82
-276.431
1165.05
-258.784
1117.63
-245.659
1076.69
-232.532
1028.69
-223.546
996.958
-199.094
947.896
-175.797
905.827
-129.254
834.489
-106.335
781.745
-72.7294
708.373
-72.12
650.666
-65.7631
614.216
-90.336
568.049
-119.826
515.329
-85.4061
479.632
5.0709
351.441
257.791
132.535
511.834
-158.747
684.428
-481.244
823.997
-629.681
725.326
-602.435
453.619
-506.415
31.1374
-386.091
-341.71
-242.499
-531.966
-67.6181
-676.228
121.623
-867.567
327.637
-1088.94
542.34
-1263.05
761.885
-1386.71
979.103
-1468.58
1188.9
-1510.43
1387.92
-1511.66
1572.7
-1476.95
1742.07
-1413.36
1894.03
-1330
2029.6
-1235.44
2144.62
-1137.63
2238.33
-1039.86
2333.75
-941.443
2406.81
-856.103
2479.51
-778.872
2536.26
-716.359
2592.52
-662.377
2638.29
-619.391
2683.6
-581.99
2722.3
-550.691
2760.5
-522.341
2793.01
-497.269
2825.23
-473.815
2852.57
-452.065
2879.71
-431.567
2902.12
-412.307
2924.44
-394.328
2942.8
-377.595
2961.04
-362.337
2975.88
-348.533
2990.53
-336.379
3002.79
-325.911
3014.73
-317.259
3025.23
-310.438
3035.33
-305.444
3044.98
-302.214
3054.23
-300.684
3063.91
-300.717
3073.24
-302.164
3083.67
-304.812
3093.9
-308.434
3105.81
-312.822
3117.72
-317.694
3131.56
-322.824
3145.58
-327.845
3161.7
-332.592
3178.08
-336.74
3196.47
-340.227
3215.11
-342.797
3235.61
-344.487
3256.26
-345.149
3278.49
-344.861
3300.72
-343.577
3324.28
-341.469
3347.72
-338.705
3372.31
-335.482
3396.66
-331.993
3422.03
-328.406
3446.95
-324.914
3472.68
-321.622
3497.71
-318.416
3523.18
-315.005
3548.33
-314.944
3572
-301.946
-318.19
1333.35
-506.788
1294.05
-469.308
1252.2
-417.405
1209.19
-372.755
1167.71
-334.125
1124.44
-301.758
1083.21
-272.152
1041.67
-249.267
1002.4
-230.237
965.375
-214.757
926.823
-204.18
896.029
-193.428
856.363
-189.16
835.313
-169.413
793.756
-147.434
761.144
-95.2647
692.957
-64.6515
639.788
-18.3612
555.497
-7.20138
488.755
1.33345
451.513
-38.6502
409.256
-77.255
373.423
-47.308
333.441
67.2458
139.276
433.792
-139.03
762.089
-431.969
948.704
-626.794
983.103
-653.998
701.715
-603.761
340.861
-503.516
-124.914
-384.447
-506.822
-242.977
-723.545
-68.6323
-891.064
120.57
-1096.07
323.349
-1321.58
534.696
-1501.58
750.428
-1627.15
964.019
-1705.53
1170.69
-1739.37
1367.1
-1729.04
1549.73
-1679.76
1717.14
-1599.51
1867.25
-1498.18
2000.86
-1385.26
2113.97
-1269.61
2205.89
-1154.74
2298.69
-1041.07
2369.68
-941.754
2439.87
-852.855
2494.71
-780.439
2548.87
-718.653
2593
-669.143
2636.6
-626.52
2673.86
-590.671
2710.64
-558.484
2741.96
-529.935
2773.09
-503.423
2799.52
-478.811
2825.86
-455.711
2847.57
-433.967
2869.27
-413.676
2886.99
-394.755
2904.59
-377.447
2918.67
-361.745
2932.45
-347.849
2943.64
-335.822
2954.33
-325.815
2963.35
-317.854
2971.71
-311.965
2979.38
-308.089
2986.4
-306.169
2993.64
-306.051
3000.33
-307.604
3008.01
-310.591
3015.4
-314.806
3024.5
-319.998
3033.63
-325.873
3044.86
-332.143
3056.41
-338.407
3070.3
-344.458
3084.66
-349.933
3101.32
-354.746
3118.51
-358.612
3137.93
-361.552
3157.83
-363.407
3179.72
-364.26
3201.98
-364.049
3225.98
-362.963
3250.22
-361.16
3275.93
-358.833
3301.62
-356.108
3328.48
-353.155
3354.94
-350.102
3382.15
-347.084
3408.61
-343.981
3435.54
-340.478
3461.99
-340.702
3487.8
-326.826
-346.358
1139.62
-472.847
1106.03
-433.951
1071.62
-379.218
1036.9
-334.55
1004.46
-295.624
970.095
-263.363
937.851
-233.273
904.817
-211.075
873.8
-192.982
844.897
-178.67
813.89
-170.541
791.168
-162.023
757.352
-159.984
743.151
-137.631
704.97
-112.939
677.419
-51.5146
607.267
-6.55657
551.416
58.0568
463.698
74.1278
391.771
70.3794
342.705
6.33581
289.673
-75.31
278.624
-106.228
200.538
155.937
-95.8625
724.176
-397.374
1075.04
-628.261
1193.61
-697.302
1062.86
-688.231
709.813
-632.341
310.64
-512.797
-217.327
-393.422
-603.958
-247.485
-850.784
-69.3783
-1041.52
118.632
-1264.88
318.543
-1506.44
526.187
-1698.59
738.083
-1830.11
948.414
-1907.98
1152.52
-1936.39
1346.86
-1916.5
1527.71
-1854.38
1693.35
-1758.84
1841.64
-1640.74
1973.24
-1510.82
2084.3
-1378.74
2174.15
-1248.52
2264.17
-1120.89
2332.74
-1010.17
2400.09
-911.687
2452.49
-832.141
2504.04
-764.512
2545.91
-710.691
2587.2
-664.341
2622.5
-625.574
2657.46
-590.696
2687.34
-559.785
2717.29
-530.968
2742.86
-504.133
2768.62
-478.795
2789.94
-454.814
2811.45
-432.305
2829.07
-411.197
2846.67
-391.789
2860.72
-374.063
2874.48
-358.285
2885.54
-344.526
2896.01
-332.976
2904.64
-323.697
2912.47
-316.709
2919.39
-311.989
2925.48
-309.472
2931.6
-309.05
2937
-310.556
2943.26
-313.816
2949.13
-318.567
2956.65
-324.618
2964.15
-331.564
2973.75
-339.146
2983.64
-346.85
2995.92
-354.479
3008.68
-361.586
3023.89
-368.109
3039.74
-373.687
3058.05
-378.347
3077.05
-381.869
3098.31
-384.34
3120.2
-385.622
3144.07
-385.889
3168.36
-385.287
3194.27
-383.98
3220.23
-382.066
3247.39
-379.706
3274.18
-377.055
3301.78
-374.258
3328.82
-371.339
3356.82
-368.046
3384.67
-368.704
3413.51
-355.336
-378.955
1004.42
-447.884
981.308
-407.5
957.834
-350.954
933.328
-305.612
910.317
-265.533
884.037
-231.468
858.897
-199.584
831.793
-176.432
805.915
-158.186
781.638
-145.46
754.643
-139.635
736.364
-133.305
705.525
-135.31
694.695
-117.696
657.543
-93.3277
631.747
-28.1424
560.362
30.3018
505.732
110.853
419.544
139.473
340.832
145.68
272.047
89.298
200.235
-1.71965
178.601
-92.8017
26.0586
327.345
-319.192
1044.32
-587.61
1321.66
-719.985
1302.49
-715.4
1022.28
-703.097
642.533
-644.141
191.885
-519.235
-379.587
-391.456
-765.398
-243.914
-1032.93
-70.4012
-1242.5
114.868
-1478.75
311.632
-1726.91
516.084
-1925.5
725.063
-2059.89
933.014
-2135.79
1135.18
-2157.68
1327.79
-2127.39
1506.98
-2051.5
1670.9
-1939.76
1817.33
-1803.95
1946.87
-1655.72
2055.79
-1505.47
2143.47
-1358.01
2230.51
-1214.71
2296.49
-1089.95
2360.72
-979.82
2410.43
-890.502
2458.97
-815.264
2498.24
-755.2
2536.89
-703.974
2569.97
-661.139
2602.93
-623.018
2631.24
-589.293
2659.93
-558.096
2684.55
-529.037
2709.65
-501.661
2730.51
-475.678
2751.8
-451.231
2769.29
-428.213
2786.93
-406.932
2801.04
-387.389
2814.94
-369.865
2826.11
-354.457
2836.68
-341.394
2845.32
-330.743
2853.06
-322.584
2859.78
-316.899
2865.52
-313.667
2871.18
-312.771
2875.97
-314.107
2881.53
-317.469
2886.58
-322.623
2893.22
-329.31
2899.7
-337.117
2908.23
-345.712
2916.95
-354.584
2928.08
-363.499
2939.68
-372.008
2953.84
-380.025
2968.73
-387.177
2986.26
-393.428
3004.6
-398.536
3025.39
-402.551
3046.91
-405.299
3070.51
-406.916
3094.58
-407.527
3120.29
-407.296
3146.11
-406.275
3173.23
-404.679
3200.18
-402.706
3228.29
-400.595
3256.4
-398.512
3286.21
-396.347
3316.6
-398.301
3349.33
-387.068
-415.441
924.85
-433.025
911.907
-392.605
898.159
-332.926
881.585
-285.311
864.882
-242.162
843.253
-205.517
821.678
-170.789
797.159
-146.444
773.28
-127.757
750.695
-115.333
725.127
-111.678
708.744
-107.577
679.07
-110.413
669.523
-87.711
631.738
-57.1645
605.392
18.6495
535.711
91.3888
484.745
185.293
399.818
223.03
318.288
225.513
232.575
169.835
117.508
64.1473
-15.5916
-32.1924
-233.697
551.321
-492.631
1306.97
-698.899
1540.9
-752.511
1372.52
-728.247
1012.62
-729.927
668.37
-661.861
162.006
-527.052
-482.692
-391.616
-875.032
-248.559
-1153.78
-78.7153
-1384
107.334
-1643.64
302.802
-1905.47
505.249
-2115.14
712.148
-2255.71
918.225
-2331.92
1118.69
-2349.1
1309.66
-2309.64
1487.17
-2221.02
1649.26
-2093.85
1793.71
-1941.01
1921.03
-1775.36
2027.64
-1608.21
2112.97
-1445.11
2196.95
-1287.55
2260.17
-1151.42
2321.19
-1031.8
2368.04
-935.607
2413.51
-854.799
2450.09
-790.842
2486.1
-736.442
2516.97
-691.354
2547.93
-651.272
2574.63
-615.893
2601.97
-583.033
2625.48
-552.311
2649.74
-523.168
2669.88
-495.344
2690.67
-469.006
2707.76
-444.067
2725.15
-420.891
2739.06
-399.47
2752.87
-380.153
2763.96
-363.033
2774.48
-348.393
2783.04
-336.33
2790.69
-326.926
2797.24
-320.213
2802.76
-316.182
2808.13
-314.78
2812.56
-315.889
2817.73
-319.363
2822.29
-324.898
2828.38
-332.28
2834.21
-341.002
2842.04
-350.772
2849.98
-361.016
2860.38
-371.534
2871.28
-381.802
2884.86
-391.735
2899.25
-400.864
2916.39
-409.113
2934.4
-416.142
2954.93
-422.006
2976.21
-426.435
2999.63
-429.542
3023.55
-431.482
3049.27
-432.431
3075.3
-432.488
3102.97
-431.919
3130.94
-431.013
3160.68
-430.046
3191.1
-429.366
3223.91
-428.827
3257.94
-432.568
3294.81
-423.663
-455.927
886.265
-425.464
881.046
-383.617
873.208
-319.763
860.373
-267.538
845.995
-219.899
825.698
-178.808
804.951
-140.336
780.857
-113.605
757.265
-93.7354
734.938
-82.6595
709.56
-81.5944
693.953
-80.1047
664.834
-87.5329
656.025
-70.0938
618.237
-39.5908
592.375
39.1023
527.483
120.037
479.526
229.001
396.578
286.907
309.048
307.483
201.419
285.792
53.9412
207.859
-132.197
141.415
-374.684
795.158
-609.987
1523.35
-759.48
1671.76
-768.216
1358.19
-739.802
945.705
-726.261
598.956
-644.467
30.6054
-525.968
-629.669
-398.412
-1028.39
-257.893
-1320.54
-85.2395
-1577.36
100.483
-1851.71
294.354
-2118.82
494.467
-2334.04
699.119
-2477.88
903.25
-2552.87
1101.97
-2564.14
1291.18
-2514.67
1466.87
-2412.49
1626.96
-2269.19
1769.25
-2098.62
1894.19
-1914.45
1998.35
-1729.03
2081.28
-1548.4
2162.08
-1375.12
2222.56
-1224.88
2280.35
-1093.63
2324.44
-987.74
2366.92
-899.527
2401
-829.678
2434.55
-770.898
2463.42
-722.334
2492.55
-679.649
2517.74
-642.043
2543.76
-607.338
2566.12
-574.837
2589.39
-544.041
2608.62
-514.55
2628.66
-486.566
2645.04
-459.975
2661.87
-435.149
2675.26
-412.107
2688.67
-391.203
2699.38
-372.55
2709.61
-356.472
2717.89
-343.056
2725.29
-332.477
2731.62
-324.76
2736.93
-319.974
2742.11
-318.043
2746.35
-318.934
2751.33
-322.441
2755.66
-328.276
2761.49
-336.134
2766.98
-345.568
2774.49
-356.248
2782.1
-367.636
2792.28
-379.497
2803
-391.302
2816.51
-402.886
2830.85
-413.749
2848
-423.727
2866.03
-432.458
2886.63
-439.955
2908.05
-445.977
2931.75
-450.606
2956.17
-454.047
2982.7
-456.518
3009.97
-458.121
3039.38
-459.176
3069.66
-459.983
3102.24
-460.854
3136.02
-462.199
3172.5
-463.774
3210.41
-469.585
3251.11
-463.353
-499.107
873.996
-421.695
869.864
-377.48
862.76
-308.431
850.151
-251.137
835.787
-198.578
815.372
-153.81
794.524
-111.868
770.277
-83.6083
746.62
-63.2465
724.345
-52.5758
699.005
-54.0429
683.781
-55.2334
654.852
-63.4049
646.317
-39.0355
608.2
-0.64915
583.143
88.1535
521.215
179.044
476.226
298.08
397.649
367.2
303.258
400.729
179.821
401.742
21.5157
319.684
-192.843
304.119
-462.719
1068.91
-694.187
1763.15
-795.079
1787.02
-782.528
1364.89
-759.21
941.806
-735.005
605.298
-643.163
-17.6395
-535.883
-704.383
-412.523
-1125.2
-267.064
-1443.14
-91.9187
-1725.23
91.6845
-2014.06
284.226
-2293.78
482.473
-2518.39
685.293
-2668.43
887.796
-2744.25
1084.93
-2751.06
1272.43
-2692.32
1446.23
-2577.15
1604.24
-2418.07
1744.25
-2230.05
1866.68
-2027.98
1968.28
-1825.24
2048.65
-1628.58
2126.27
-1440.85
2183.9
-1279.3
2238.46
-1138.73
2279.81
-1026.37
2319.44
-933.079
2351.22
-859.954
2382.55
-798.705
2409.65
-748.563
2437.15
-704.531
2460.99
-665.756
2485.8
-629.756
2507.06
-595.867
2529.37
-563.516
2547.67
-532.358
2566.91
-502.644
2582.52
-474.284
2598.72
-447.719
2611.51
-422.955
2624.46
-400.412
2634.76
-380.177
2644.69
-362.633
2652.7
-347.893
2659.92
-336.144
2666.11
-327.474
2671.36
-321.971
2676.54
-319.605
2680.8
-320.31
2685.81
-323.928
2690.14
-330.111
2695.96
-338.605
2701.41
-348.937
2708.96
-360.867
2716.66
-373.767
2727.04
-387.416
2737.99
-401.174
2751.81
-414.836
2766.46
-427.794
2783.98
-439.866
2802.42
-450.639
2823.58
-460.172
2845.74
-468.175
2870.5
-474.741
2896.34
-480.112
2924.73
-484.518
2954.31
-488.072
2986.48
-491.102
3019.91
-493.895
3055.92
-496.74
3093.28
-500.105
3133.27
-503.518
3174.55
-511.216
3218.42
-506.992
-545.241
864.996
-417.673
860.984
-369.38
854.014
-295.714
841.35
-233.051
826.878
-175.466
806.323
-125.969
785.379
-79.9062
761.035
-49.059
737.476
-27.5404
715.375
-18.6391
689.957
-23.0418
674.869
-26.9927
645.821
-40.7956
637.61
-22.6992
600.784
13.5644
577.614
103.622
519.768
201.498
478.051
332.819
398.527
427.764
292.76
498.924
166.076
530.294
21.3232
451.355
-227.62
537.129
-542.613
1377.67
-760.06
1965.38
-818.447
1827.1
-795.533
1317
-773.382
877.623
-738.447
514.021
-643.99
-152.35
-543.875
-830.35
-419.335
-1272.47
-272.008
-1613.43
-99.4006
-1916.06
82.317
-2215.27
273.426
-2502.22
469.984
-2731.69
671.105
-2885.15
872.002
-2960.15
1067.49
-2961.24
1253.18
-2892.43
1424.96
-2763.59
1580.74
-2588.22
1718.32
-2382.29
1838.11
-2161.49
1937.04
-1940
2014.77