/*--------------------------------*- C++ -*----------------------------------*\
| =========                 |                                                 |
| \\      /  F ield         | OpenFOAM: The Open Source CFD Toolbox           |
|  \\    /   O peration     | Version:  4.1                                   |
|   \\  /    A nd           | Web:      www.OpenFOAM.org                      |
|    \\/     M anipulation  |                                                 |
\*---------------------------------------------------------------------------*/
FoamFile
{
    version     2.0;
    format      ascii;
    class       volVectorField;
    location    "20";
    object      U;
}
// * * * * * * * * * * * * * * * * * * * * * * * * * * * * * * * * * * * * * //

dimensions      [0 1 -1 0 0 0 0];

internalField   nonuniform List<vector> 
26785
(
(-5.35308e-16 0.00240005 15.6738)
(-4.92603e-16 0.00448978 15.6048)
(-3.44753e-16 0.00456293 15.5239)
(-7.62308e-16 0.0049144 15.4454)
(-1.11561e-15 0.00544602 15.3684)
(-3.0498e-15 0.00530015 15.2887)
(-3.24585e-16 0.00536761 15.2105)
(-1.12294e-15 0.00497656 15.1397)
(-2.66523e-17 0.00469309 15.076)
(-8.98383e-16 0.00413103 15.0246)
(-1.42302e-15 0.00356573 14.9788)
(-1.35752e-15 0.00292532 14.9454)
(-1.30108e-15 0.00252672 14.9144)
(-1.32235e-15 0.00221684 14.8913)
(-1.22351e-15 0.00225816 14.8732)
(-1.20416e-15 0.00235465 14.8555)
(-1.018e-15 0.00298926 14.83)
(-9.79243e-16 0.00353796 14.798)
(-7.6799e-16 0.00398196 14.77)
(6.54459e-15 0.0033023 14.741)
(-1.95407e-15 0.00243765 14.7287)
(-1.7298e-15 0.00108703 14.7192)
(-2.97241e-15 0.000922637 14.7048)
(-2.13231e-15 0.00320091 14.6896)
(-3.20073e-15 0.00693528 14.6477)
(-4.7939e-15 0.0105708 14.553)
(-4.55541e-15 0.0113748 14.4252)
(-4.67711e-15 0.00917819 14.299)
(-5.15357e-15 0.00672571 14.196)
(-3.6238e-15 0.00423409 14.122)
(-5.07326e-15 0.00157365 14.0745)
(7.85839e-15 -0.00207061 14.0671)
(-5.03122e-15 -0.00543304 14.1007)
(-9.60209e-15 -0.00688892 14.1596)
(-1.32533e-14 -0.0076427 14.2278)
(-9.37696e-15 -0.0102207 14.3066)
(-8.62071e-15 -0.0139857 14.4147)
(-8.05379e-15 -0.0178828 14.5584)
(-7.56419e-15 -0.0210986 14.7333)
(-8.20999e-15 -0.0232009 14.9299)
(-6.18181e-15 -0.0240004 15.1373)
(-4.2693e-15 -0.0235596 15.3448)
(-2.72469e-15 -0.0222012 15.5446)
(-4.99548e-16 -0.0202092 15.7306)
(-7.09613e-15 -0.0179383 15.8997)
(-1.15129e-14 -0.0155443 16.0508)
(-5.78009e-15 -0.0130337 16.1749)
(-5.56107e-15 -0.011175 16.2873)
(-5.28655e-15 -0.00903921 16.3913)
(-5.16203e-15 -0.00759956 16.4827)
(-6.92759e-15 -0.00619345 16.5641)
(-4.11777e-15 -0.00531548 16.6353)
(-3.95432e-15 -0.00454987 16.6996)
(-3.80012e-15 -0.00412076 16.7571)
(-3.77851e-15 -0.00376267 16.81)
(-3.82328e-15 -0.00358984 16.8592)
(-2.99292e-15 -0.0034314 16.9051)
(-2.99553e-15 -0.00338518 16.9479)
(-3.58795e-15 -0.00332105 16.9883)
(-1.40011e-15 -0.00332683 17.0266)
(-3.63684e-15 -0.0033025 17.0629)
(-3.54325e-15 -0.00333297 17.0972)
(-3.4463e-15 -0.00333499 17.1301)
(-1.62241e-15 -0.00338074 17.1615)
(-3.71006e-15 -0.00340517 17.1916)
(-3.53319e-15 -0.00346693 17.2204)
(-3.48197e-15 -0.00351895 17.2483)
(-3.45652e-15 -0.00359686 17.2751)
(-3.39759e-15 -0.00367456 17.3013)
(-3.25292e-15 -0.00376756 17.3265)
(-1.48627e-15 -0.00386694 17.3511)
(-3.53268e-15 -0.00397294 17.3751)
(-3.47505e-15 -0.00409172 17.3986)
(-3.47208e-15 -0.00421368 17.4217)
(-3.23522e-15 -0.00435392 17.4444)
(-2.15378e-15 -0.004498 17.4668)
(-3.39019e-15 -0.004663 17.489)
(-3.44077e-15 -0.00483333 17.5112)
(-3.28545e-15 -0.00502309 17.5334)
(-3.32077e-15 -0.00521838 17.5556)
(-3.40486e-15 -0.00542741 17.5779)
(-2.98645e-15 -0.0056399 17.6004)
(-2.90761e-15 -0.00585983 17.6231)
(-3.44587e-15 -0.00608147 17.6459)
(-3.14202e-15 -0.00630431 17.6689)
(-2.87205e-15 -0.00652806 17.6922)
(-3.08885e-15 -0.0067478 17.7156)
(-3.38676e-15 -0.00696791 17.7391)
(-3.90625e-15 -0.00717926 17.7627)
(-2.7142e-15 -0.0073917 17.7864)
(-2.90165e-15 -0.0075939 17.8101)
(-2.96125e-15 -0.00780104 17.8337)
(-2.92919e-15 -0.00799967 17.8572)
(-2.89139e-15 -0.00820798 17.8807)
(-2.94651e-15 -0.00841726 17.9041)
(-2.81177e-15 -0.00859238 17.9274)
(-2.70147e-15 -0.0089588 17.9504)
(-2.73987e-15 -0.00864549 17.9747)
(-2.71987e-15 -0.011375 17.995)
(-2.66132e-15 -0.00916994 18.0372)
(-3.69276e-16 0.00983911 16.702)
(-1.00887e-15 0.0154305 16.6564)
(-6.21156e-16 0.0155821 16.6017)
(-5.95251e-16 0.0168259 16.5504)
(5.64711e-16 0.0181693 16.5024)
(-5.2431e-16 0.0178793 16.4524)
(-4.78018e-16 0.0178787 16.4042)
(2.01414e-16 0.0168346 16.3642)
(-7.33371e-16 0.0158907 16.3311)
(-9.87901e-16 0.0142394 16.3121)
(-9.55893e-16 0.0124762 16.2986)
(-8.25739e-16 0.0107316 16.2985)
(-8.66816e-16 0.0095338 16.3009)
(-1.45339e-15 0.00865831 16.3116)
(-4.94734e-15 0.00880185 16.3267)
(-6.03499e-16 0.00892669 16.3423)
(8.24964e-16 0.010593 16.3497)
(2.0031e-15 0.0119505 16.351)
(2.7774e-16 0.0130798 16.3578)
(1.46117e-15 0.01073 16.3663)
(2.50664e-15 0.00807444 16.3946)
(8.07079e-15 0.00423201 16.4268)
(-2.77757e-15 0.00420942 16.4537)
(-6.49297e-16 0.0115498 16.4774)
(-3.75655e-16 0.0238776 16.4693)
(-1.1719e-15 0.0349645 16.401)
(-1.34442e-15 0.0371626 16.2944)
(-1.05563e-15 0.0306958 16.1889)
(-9.65657e-16 0.0226888 16.1085)
(-4.76695e-15 0.0139663 16.0596)
(-1.262e-14 0.00414837 16.0424)
(4.6328e-15 -0.00810998 16.071)
(1.0328e-15 -0.0189538 16.1423)
(2.4829e-16 -0.0234687 16.2353)
(-1.334e-14 -0.0258077 16.3323)
(1.74645e-15 -0.0332003 16.4371)
(1.12063e-15 -0.0439624 16.5688)
(3.65366e-16 -0.0549574 16.7331)
(5.68584e-16 -0.0641298 16.9247)
(4.1245e-16 -0.0702744 17.1335)
(-8.34671e-16 -0.0728801 17.3484)
(2.96189e-15 -0.0721681 17.559)
(4.39545e-15 -0.0689458 17.7575)
(6.68776e-15 -0.0640145 17.9386)
(1.31779e-15 -0.0582187 18.0995)
(2.82943e-15 -0.0519771 18.2394)
(1.92874e-15 -0.0453945 18.3505)
(2.1733e-15 -0.0399995 18.4469)
(1.93906e-15 -0.0341487 18.5318)
(1.79432e-15 -0.0296929 18.6014)
(2.19094e-15 -0.0254944 18.6584)
(2.80652e-15 -0.0224245 18.7029)
(2.14028e-15 -0.0197212 18.7381)
(1.83586e-15 -0.017767 18.764)
(2.59678e-15 -0.016031 18.7831)
(2.76188e-15 -0.0147261 18.7959)
(2.30294e-15 -0.0135118 18.803)
(2.24997e-15 -0.0125716 18.8048)
(2.5591e-15 -0.0116484 18.802)
(2.70942e-15 -0.010915 18.7949)
(2.7845e-15 -0.0101677 18.7839)
(2.60701e-15 -0.00957925 18.769)
(2.56627e-15 -0.008975 18.7509)
(2.78922e-15 -0.00850563 18.7297)
(2.8872e-15 -0.00803554 18.7057)
(2.96617e-15 -0.00768235 18.6791)
(3.00112e-15 -0.0073511 18.6503)
(3.14455e-15 -0.00710958 18.6194)
(4.6452e-15 -0.00690772 18.5868)
(2.58931e-15 -0.006768 18.5523)
(2.74274e-15 -0.00667357 18.5166)
(2.60273e-15 -0.00661805 18.4794)
(2.44887e-15 -0.00661197 18.4412)
(2.23898e-15 -0.00663462 18.4018)
(2.3772e-15 -0.0067111 18.3614)
(3.16445e-15 -0.00681424 18.3201)
(2.57857e-15 -0.0069712 18.2779)
(2.7421e-15 -0.00715552 18.2348)
(2.57902e-15 -0.00738964 18.1909)
(2.55259e-15 -0.00764731 18.1461)
(2.60975e-15 -0.00794246 18.1004)
(3.32075e-15 -0.00825371 18.0539)
(2.35725e-15 -0.00858783 18.0064)
(2.21456e-15 -0.00893065 17.958)
(2.32169e-15 -0.00928 17.9085)
(2.64816e-15 -0.0096333 17.8581)
(2.50089e-15 -0.00998003 17.8066)
(2.65088e-15 -0.0103268 17.754)
(3.36192e-15 -0.0106544 17.7004)
(2.14943e-15 -0.0109824 17.6457)
(2.26609e-15 -0.0112859 17.5899)
(2.31053e-15 -0.0115957 17.533)
(2.31345e-15 -0.0118789 17.4751)
(2.18359e-15 -0.0121756 17.4163)
(2.07616e-15 -0.0124542 17.3564)
(2.04802e-15 -0.0126992 17.2956)
(2.18246e-15 -0.0131338 17.2343)
(1.91764e-15 -0.0127639 17.1699)
(1.86458e-15 -0.0162611 17.1151)
(1.76648e-15 -0.0139859 17.0186)
(-5.70024e-16 0.0199516 17.8613)
(5.62162e-16 0.0277797 17.8491)
(1.92717e-15 0.0278511 17.832)
(2.70447e-15 0.030121 17.8186)
(-5.65559e-16 0.03196 17.8073)
(1.50945e-15 0.0318206 17.7938)
(-3.282e-16 0.0314247 17.7814)
(-5.26102e-17 0.029904 17.7759)
(2.42348e-17 0.0279745 17.7763)
(1.64693e-16 0.025183 17.7889)
(3.53422e-16 0.0220537 17.8059)
(5.09925e-16 0.0188988 17.8343)
(4.93318e-16 0.0166545 17.8639)
(6.14056e-16 0.0150044 17.8997)
(3.97622e-16 0.0150713 17.9373)
(-2.41556e-16 0.0151757 17.9727)
(5.47232e-15 0.0178767 17.9973)
(-3.22449e-15 0.0200881 18.0138)
(-2.04469e-15 0.0217138 18.0324)
(1.78314e-15 0.0181598 18.05)
(1.33371e-15 0.0139904 18.0817)
(2.81117e-15 0.00822954 18.1133)
(4.04595e-15 0.00830761 18.1374)
(3.038e-15 0.0199355 18.1552)
(1.7354e-15 0.0400174 18.1408)
(1.53124e-15 0.0585807 18.0693)
(1.28611e-15 0.0626229 17.9619)
(1.13365e-15 0.05243 17.8551)
(1.22444e-15 0.0391799 17.7699)
(8.9706e-16 0.024291 17.7106)
(-7.96649e-16 0.0074706 17.6749)
(5.17687e-15 -0.0130555 17.6727)
(-4.55142e-15 -0.030908 17.701)
(1.55272e-14 -0.0378474 17.743)
(6.41966e-16 -0.0415063 17.7832)
(7.26105e-16 -0.0529743 17.8235)
(2.15695e-15 -0.0696701 17.8798)
(3.11479e-15 -0.086378 17.9556)
(3.04336e-15 -0.100055 18.0457)
(3.13642e-15 -0.108949 18.1418)
(3.30617e-15 -0.112337 18.2352)
(3.22176e-15 -0.110691 18.3183)
(3.23222e-15 -0.105162 18.3862)
(2.89338e-15 -0.0970504 18.4352)
(3.03702e-15 -0.0875306 18.4641)
(3.09777e-15 -0.077324 18.4729)
(3.41175e-15 -0.0668742 18.4544)
(3.63776e-15 -0.0571689 18.4225)
(3.86531e-15 -0.0477031 18.3812)
(4.03002e-15 -0.0395645 18.3261)
(4.16001e-15 -0.0324262 18.2601)
(4.22629e-15 -0.0265163 18.1827)
(4.19206e-15 -0.021577 18.0969)
(4.00975e-15 -0.0175075 18.0026)
(3.60808e-15 -0.0140337 17.902)
(4.5051e-15 -0.0110706 17.7958)
(4.80498e-15 -0.00848179 17.6844)
(4.11069e-15 -0.00621049 17.5682)
(4.08709e-15 -0.00417945 17.4479)
(4.4641e-15 -0.00237315 17.3239)
(4.34861e-15 -0.000754355 17.1966)
(4.06153e-15 0.000678691 17.0662)
(3.91801e-15 0.00195793 16.9333)
(3.37015e-15 0.00307058 16.7982)
(1.79193e-15 0.00403306 16.6613)
(4.65483e-15 0.00484451 16.5227)
(5.33352e-15 0.00551002 16.3831)
(2.58506e-15 0.00603764 16.2426)
(3.03004e-15 0.00642868 16.1019)
(2.78461e-15 0.00670147 15.9608)
(2.57425e-15 0.00687191 15.8201)
(2.31503e-15 0.00694406 15.6799)
(2.75782e-15 0.00695172 15.5405)
(4.11407e-15 0.00687475 15.402)
(1.34481e-15 0.00676864 15.2648)
(1.80516e-15 0.00659456 15.1287)
(1.61211e-15 0.00642947 14.9941)
(1.37422e-15 0.00621481 14.8607)
(1.22034e-15 0.00603811 14.7286)
(1.06448e-15 0.00583911 14.5977)
(1.02898e-15 0.00570959 14.468)
(8.27779e-16 0.00558153 14.3392)
(9.46814e-17 0.005542 14.2112)
(2.63635e-16 0.00551821 14.0839)
(4.6793e-16 0.00559701 13.9573)
(1.1903e-16 0.00569078 13.8311)
(-5.48745e-17 0.00588633 13.7054)
(-3.03519e-16 0.00608775 13.58)
(-7.47984e-16 0.00638639 13.4549)
(-3.93683e-16 0.00666918 13.3302)
(-3.47842e-16 0.00703344 13.2059)
(-8.69354e-16 0.00735493 13.0821)
(-1.10064e-15 0.00774569 12.9588)
(-1.78524e-15 0.00805919 12.8362)
(-1.645e-15 0.00845722 12.7146)
(-2.09189e-15 0.00866717 12.5936)
(-2.37834e-15 0.00924769 12.4752)
(-2.17501e-15 0.00874035 12.3524)
(-2.48072e-15 0.0109731 12.2539)
(-2.73587e-15 0.00732309 12.0729)
(-3.58935e-16 0.0324034 18.9797)
(1.037e-15 0.0403625 18.9868)
(2.55281e-15 0.0400325 18.9907)
(2.14939e-15 0.0430752 18.9951)
(-8.75017e-16 0.0453112 18.9972)
(-2.02493e-15 0.045243 18.9925)
(1.0098e-15 0.0444865 18.9844)
(4.47558e-16 0.04244 18.9781)
(3.92816e-16 0.0395798 18.9726)
(7.02932e-16 0.0356849 18.9736)
(8.15135e-16 0.0312485 18.9738)
(9.11494e-16 0.0268487 18.9793)
(1.32451e-15 0.0236428 18.9805)
(6.9307e-17 0.0213854 18.9814)
(7.0178e-16 0.0213641 18.9778)
(2.26363e-15 0.0216081 18.9664)
(2.14016e-15 0.0251029 18.9404)
(-7.51516e-16 0.028215 18.9018)
(2.5921e-15 0.0301412 18.8596)
(2.82094e-15 0.0257398 18.8084)
(2.57997e-15 0.0199485 18.7638)
(2.59839e-15 0.012261 18.7129)
(2.92167e-15 0.0122796 18.65)
(3.57011e-15 0.0274147 18.5783)
(3.80071e-15 0.0545059 18.4789)
(3.7253e-15 0.0793013 18.3342)
(3.71522e-15 0.0847241 18.1621)
(3.62345e-15 0.0711755 17.9916)
(3.32445e-15 0.053602 17.8353)
(1.74237e-15 0.0346107 17.693)
(9.67214e-15 0.013296 17.5521)
(5.955e-15 -0.0124371 17.4171)
(1.98601e-15 -0.0359105 17.2942)
(7.10288e-15 -0.0448815 17.18)
(-2.3698e-15 -0.0494811 17.062)
(-6.96127e-15 -0.0638236 16.9344)
(9.98119e-15 -0.0846349 16.8094)
(4.91281e-15 -0.104826 16.6905)
(5.65525e-15 -0.121006 16.5749)
(4.33235e-15 -0.131155 16.4587)
(5.18754e-15 -0.134467 16.3397)
(9.26841e-15 -0.131656 16.2161)
(3.38835e-15 -0.124069 16.0876)
(1.31017e-15 -0.11341 15.9533)
(6.02334e-16 -0.101022 15.8136)
(2.48758e-15 -0.0880183 15.6686)
(2.80627e-15 -0.0749099 15.5088)
(3.40429e-15 -0.0617012 15.3501)
(3.60352e-15 -0.0498925 15.1951)
(5.55464e-15 -0.0388999 15.038)
(2.90938e-15 -0.0298817 14.8797)
(4.49695e-15 -0.0218599 14.7191)
(-4.80765e-16 -0.0155168 14.5576)
(-2.9825e-15 -0.00990917 14.3947)
(1.07118e-15 -0.00529455 14.2317)
(6.03848e-16 -0.00105832 14.069)
(-7.20562e-17 0.00251061 13.9064)
(-5.77331e-16 0.00590831 13.7438)
(-1.06996e-15 0.00883356 13.5815)
(-5.38281e-16 0.0116472 13.4196)
(-1.05243e-15 0.0140435 13.2579)
(-1.36097e-15 0.0163459 13.0963)
(-1.81412e-15 0.0182921 12.9353)
(-2.11164e-15 0.02012 12.775)
(-2.59206e-15 0.0216071 12.6155)
(-6.37918e-15 0.0229553 12.4568)
(-2.57361e-15 0.0239927 12.2995)
(-2.64102e-15 0.0248428 12.1437)
(-3.86091e-15 0.0254075 11.9899)
(-3.73348e-15 0.0257495 11.8381)
(-5.28197e-15 0.0258676 11.6892)
(-6.28868e-15 0.0257432 11.543)
(-5.7243e-15 0.0254753 11.4003)
(-4.71974e-15 0.0249764 11.2612)
(-3.09463e-15 0.0244306 11.1261)
(-5.28321e-15 0.0237073 10.995)
(-6.93627e-15 0.0230461 10.8682)
(-6.02694e-15 0.0222775 10.7457)
(-8.25672e-15 0.021651 10.6275)
(-7.49203e-15 0.0209942 10.5134)
(-7.57371e-15 0.0205419 10.4034)
(-7.62931e-15 0.0201089 10.2973)
(-7.99234e-15 0.0198968 10.1949)
(-7.70821e-15 0.0197173 10.0961)
(-7.58931e-15 0.0197478 10.0008)
(-7.80929e-15 0.019785 9.90897)
(-8.41825e-15 0.0199892 9.82052)
(-8.81986e-15 0.0201556 9.73537)
(-8.33834e-15 0.0204395 9.65368)
(-8.53798e-15 0.0206244 9.5754)
(-8.85856e-15 0.0208688 9.50069)
(-8.54334e-15 0.0209577 9.42953)
(-8.44241e-15 0.021062 9.36216)
(-7.82914e-15 0.020945 9.29863)
(-8.02363e-15 0.0208669 9.23909)
(-7.46919e-15 0.0203532 9.18367)
(-8.28901e-15 0.0204379 9.1324)
(-7.83852e-15 0.0182542 9.0853)
(-7.70403e-15 0.0229871 9.0462)
(-7.36239e-15 0.0124475 9.00141)
(-2.28136e-17 0.0460046 19.8832)
(9.02659e-16 0.0525711 19.8692)
(6.6396e-16 0.0517752 19.8429)
(-2.31433e-15 0.0554261 19.8077)
(8.16558e-16 0.0579827 19.7622)
(1.82721e-16 0.0579761 19.7035)
(7.22061e-16 0.0569174 19.6359)
(1.10301e-15 0.0543581 19.5641)
(1.35254e-15 0.0506301 19.4875)
(1.49433e-15 0.0456977 19.4104)
(1.54225e-15 0.0400407 19.3256)
(5.29372e-15 0.0344991 19.2379)
(1.88908e-15 0.0303998 19.1377)
(2.11189e-15 0.0277209 19.028)
(1.86859e-15 0.0275071 18.9057)
(2.65059e-15 0.0279136 18.7683)
(2.50923e-15 0.031703 18.6123)
(2.36478e-15 0.0357251 18.44)
(2.16892e-15 0.0378211 18.259)
(2.33572e-15 0.0329708 18.0602)
(2.34341e-15 0.0256997 17.8609)
(3.38424e-15 0.0161152 17.6506)
(2.95244e-15 0.0157149 17.4255)
(3.46022e-15 0.0330926 17.1934)
(3.32781e-15 0.0646808 16.943)
(4.05149e-15 0.0928916 16.6643)
(2.6912e-15 0.0980852 16.3706)
(2.92689e-15 0.0809246 16.0817)
(2.95053e-15 0.0604158 15.799)
(2.87624e-15 0.04064 15.5215)
(2.70377e-15 0.0190753 15.2226)
(1.6309e-15 -0.00747585 14.9008)
(1.96533e-15 -0.0359448 14.5724)
(-8.4583e-16 -0.0472843 14.2516)
(-1.13756e-14 -0.0527056 13.9293)
(3.24514e-15 -0.0677696 13.5897)
(1.2166e-15 -0.090108 13.2458)
(8.92488e-16 -0.111398 12.9054)
(1.17465e-15 -0.128465 12.573)
(1.36008e-15 -0.139405 12.2551)
(1.49174e-15 -0.143542 11.9611)
(2.32703e-15 -0.141817 11.6969)
(5.38554e-15 -0.135378 11.4659)
(-1.90086e-15 -0.125977 11.266)
(-9.03439e-16 -0.11462 11.094)
(-2.07551e-15 -0.10266 10.9445)
(-3.29448e-15 -0.0905599 10.7989)
(-4.29423e-15 -0.0763192 10.6757)
(-4.91656e-15 -0.0650808 10.5715)
(-6.57001e-15 -0.0531574 10.4767)
(-7.24169e-15 -0.0443384 10.389)
(-1.23093e-14 -0.0356195 10.3052)
(-9.06361e-15 -0.0292762 10.2256)
(-9.46432e-15 -0.0230964 10.1481)
(-9.97434e-15 -0.0181957 10.0738)
(-9.6128e-15 -0.0132574 10.0023)
(-9.91046e-15 -0.00913857 9.9327)
(-1.0286e-14 -0.00485106 9.86453)
(-1.0921e-14 -0.0011134 9.79761)
(-1.11297e-14 0.00274479 9.7317)
(-1.1394e-14 0.0061074 9.66629)
(-1.11428e-14 0.00952204 9.60106)
(-1.16336e-14 0.0125086 9.53634)
(-1.13263e-14 0.015428 9.47187)
(-1.08071e-14 0.0179183 9.40788)
(-1.20243e-14 0.0202506 9.34399)
(-1.17583e-14 0.0221724 9.28095)
(-7.90764e-15 0.0238163 9.2184)
(-1.17212e-14 0.0250514 9.15704)
(-1.22019e-14 0.0259219 9.09654)
(-1.20327e-14 0.0264281 9.03766)
(-1.20378e-14 0.026526 8.98016)
(-1.2219e-14 0.0263388 8.92471)
(-1.13758e-14 0.0257723 8.87111)
(-1.05916e-14 0.0250423 8.81982)
(-8.38667e-15 0.0240361 8.77074)
(-1.13732e-14 0.0230117 8.72422)
(-1.36854e-14 0.0218339 8.68026)
(-1.06991e-14 0.0207478 8.63894)
(-1.2343e-14 0.019628 8.60027)
(-1.0363e-14 0.0186761 8.56433)
(-7.69728e-15 0.0177598 8.53115)
(-9.14696e-15 0.017025 8.50069)
(-9.34069e-15 0.0163375 8.47298)
(-8.16255e-15 0.015804 8.44803)
(-9.71232e-15 0.0152769 8.42586)
(-8.85899e-15 0.0148449 8.40642)
(-8.92548e-15 0.014363 8.38966)
(-8.55672e-15 0.0139157 8.37552)
(-7.88923e-15 0.0133516 8.36391)
(-7.4867e-15 0.0127611 8.3547)
(-7.38233e-15 0.0120025 8.34773)
(-7.79229e-15 0.0111758 8.34289)
(-6.18146e-15 0.0101266 8.34006)
(-5.61853e-15 0.00902013 8.33893)
(-4.68271e-15 0.00760066 8.33971)
(-4.91131e-15 0.00633682 8.34122)
(-5.07433e-15 0.00433112 8.34588)
(-4.90529e-15 0.00378021 8.34853)
(-4.30847e-15 -0.00520655 8.36664)
(7.15098e-16 0.0595589 20.3273)
(-7.38067e-16 0.0642258 20.2069)
(6.75054e-16 0.0633313 20.0713)
(3.31051e-16 0.0673653 19.9278)
(4.40499e-16 0.0698173 19.7747)
(1.64731e-15 0.0694161 19.6073)
(8.6928e-16 0.0676642 19.4284)
(1.60895e-15 0.0642491 19.2402)
(1.96288e-15 0.059466 19.0402)
(6.58923e-16 0.0534249 18.8309)
(-5.19773e-16 0.0466259 18.6039)
(-1.80116e-15 0.0401426 18.3635)
(3.22316e-15 0.0354571 18.1006)
(1.75095e-15 0.0327058 17.8186)
(1.70002e-15 0.0323924 17.5158)
(2.03079e-15 0.0329595 17.1928)
(1.95605e-15 0.0365244 16.8512)
(-2.46753e-15 0.0415396 16.4979)
(6.0944e-16 0.0437526 16.1394)
(3.92725e-15 0.039123 15.7611)
(5.3368e-15 0.0299953 15.38)
(4.38234e-15 0.0181012 14.9876)
(1.00154e-14 0.0168435 14.585)
(5.57149e-15 0.0350645 14.1851)
(6.56263e-15 0.0698084 13.7793)
(2.88259e-15 0.0989157 13.3589)
(2.87185e-15 0.102473 12.9334)
(2.62936e-15 0.0810283 12.5139)
(3.65329e-15 0.0579084 12.0911)
(6.97698e-15 0.0388796 11.6789)
(7.993e-16 0.0207513 11.2398)
(1.27301e-14 -0.00282378 10.7575)
(-9.73555e-15 -0.0337256 10.2362)
(-7.17175e-15 -0.043683 9.69856)
(4.20177e-15 -0.0451176 9.15022)
(1.17885e-15 -0.0574581 8.58266)
(-3.49908e-15 -0.0814683 8.04087)
(9.5338e-16 -0.106727 7.5615)
(-2.30474e-16 -0.129899 7.16873)
(-4.07183e-16 -0.149512 6.87924)
(-2.77622e-15 -0.164465 6.70094)
(3.84e-15 -0.174453 6.62411)
(-8.79355e-15 -0.178634 6.63009)
(-9.40286e-15 -0.177791 6.69332)
(-1.08714e-14 -0.172175 6.79131)
(-1.53883e-14 -0.163635 6.90462)
(-1.63133e-14 -0.153228 7.00304)
(-1.64211e-14 -0.136839 7.10737)
(-1.70179e-14 -0.124587 7.21384)
(-1.68133e-14 -0.109551 7.31061)
(-1.70129e-14 -0.0986532 7.39757)
(-1.62394e-14 -0.0869103 7.47271)
(-1.57893e-14 -0.0782839 7.53898)
(-1.51028e-14 -0.0694109 7.59559)
(-1.44846e-14 -0.0622066 7.64559)
(-1.38309e-14 -0.0547892 7.68959)
(-1.32512e-14 -0.0484429 7.72784)
(-1.2525e-14 -0.0418458 7.76062)
(-7.73584e-15 -0.0359476 7.78872)
(-1.18733e-14 -0.0299274 7.81248)
(-1.16127e-14 -0.0245164 7.83205)
(-1.05615e-14 -0.0191073 7.84752)
(-9.83558e-15 -0.0142204 7.85981)
(-1.03001e-14 -0.00949789 7.86892)
(-1.27393e-14 -0.00529522 7.87546)
(-8.64638e-15 -0.00136893 7.87922)
(-1.21885e-14 0.00205849 7.88125)
(-2.74522e-15 0.00508374 7.8813)
(-7.64241e-15 0.00761158 7.88022)
(-8.0346e-15 0.00966183 7.87773)
(-7.51073e-15 0.0112615 7.87464)
(-7.13581e-15 0.0123607 7.87071)
(-7.10087e-15 0.013087 7.86658)
(-6.94983e-15 0.0133613 7.8621)
(-9.65797e-15 0.0133802 7.85766)
(-5.03297e-15 0.0130637 7.85326)
(-4.14937e-15 0.0126261 7.84924)
(-3.16799e-15 0.0119797 7.84574)
(-5.35053e-15 0.0113124 7.84286)
(-4.0055e-15 0.0105592 7.84077)
(-4.32183e-15 0.00985971 7.83956)
(-3.93539e-15 0.0091518 7.83937)
(-4.43371e-16 0.00852245 7.84013)
(-1.36387e-15 0.00791046 7.84188)
(-1.76548e-15 0.00736962 7.84452)
(-1.29874e-16 0.00682618 7.84801)
(-1.79568e-15 0.00632688 7.85208)
(-1.36433e-15 0.00579629 7.85656)
(-1.17578e-15 0.00528319 7.86114)
(-9.39633e-16 0.00469388 7.86557)
(-5.24573e-16 0.00408252 7.86948)
(-5.74264e-16 0.00335583 7.87258)
(-1.67612e-15 0.00257939 7.87458)
(-3.75758e-16 0.00164264 7.87527)
(-4.60007e-16 0.000672943 7.87423)
(-2.51297e-16 -0.000486549 7.87166)
(-1.19174e-15 -0.00161216 7.86639)
(-1.185e-15 -0.00288082 7.85984)
(-1.50622e-15 -0.00540146 7.85272)
(-1.79172e-15 -0.0115534 7.83351)
(9.62018e-16 0.0696595 19.9942)
(1.31963e-15 0.0719566 19.7633)
(1.36154e-15 0.0711158 19.5172)
(-8.01185e-16 0.0751234 19.2578)
(3.07988e-15 0.0770997 18.98)
(1.95011e-15 0.0760275 18.6765)
(1.80722e-15 0.0735894 18.3495)
(2.74789e-15 0.0694355 18.0007)
(4.80854e-15 0.0639848 17.629)
(-6.03684e-15 0.0573806 17.2377)
(9.04895e-16 0.0500152 16.82)
(1.01109e-15 0.043271 16.3839)
(1.12604e-15 0.0385005 15.9228)
(1.29527e-15 0.0366046 15.4445)
(8.66926e-16 0.0364582 14.9483)
(2.68236e-15 0.0374127 14.438)
(3.18916e-15 0.0395326 13.9186)
(2.68633e-15 0.0450887 13.4077)
(1.6051e-15 0.0470161 12.9124)
(-7.97627e-15 0.0433163 12.4104)
(3.28659e-15 0.032473 11.9101)
(1.5969e-15 0.0172905 11.3995)
(6.71582e-15 0.0141947 10.8858)
(6.5055e-15 0.0331588 10.3919)
(2.89151e-15 0.0713537 9.90061)
(2.52912e-15 0.101343 9.39813)
(-4.50314e-16 0.103622 8.88719)
(-2.3365e-15 0.0782135 8.37551)
(3.84149e-15 0.0519297 7.84173)
(9.80997e-15 0.0292861 7.33675)
(-7.40709e-15 0.0129822 6.80437)
(-2.9449e-15 -0.000558665 6.17286)
(-3.74399e-15 -0.0252364 5.41699)
(-5.02002e-15 -0.0261536 4.61176)
(-1.14381e-14 -0.0262555 3.84806)
(-4.40362e-14 -0.0480912 3.21004)
(-7.30482e-16 -0.0921879 2.84528)
(-4.47521e-15 -0.141889 2.7892)
(-9.53728e-15 -0.193508 2.98902)
(-1.07889e-14 -0.239792 3.36214)
(-2.72099e-14 -0.274563 3.82658)
(-1.06616e-14 -0.295712 4.31591)
(-1.91595e-14 -0.302725 4.78835)
(-2.20864e-14 -0.298431 5.21886)
(-2.37207e-14 -0.285148 5.59732)
(-2.08508e-14 -0.266806 5.92047)
(-1.91297e-14 -0.245776 6.17192)
(-1.48706e-14 -0.218096 6.38813)
(-1.75906e-14 -0.195643 6.57774)
(-1.43279e-14 -0.171393 6.7342)
(-1.00741e-14 -0.152663 6.86441)
(-1.41856e-14 -0.134275 6.97009)
(-6.96822e-15 -0.120088 7.05818)
(-6.20417e-15 -0.106587 7.12981)
(-5.76091e-15 -0.0954483 7.19012)
(-5.57118e-15 -0.0847301 7.2408)
(-5.51523e-15 -0.0755013 7.28313)
(-4.04034e-15 -0.0664637 7.31797)
(-3.98049e-15 -0.0583527 7.34674)
(-3.98391e-15 -0.0504477 7.37014)
(-3.80132e-15 -0.0432836 7.38867)
(-3.54656e-15 -0.0363892 7.40262)
(-2.74939e-15 -0.0301112 7.41314)
(-1.94748e-15 -0.0242132 7.42036)
(-2.66608e-15 -0.0189146 7.42501)
(-2.61456e-15 -0.0140702 7.42694)
(-4.62675e-15 -0.00980809 7.42732)
(4.67547e-15 -0.00608985 7.42591)
(-9.29068e-16 -0.00295712 7.42365)
(7.0454e-18 -0.000408043 7.42026)
(-8.29751e-16 0.00160606 7.4166)
(-5.59396e-16 0.00304747 7.41243)
(-1.47223e-15 0.00403189 7.40843)
(-5.90071e-15 0.00451141 7.40444)
(-8.74851e-16 0.00464536 7.40089)
(6.66659e-16 0.00439614 7.39781)
(-2.30441e-16 0.00392546 7.39555)
(-5.62033e-16 0.00319914 7.39422)
(2.36519e-15 0.00235554 7.39389)
(2.69044e-15 0.00139713 7.39461)
(3.1324e-15 0.000423346 7.39632)
(7.62505e-16 -0.000551261 7.39898)
(2.14273e-15 -0.00146957 7.40224)
(1.94936e-16 -0.00231672 7.40589)
(-2.07886e-16 -0.00306106 7.40952)
(9.10268e-16 -0.00370889 7.4128)
(7.77861e-16 -0.0042295 7.41519)
(1.59119e-16 -0.00464814 7.41628)
(2.37686e-17 -0.00493812 7.41558)
(2.64389e-16 -0.00516783 7.41266)
(1.13133e-15 -0.00531074 7.40712)
(-1.08203e-15 -0.00545176 7.39864)
(-1.04894e-15 -0.00555394 7.38696)
(-2.80548e-15 -0.00572964 7.372)
(-2.2902e-15 -0.00587213 7.35348)
(-3.03876e-15 -0.00610687 7.33186)
(-3.97676e-15 -0.0062792 7.30607)
(-3.27442e-15 -0.00681988 7.27735)
(-4.11024e-15 -0.00698143 7.25094)
(-4.63919e-15 -0.0132198 7.19242)
(-5.42118e-17 0.0772201 19.1591)
(1.07901e-15 0.0760603 18.7955)
(-2.56535e-16 0.0749173 18.3969)
(3.01194e-15 0.0786143 17.9636)
(3.36826e-15 0.0802151 17.4943)
(2.41772e-15 0.0788469 16.9872)
(2.89838e-15 0.0761787 16.4515)
(2.23465e-15 0.0717421 15.8943)
(2.13702e-15 0.0660729 15.3195)
(1.94127e-15 0.0593437 14.7347)
(2.0681e-15 0.0517337 14.1347)
(1.32479e-15 0.044901 13.5328)
(1.79478e-15 0.040021 12.9242)
(2.04442e-15 0.0394472 12.3212)
(2.31542e-15 0.0397861 11.7187)
(-3.1421e-15 0.0415865 11.118)
(2.78008e-15 0.0408621 10.5182)
(2.37908e-15 0.0455859 9.95072)
(1.25208e-15 0.0457447 9.42787)
(1.24194e-15 0.0437093 8.92405)
(9.46323e-16 0.0318516 8.43397)
(-1.06593e-15 0.0136912 7.92974)
(6.18734e-15 0.00892456 7.41894)
(6.18609e-15 0.0301469 6.93831)
(1.62632e-15 0.076322 6.45661)
(1.23307e-15 0.111589 5.94031)
(-1.74989e-15 0.117557 5.37651)
(5.55366e-16 0.0901184 4.77954)
(4.99008e-16 0.0577622 4.11473)
(-5.20207e-16 0.0423876 3.40217)
(-5.35575e-15 0.0609703 2.47443)
(-6.69797e-15 0.107282 1.44108)
(-1.18079e-14 0.0848161 0.444545)
(-2.62436e-14 0.0386516 -0.205112)
(-2.75977e-14 -0.0444249 -0.264879)
(-3.36009e-15 -0.128204 0.230665)
(1.25589e-15 -0.224949 1.00613)
(-8.18099e-15 -0.310663 1.83314)
(-1.18126e-14 -0.379564 2.62606)
(-7.42847e-15 -0.426977 3.35852)
(6.10697e-15 -0.451143 4.02155)
(-1.91249e-14 -0.454871 4.60969)
(4.18606e-16 -0.44171 5.12263)
(-1.74097e-14 -0.416894 5.5611)
(-1.02278e-14 -0.38434 5.92977)
(-7.64905e-15 -0.348579 6.23402)
(-6.19967e-15 -0.312115 6.46193)
(-5.32659e-15 -0.271663 6.65112)
(-2.24869e-15 -0.237565 6.81318)
(2.49881e-15 -0.204366 6.94201)
(-4.38863e-15 -0.178102 7.04474)
(1.05974e-15 -0.154177 7.12325)
(2.455e-15 -0.13555 7.18455)
(1.14115e-15 -0.118832 7.23004)
(1.55717e-15 -0.105126 7.26488)
(1.70753e-15 -0.0925036 7.29093)
(9.82013e-16 -0.0816842 7.30945)
(2.53295e-15 -0.0714477 7.32132)
(3.67152e-15 -0.0622593 7.32785)
(3.47755e-15 -0.0535327 7.32971)
(2.38483e-15 -0.0455901 7.32731)
(2.69879e-15 -0.0381199 7.32089)
(2.94912e-15 -0.031305 7.31155)
(2.68316e-15 -0.0250373 7.29941)
(2.29282e-15 -0.0194227 7.28522)
(1.95794e-15 -0.0144155 7.26883)
(6.03348e-15 -0.0100706 7.25144)
(5.32121e-15 -0.00640513 7.23287)
(2.27256e-16 -0.00341809 7.21412)
(-2.91169e-16 -0.00112479 7.19496)
(4.42465e-17 0.000542598 7.17632)
(3.15334e-17 0.00155393 7.15803)
(-2.64722e-16 0.00202077 7.14082)
(-7.00347e-16 0.0019169 7.12461)
(-2.64623e-15 0.00138875 7.10984)
(-8.74879e-16 0.000438202 7.09652)
(-1.64266e-15 -0.00078448 7.08494)
(-2.09394e-15 -0.00225514 7.07511)
(-1.83791e-15 -0.00383633 7.0669)
(-2.36039e-15 -0.00545621 7.06017)
(-3.45639e-15 -0.00701208 7.05462)
(-1.77915e-15 -0.00842403 7.04996)
(-3.44192e-15 -0.0096344 7.04563)
(-2.17856e-15 -0.0105787 7.04121)
(-4.5864e-15 -0.0112324 7.03616)
(-4.28533e-15 -0.0115707 7.03005)
(-3.93282e-15 -0.0115765 7.02232)
(-4.59732e-15 -0.0112676 7.01256)
(-4.62629e-15 -0.0106432 7.00035)
(-3.90705e-15 -0.00979113 6.98539)
(-6.43027e-15 -0.0087181 6.96744)
(-7.39959e-15 -0.00753973 6.94636)
(-7.68489e-15 -0.00625837 6.92214)
(-6.43207e-15 -0.00503144 6.89498)
(-7.50122e-15 -0.00379111 6.86484)
(-8.26021e-15 -0.00264586 6.8326)
(-7.25744e-15 -0.00151898 6.79715)
(-8.02437e-15 -0.00125971 6.76049)
(-7.9321e-15 0.00236324 6.72786)
(-8.15089e-15 -0.00576106 6.66476)
(1.4123e-15 0.0792835 17.8211)
(1.31268e-15 0.0760794 17.2471)
(4.22688e-16 0.0761299 16.6058)
(-1.39578e-15 0.0801237 15.927)
(-5.80047e-16 0.0815971 15.2276)
(2.42901e-15 0.0798264 14.515)
(2.22598e-15 0.0767694 13.8031)
(2.2121e-15 0.0717199 13.1008)
(2.72804e-15 0.0656186 12.4114)
(6.92605e-16 0.0586607 11.7429)
(-1.01585e-15 0.0506714 11.0849)
(8.49441e-16 0.0437473 10.4531)
(5.44709e-16 0.0382 9.83805)
(2.51703e-15 0.0395324 9.25682)
(2.98085e-15 0.0413843 8.69383)
(2.55926e-15 0.0465069 8.14111)
(1.07214e-15 0.0433976 7.58079)
(-3.50603e-15 0.047023 7.0542)
(-2.80032e-16 0.0434955 6.58947)
(-5.37901e-16 0.0432296 6.16302)
(2.46349e-15 0.0312332 5.77063)
(-6.68103e-15 0.0111999 5.35935)
(4.19506e-15 0.00568837 4.91964)
(2.23865e-14 0.0300382 4.50269)
(-8.11353e-15 0.0901184 4.06995)
(-1.53859e-15 0.14392 3.56826)
(3.28506e-15 0.161379 2.95463)
(-1.39518e-15 0.138908 2.24848)
(-2.75366e-15 0.208174 1.05787)
(-1.4449e-14 0.317923 -0.639595)
(-3.57388e-14 0.196317 -2.53039)
(-1.93031e-14 0.0383439 -2.1173)
(-3.07382e-14 -0.0571886 -1.48504)
(1.14843e-13 -0.112593 -0.872963)
(-2.00901e-14 -0.194449 -0.185128)
(2.55456e-14 -0.326354 0.623366)
(4.34445e-15 -0.435548 1.44104)
(-5.89218e-17 -0.506847 2.22329)
(1.72777e-16 -0.557276 2.95346)
(6.27049e-15 -0.586764 3.62476)
(7.43324e-15 -0.593636 4.235)
(6.49661e-15 -0.580263 4.78125)
(-2.03504e-15 -0.550441 5.26228)
(-1.33982e-15 -0.509601 5.67706)
(1.2905e-15 -0.462185 6.02804)
(1.706e-15 -0.412915 6.31885)
(4.18038e-16 -0.364077 6.53665)
(1.55682e-15 -0.313301 6.71606)
(2.29052e-15 -0.269785 6.86869)
(3.4622e-15 -0.229171 6.98839)
(4.32009e-15 -0.196649 7.08187)
(4.70404e-15 -0.167995 7.15094)
(5.45828e-15 -0.145524 7.20242)
(6.13566e-15 -0.125897 7.23794)
(6.23084e-15 -0.109789 7.26258)
(5.9737e-15 -0.0952637 7.27831)
(5.44268e-15 -0.0827634 7.28633)
(5.85797e-15 -0.0711425 7.28749)
(9.62302e-15 -0.0606549 7.28296)
(3.12342e-15 -0.0508453 7.27338)
(2.0937e-15 -0.0418738 7.25906)
(1.45453e-15 -0.0335811 7.24027)
(9.8529e-16 -0.0260327 7.21811)
(9.15723e-16 -0.0192327 7.19276)
(-2.2798e-15 -0.0132093 7.16503)
(-2.41624e-15 -0.00799042 7.13488)
(-1.95618e-15 -0.00358704 7.1036)
(-3.17055e-15 -4.25634e-05 7.07111)
(-3.9692e-15 0.00266618 7.03851)
(-4.75518e-15 0.00453167 7.00567)
(-5.02178e-15 0.00562754 6.97363)
(-5.45662e-15 0.00594827 6.94229)
(-6.86411e-15 0.00559981 6.91246)
(-1.11546e-14 0.00459722 6.88408)
(-6.75257e-15 0.00308876 6.85762)
(-1.86356e-15 0.00113495 6.83302)
(-9.76944e-15 -0.00110307 6.81053)
(-9.17737e-15 -0.00353106 6.79005)
(-7.65824e-15 -0.00599505 6.77142)
(-1.04624e-14 -0.008358 6.75442)
(-1.03605e-14 -0.0105136 6.73876)
(-8.53475e-15 -0.0123355 6.72417)
(-1.04609e-14 -0.0137801 6.71015)
(-1.0036e-14 -0.0147551 6.6964)
(-9.50331e-15 -0.0152631 6.68248)