/*--------------------------------*- C++ -*----------------------------------*\
| =========                 |                                                 |
| \\      /  F ield         | OpenFOAM: The Open Source CFD Toolbox           |
|  \\    /   O peration     | Version:  4.1                                   |
|   \\  /    A nd           | Web:      www.OpenFOAM.org                      |
|    \\/     M anipulation  |                                                 |
\*---------------------------------------------------------------------------*/
FoamFile
{
    version     2.0;
    format      ascii;
    class       volScalarField;
    location    "15";
    object      p;
}
// * * * * * * * * * * * * * * * * * * * * * * * * * * * * * * * * * * * * * //

dimensions      [0 2 -2 0 0 0 0];

internalField   nonuniform List<scalar> 
26785
(
49.772
48.4563
47.6257
46.4709
45.4059
43.7928
42.7281
41.6641
40.9594
40.6128
40.751
41.0771
41.3658
41.4935
41.6094
41.8298
42.259
43.0345
44.1426
45.3
45.7293
44.7286
42.229
39.1613
36.5067
34.1057
32.1239
30.4484
29.2855
28.5559
28.1436
27.8373
27.5885
27.4479
27.4209
27.5654
27.8056
28.225
28.7545
29.4529
30.274
31.2138
32.1792
33.1241
33.9898
34.8263
35.6171
36.2197
36.7793
37.1236
37.3892
37.5191
37.5396
37.3911
37.0923
36.6996
36.2523
35.818
35.3827
34.9796
34.5787
34.2059
33.8078
33.3886
32.875
32.2788
31.5215
30.6654
29.6647
28.6361
27.5385
26.4753
25.3967
24.3879
23.386
22.4519
21.5257
20.6606
19.7997
18.9829
18.16
17.3657
16.5535
15.7527
14.925
14.1005
13.2461
12.3886
11.4992
10.6034
9.67503
8.73772
7.76906
6.79152
5.78465
4.76877
3.72432
2.67598
1.58179
0.561856
49.7533
48.4514
47.6232
46.4684
45.4063
43.7957
42.7267
41.6576
40.9524
40.6064
40.7464
41.0767
41.3689
41.4938
41.6039
41.8194
42.2436
43.017
44.1347
45.3177
45.7616
44.7539
42.2289
39.147
36.4907
34.0886
32.1033
30.4238
29.2618
28.5384
28.1335
27.83
27.582
27.4424
27.4164
27.561
27.8014
28.2217
28.7517
29.4509
30.2745
31.2181
32.1875
33.1337
33.9978
34.8346
35.6297
36.236
36.7966
37.1388
37.4037
37.5347
37.5558
37.4056
37.1026
36.7061
36.256
35.8212
35.3852
34.9823
34.582
34.2116
33.8162
33.4005
32.8894
32.2951
31.5364
30.6777
29.6722
28.6396
27.5377
26.4724
25.3918
24.3828
23.3803
22.4467
21.5208
20.6565
19.7962
18.9805
18.1587
17.3655
16.5541
15.754
14.9268
14.1028
13.2487
12.3916
11.5025
10.6067
9.67861
8.74129
7.77287
6.79528
5.78864
4.7725
3.72887
2.67921
1.6074
0.536288
49.722
48.4449
47.6193
46.4625
45.4065
43.8002
42.7238
41.6446
40.9387
40.5946
40.7383
41.0778
41.3783
41.4972
41.5958
41.8002
42.2139
42.981
44.1197
45.3554
45.8281
44.8082
42.2318
39.1206
36.4612
34.0573
32.0646
30.377
29.2159
28.5035
28.1122
27.8131
27.5655
27.427
27.4025
27.5473
27.7884
28.2105
28.7418
29.4434
30.272
31.2232
32.1998
33.1488
34.0107
34.8482
35.6512
36.2648
36.8268
37.1651
37.4289
37.5616
37.5841
37.431
37.1206
36.7169
36.2621
35.8265
35.3898
34.9875
34.5886
34.2227
33.8323
33.4228
32.9163
32.3253
31.5647
30.7017
29.6882
28.6487
27.5402
26.4712
25.3878
24.3781
23.3751
22.442
21.5166
20.6535
19.7943
18.9802
18.1599
17.3683
16.5581
15.7589
14.9324
14.1088
13.2552
12.3982
11.5093
10.6133
9.68512
8.74726
7.77862
6.80041
5.79354
4.77662
3.73284
2.68183
1.61622
0.540322
49.6807
48.4377
47.6131
46.4537
45.4084
43.8081
42.7189
41.6225
40.9152
40.5744
40.7246
41.079
41.3939
41.5013
41.5808
41.7667
42.1654
42.9222
44.0975
45.42
45.943
44.9015
42.2378
39.0778
36.413
34.0081
32.0064
30.3091
29.1512
28.4579
28.0878
27.7953
27.5475
27.4093
27.3856
27.5286
27.77
28.1935
28.726
29.4293
30.2637
31.2235
32.2094
33.1617
34.0203
34.8571
35.6671
36.2909
36.8507
37.1855
37.4455
37.5813
37.6041
37.4489
37.1306
36.7198
36.261
35.8249
35.3883
34.9868
34.5908
34.2296
33.8461
33.4431
32.9434
32.3551
31.5941
30.7251
29.7048
28.6568
27.5429
26.4691
25.3845
24.373
23.3706
22.437
21.5132
20.6502
19.7931
18.9797
18.1616
17.3705
16.562
15.7627
14.9373
14.1131
13.2603
12.4026
11.5141
10.6169
9.68858
8.74929
7.78045
6.80091
5.79385
4.77585
3.73112
2.6803
1.60075
0.557127
49.6331
48.4338
47.6055
46.4426
45.412
43.8196
42.7126
41.5926
40.8839
40.5483
40.7075
41.0812
41.4152
41.5049
41.5614
41.7253
42.1084
42.8538
44.0763
45.5038
46.0848
45.0234
42.2541
39.0319
36.3563
33.9484
31.9371
30.2322
29.0802
28.4088
28.0627
27.7779
27.5308
27.3928
27.368
27.5065
27.7463
28.169
28.7016
29.4053
30.2446
31.2111
32.2046
33.1591
34.0154
34.8509
35.6647
36.2964
36.8502
37.1831
37.4394
37.5792
37.603
37.4475
37.1231
36.707
36.2456
35.8103
35.3755
34.9759
34.5848
34.2297
33.8551
33.4601
32.9687
32.3842
31.6234
30.7485
29.7215
28.6651
27.5466
26.4688
25.3839
24.3716
23.3706
22.4374
21.5157
20.6539
19.7994
18.9876
18.1723
17.3825
16.5758
15.777
14.9528
14.1288
13.2767
12.4186
11.5301
10.632
9.70311
8.76253
7.79291
6.81208
5.80418
4.78494
3.73848
2.68655
1.59701
0.572896
49.5818
48.4339
47.5961
46.4309
45.4184
43.8343
42.7037
41.555
40.8451
40.5152
40.6853
41.0796
41.4352
41.5003
41.5342
41.6755
42.0469
42.7812
44.0572
45.5928
46.237
45.1617
42.2814
38.9903
36.2991
33.8883
31.8691
30.1593
29.0145
28.3675
28.0465
27.771
27.5248
27.3845
27.3537
27.4814
27.7158
28.1343
28.664
29.3648
30.2067
31.1792
32.181
33.1387
33.9923
34.8271
35.6456
36.2836
36.8303
37.1616
37.4163
37.5623
37.5894
37.4344
37.1048
36.6838
36.222
35.7887
35.3566
34.9601
34.5754
34.2281
33.8645
33.4797
32.9985
32.4181
31.6564
30.7735
29.7378
28.6714
27.5475
26.4656
25.3805
24.3677
23.3686
22.4365
21.5177
20.6577
19.8066
18.9973
18.1853
17.3975
16.593
15.7951
14.9722
14.1484
13.297
12.4385
11.5499
10.6506
9.72073
8.77852
7.80767
6.82518
5.81596
4.79503
3.74639
2.69258
1.59578
0.581354
49.5294
48.4356
47.5831
46.4187
45.4256
43.8502
42.6941
41.5164
40.8058
40.4819
40.6623
41.0743
41.4484
41.4823
41.4967
41.6158
41.9782
42.7019
44.0325
45.6692
46.3676
45.2928
42.3088
38.9543
36.2494
33.8361
31.8096
30.0945
28.9539
28.3293
28.0337
27.7688
27.5244
27.3815
27.3408
27.454
27.6796
28.0915
28.6154
29.3111
30.1533
31.1308
32.1404
33.1015
33.9505
34.7847
35.6121
36.257
36.7966
37.1247
37.38
37.5343
37.5669
37.4128
37.0778
36.6523
36.1917
35.7617
35.3327
34.9394
34.5616
34.2232
33.8727
33.5004
33.0308
32.4555
31.6919
30.7993
29.7527
28.6758
27.5458
26.4603
25.3752
24.3629
23.3661
22.4359
21.5205
20.6634
19.816
19.01
18.2017
17.4166
16.6146
15.8181
14.9966
14.1737
13.3229
12.4643
11.5753
10.6748
9.74374
8.79983
7.8274
6.84314
5.83226
4.80944
3.75834
2.70225
1.5986
0.589557
49.4916
48.4433
47.5708
46.4107
45.4345
43.8655
42.6814
41.477
40.7653
40.4448
40.6326
41.0572
41.4457
41.4433
41.4394
41.5367
41.8892
42.6005
43.9816
45.7305
46.492
45.4253
42.3237
38.9067
36.196
33.7852
31.7517
30.0319
28.8946
28.2949
28.0275
27.7749
27.5334
27.3878
27.3348
27.4302
27.6446
28.0484
28.5635
29.2492
30.0874
31.0681
32.0852
33.0529
33.8968
34.7293
35.5682
36.221
36.7532
37.0768
37.3339
37.4982
37.538
37.3848
37.0452
36.6156
36.1579
35.7319
35.3054
34.916
34.5465
34.2192
33.8846
33.5279
33.0719
32.5018
31.7342
30.8293
29.7694
28.6805
27.5437
26.4546
25.3696
24.3579
23.3637
22.4361
21.5245
20.6709
19.8279
19.0258
18.2218
17.4397
16.6405
15.8458
15.0261
14.204
13.354
12.4952
11.6056
10.7037
9.77095
8.82495
7.85058
6.86416
5.8512
4.82606
3.77211
2.71305
1.60272
0.596476
49.4759
48.4552
47.5601
46.4071
45.4415
43.8742
42.663
41.4387
40.7267
40.4065
40.5983
41.0317
41.4316
41.3939
41.3709
41.4467
41.7824
42.4834
43.9088
45.7821
46.6108
45.5622
42.3257
38.8466
36.1372
33.7299
31.689
29.9668
28.8363
28.2602
28.0199
27.7796
27.5431
27.3969
27.3323
27.41
27.6129
28.0076
28.5128
29.1861
30.0164
30.9971
32.0195
32.9942
33.8343
34.6662
35.5183
36.1779
36.7017
37.0202
37.281
37.456
37.5042
37.3519
37.0079
36.5749
36.1205
35.6986
35.2744
34.8897
34.5299
34.2157
33.8992
33.5601
33.1186
32.5534
31.7797
30.8601
29.7847
28.6833
27.5395
26.4471
25.3623
24.3519
23.3605
22.436
21.5286
20.6789
19.8407
19.0431
18.2437
17.4651
16.6689
15.8763
15.0586
14.2378
13.3885
12.5296
11.6393
10.7358
9.80113
8.8529
7.87634
6.88763
5.87238
4.84472
3.78769
2.72533
1.6086
0.603314
49.4823
48.4623
47.5497
46.4078
45.4449
43.874
42.6353
41.3972
40.6847
40.3594
40.5508
40.993
41.4038
41.3323
41.2877
41.3423
41.6537
42.348
43.8177
45.8255
46.7339
45.7244
42.3191
38.7721
36.0681
33.6674
31.619
29.9015
28.7873
28.2382
28.0236
27.7916
27.5606
27.4145
27.3377
27.398
27.5904
27.9757
28.469
29.1269
29.9447
30.9217
31.9479
32.9305
33.7677
34.6002
35.4665
36.1305
36.6449
36.9577
37.222
37.4069
37.4647
37.3142
36.9661
36.5314
36.0815
35.6635
35.2408
34.8618
34.5133
34.2148
33.9194
33.6004
33.1744
32.6134
31.8306
30.8931
29.8001
28.6852
27.5341
26.4386
25.3542
24.3452
23.3569
22.4358
21.5332
20.6881
19.8554
19.0627
18.2684
17.4937
16.7009
15.9107
15.0952
14.2758
13.4274
12.5682
11.6768
10.7714
9.83455
8.88378
7.90472
6.91344
5.89557
4.86504
3.80456
2.73847
1.61538
0.609322
49.5051
48.4582
47.5393
46.4118
45.4467
43.8678
42.6043
41.3569
40.6423
40.3061
40.4952
40.9486
41.3677
41.262
41.1941
41.2298
41.5164
42.2047
43.7225
45.8635
46.8563
45.9132
42.3083
38.6931
36.0003
33.6001
31.5392
29.8354
28.7484
28.225
28.0319
27.8031
27.5782
27.4347
27.3466
27.3919
27.5751
27.9508
28.4314
29.0734
29.8763
30.8462
31.8728
32.8616
33.6979
34.5331
35.4131
36.0779
36.5819
36.8897
37.1578
37.3517
37.4204
37.2733
36.9215
36.4864
36.0419
35.6271
35.2052
34.8329
34.4968
34.2159
33.9438
33.6464
33.2362
32.6783
31.8838
30.9259
29.8134
28.6847
27.5265
26.4283
25.3443
24.3371
23.352
22.4348
21.5372
20.6972
19.8701
19.0828
18.2937
17.5232
16.7338
15.9465
15.1335
14.3158
13.4681
12.6085
11.7159
10.8085
9.86927
8.91584
7.93416
6.9402
5.91959
4.88608
3.82199
2.75202
1.6227
0.614731
49.561
48.4581
47.5337
46.4162
45.4446
43.8561
42.5687
41.3128
40.5935
40.2422
40.4269
40.8959
41.3243
41.18
41.0858
41.1062
41.3689
42.0494
43.6143
45.882
46.9583
46.1025
42.2552
38.5901
35.9208
33.5252
31.4501
29.7783
28.7278
28.2286
28.05
27.8203
27.6012
27.4617
27.3631
27.3955
27.5709
27.9378
28.4055
29.0297
29.8153
30.7753
31.8003
32.7937
33.6297
34.4687
35.3605
36.0217
36.515
36.8183
37.0879
37.2889
37.3698
37.2279
36.8736
36.4409
36.0034
35.5907
35.1686
34.804
34.481
34.2208
33.9749
33.7015
33.3076
32.7514
31.9417
30.9598
29.8259
28.6828
27.5173
26.4163
25.3328
24.3274
23.3459
22.433
21.5409
20.7066
19.8858
19.1044
18.3209
17.5549
16.7695
15.9854
15.1752
14.3592
13.5122
12.6521
11.7581
10.8484
9.90653
8.9502
7.96565
6.96877
5.94513
4.90834
3.84034
2.76617
1.63046
0.61966
49.6197
48.451
47.5254
46.4144
45.4369
43.841
42.5319
41.2703
40.546
40.1775
40.3564
40.8449
41.283
41.093
40.9695
40.9772
41.2171
41.8896
43.5006
45.8868
46.9845
46.215
42.1504
38.4725
35.8103
33.4166
31.3447
29.7345
28.7234
28.2403
28.0658
27.8339
27.622
27.4893
27.3834
27.4062
27.5751
27.9336
28.3888
28.9951
29.7631
30.7113
31.7317
32.7264
33.5622
34.4057
35.3059
35.9597
36.442
36.7417
37.0121
37.2191
37.3135
37.1787
36.8234
36.3957
35.9666
35.554
35.1309
34.7752
34.4663
34.2289
34.0111
33.7627
33.3849
32.8295
32.0015
30.9926
29.8357
28.6779
27.5053
26.4018
25.319
24.3158
23.3379
22.4297
21.5434
20.7151
19.9008
19.1256
18.348
17.5867
16.8055
16.025
15.2179
14.4036
13.5573
12.6967
11.8011
10.8891
9.94432
8.98496
7.9974
6.9975
5.97075
4.93063
3.85868
2.78031
1.63818
0.624223
49.6693
48.4389
47.5174
46.4087
45.4248
43.8256
42.4943
41.2281
40.4954
40.1047
40.2737
40.7844
41.2404
40.9985
40.837
40.8366
41.0513
41.7203
43.3693
45.858
46.9296
46.2318
42.0306
38.3412
35.6304
33.2474
31.2221
29.6936
28.7349
28.2729
28.0939
27.8562
27.6516
27.5218
27.4095
27.426
27.5912
27.9423
28.385
28.9723
29.7212
30.6565
31.6721
32.666
33.5011
34.3481
35.253
35.896
36.3679
36.6643
36.9318
37.142
37.2507
37.1247
36.7703
36.3517
35.9329
35.5182
35.0934
34.7471
34.4529
34.2416
34.0555
33.8329
33.4711
32.9148
32.0643
31.0246
29.8431
28.6702
27.4903
26.3845
25.3024
24.3016
23.3278
22.4246
21.5447
20.7231
19.916
19.1475
18.3761
17.62
16.8436
16.0672
15.2633
14.4509
13.6052
12.744
11.8467
10.932
9.98419
9.02156
8.03076
7.02764
5.99755
4.95388
3.87781
2.79505
1.64621
0.628751
49.7059
48.4231
47.5093
46.4002
45.4088
43.8112
42.4593
41.191
40.4479
40.0323
40.19
40.7222
41.206
40.9091
40.7001
40.6911
40.8772
41.5543
43.2229
45.7238
46.8212
46.2453
41.9388
38.174
35.4237
33.0345
31.0821
29.6421
28.7474
28.3127
28.1244
27.8811
27.6839
27.5494
27.4307
27.4452
27.611
27.9567
28.3871
28.9573
29.6875
30.6089
31.6185
32.6091
33.4435
34.2931
35.1979
35.8278
36.2906
36.5843
36.8474
37.0591
37.1825
37.0667
36.7148
36.3092
35.9018
35.4826
35.0559
34.7195
34.4412
34.258
34.1058
33.9082
33.5612
33.0024
32.1251
31.052
29.8452
28.6579
27.4714
26.3636
25.2824
24.2844
23.315
22.4172
21.5439
20.7294
19.9297
19.1683
18.4033
17.6529
16.8817
16.1097
15.3091
14.4987
13.6538
12.7919
11.8928
10.9753
10.0242
9.05815
8.06403
7.05764
6.0242
4.97704
3.89692
2.80984
1.65418
0.633247
49.7322
48.4045
47.5
46.3877
45.3877
43.7971
42.4244
41.1553
40.3971
39.9522
40.0917
40.645
41.1707
40.8222
40.5513
40.5369
40.6882
41.3948
43.0639
45.4792
46.6735
46.284
41.8199
37.9271
35.2001
32.7973
30.9247
29.5758
28.7534
28.3559
28.1652
27.9157
27.7225
27.5754
27.4476
27.4621
27.6328
27.9781
28.398
28.9516
29.6633
30.5704
31.574
32.5602
33.3957
34.2469
35.1471
35.7611
36.2178
36.5089
36.7628
36.9719
37.1094
37.0041
36.6567
36.2693
35.8747
35.4485
35.0198
34.6926
34.4302
34.2791
34.1641
33.9897
33.6565
33.0914
32.1817
31.0726
29.8411
28.6403
27.4477
26.3383
25.2583
24.2634
23.2987
22.407
21.541
20.7343
19.9428
19.189
18.4311
17.6868
16.9214
16.1543
15.3574
14.5491
13.705
12.8425
11.9413
11.0208
10.0661
9.09645
8.09882
7.089
6.05202
5.00125
3.91696
2.82535
1.66256
0.63801
49.7536
48.3878
47.4913
46.3727
45.3643
43.7842
42.3927
41.1258
40.3503
39.8747
39.9904
40.5654
41.1367
40.7463
40.4063
40.3861
40.5031
41.2553
42.9138
45.1611
46.49
46.3474
41.6429
37.6499
34.9645
32.5406
30.7528
29.5077
28.7512
28.3882
28.2031
27.9521
27.7601
27.5978
27.4596
27.4744
27.651
27.9991
28.4122
28.9511
29.6461
30.5386
31.5349
32.5151
33.3533
34.2049
35.0951
35.6914
36.1447
36.4349
36.6784
36.8816
37.0315
36.937
36.5959
36.2313
35.8499
35.4144
34.9841
34.6652
34.4197
34.3029
34.2247
34.0698
33.7491
33.1734
32.2266
31.0817
29.828
28.6158
27.4184
26.3079
25.2296
24.2382
23.2788
22.3936
21.5353
20.737
19.954
19.2082
18.4576
17.7199
16.9607
16.1989
15.4058
14.6
13.7568
12.8936
11.9903
11.0664
10.108
9.13464
8.13344
7.12014
6.07968
5.02544
3.93712
2.84105
1.67106
0.642962
49.7707
48.3703
47.4799
46.352
45.3367
43.7715
42.3616
41.0965
40.3009
39.7909
39.8707
40.4745
41.0731
40.6659
40.257
40.231
40.3254
41.1182
42.7423
44.8561
46.2933
46.2847
41.4224
37.3888
34.7155
32.2589
30.5763
29.4513
28.7573
28.4234
28.2511
28.0013
27.8063
27.6258
27.4745
27.4894
27.6719
28.0249
28.4337
28.9586
29.6375
30.5163
31.5057
32.4803
33.3225
34.1741
35.0497
35.6272
36.0814
36.3716
36.6013
36.7917
36.9497
36.8656
36.5332
36.1967
35.8288
35.3815
34.95
34.6366
34.4071
34.3283
34.2858
34.1452
33.8368
33.2444
32.2557
31.077
29.8047
28.5833
27.3821
26.2712
25.1951
24.2079
23.2543
22.3765
21.5268
20.7376
19.964
19.2269
18.4843
17.754
17.0017
16.2456
15.4567
14.6535
13.8115
12.9475
12.0418
11.1144
10.152
9.17464
8.16969
7.15277
6.10871
5.05097
3.95852
2.8578
1.68041
0.648231
49.7836
48.3529
47.4674
46.3278
45.3087
43.7615
42.3338
41.0704
40.2556
39.7109
39.7464
40.3827
40.9893
40.5872
40.1206
40.0828
40.1666
40.9857
42.5577
44.5429
46.0365
46.1297
41.1716
37.1277
34.4486
31.9669
30.3989
29.4079
28.7751
28.4583
28.3063
28.0574
27.8547
27.654
27.4885
27.5033
27.6916
28.0491
28.4568
28.9708
29.6351
30.5007
31.4817
32.4514
33.297
34.1484
35.0041
35.5633
36.0202
36.3112
36.5294
36.7025
36.8627
36.7888
36.4678
36.1633
35.8076
35.3468
34.9153
34.6041
34.39
34.349
34.3382
34.2066
33.9113
33.2959
32.2637
31.056
29.7695
28.5418
27.3384
26.2281
25.155
24.1725
23.2256
22.3558
21.5153
20.7358
19.9719
19.2439
18.5098
17.7874
17.0424
16.2923
15.5078
14.7076
13.8668
13.0021
12.0938
11.1626
10.196
9.21464
8.20587
7.18534
6.13784
5.07678
3.9804
2.87516
1.69044
0.653488
49.792
48.3333
47.4498
46.296
45.2776
43.7489
42.3054
41.0404
40.2061
39.6233
39.6061
40.2714
40.8878
40.4922
39.9904
39.9261
40.0203
40.8417
42.3239
44.1532
45.7001
45.9238
40.8934
36.8425
34.1352
31.6486
30.2153
29.3796
28.8149
28.5118
28.3882
28.1371
27.9171
27.6905
27.508
27.5221
27.7173
28.0768
28.485
28.9904
29.641
30.4944
31.4671
32.4338
33.2853
34.1363
34.9673
35.51
35.9735
36.2641
36.4681
36.6175
36.7734
36.7085
36.4013
36.1331
35.788
35.312
34.88
34.5675
34.3655
34.3609
34.3795
34.2538
33.9714
33.325
32.2491
31.0178
29.7216
28.4899
27.2857
26.1771
25.1078
24.1311
23.1918
22.331
21.5009
20.7321
19.9788
19.2605
18.5356
17.8219
17.0848
16.341
15.5616
14.7646
13.9251
13.0596
12.1485
11.2133
10.2424
9.25674
8.24405
7.21982
6.1688
5.10438
4.00406
2.89416
1.702
0.658838
49.7962
48.3135
47.429
46.2622
45.2466
43.7332
42.2782
41.0102
40.1596
39.5382
39.4701
40.1467
40.7959
40.3996
39.8815
39.7674
39.893
40.6971
42.0572
43.6915
45.2962
45.6912
40.6072
36.5469
33.7917
31.3192
30.0329
29.3557
28.8617
28.5746
28.4789
28.2243
27.9804
27.725
27.525
27.5379
27.7414
28.1012
28.5117
29.0118
29.6507
30.4927
31.4563
32.4212
33.2811
34.1297
34.9299
35.4575
35.929
36.2208
36.4108
36.5319
36.6791
36.6227
36.3316
36.1021
35.7649
35.2744
34.8397
34.5245
34.3337
34.3587
34.4024
34.2833
34.0107
33.3259
32.2103
30.9624
29.6607
28.4277
27.2245
26.1189
25.0545
24.0846
23.1539
22.3031
21.484
20.7264
19.984
19.2757
18.5603
17.8558
17.1269
16.3898
15.6157
14.8223
13.9842
13.1178
12.2038
11.2645
10.2891
9.29914
8.28246
7.25457
6.20021
5.13263
4.02868
2.91431
1.71484
0.664245
49.7974
48.2915
47.3999
46.2224
45.2069
43.7117
42.2493
40.9727
40.1083
39.445
39.3318
39.9937
40.685
40.3027
39.778
39.5868
39.7773
40.5419
41.7359
43.1368
44.8108
45.4011
40.3051
36.2144
33.4009
30.9686
29.8532
29.3444
28.9264
28.6631
28.5934
28.3318
28.0555
27.7656
27.5465
27.5579
27.7701
28.1288
28.5399
29.0376
29.666
30.4984
31.4536
32.4193
33.2931
34.1369
34.903
35.4173
35.8991
36.1924
36.3632
36.4497
36.5845
36.5344
36.2611
36.0717
35.7408
35.2376
34.7956
34.4751
34.2939
34.3419
34.4057
34.2976
34.0262
33.2963
32.1473
30.8893
29.5859
28.3542
27.1536
26.0525
24.9943
24.0324
23.1115
22.2718
21.4648
20.7191
19.9883
19.2907
18.5854
17.8906
17.1706
16.4408
15.6725
14.883
14.0465
13.1792
12.262
11.3184
10.3384
9.34409
8.32332
7.29172
6.23389
5.16314
4.05563
2.93673
1.72971
0.670292
49.7963
48.2699
47.3633
46.1814
45.1587
43.6902
42.2231
40.9338
40.0597
39.3557
39.2044
39.8375
40.5612
40.2096
39.6708
39.3934
39.6706
40.4042
41.4098
42.5352
44.2867
45.083
39.989
35.8462
32.9773
30.6242
29.6846
29.3391
28.9923
28.7597
28.7099
28.4389
28.1257
27.8002
27.5631
27.5725
27.793
28.1513
28.5643
29.0627
29.6825
30.5059
31.4534
32.4226
33.3113
34.1465
34.8756
35.3768
35.8682
36.1665
36.3148
36.3633
36.4845
36.4393
36.1856
36.0353
35.7091
35.1948
34.743
34.4151
34.2435
34.3065
34.3855
34.2951
34.011
33.2339
32.061
30.7995
29.4983
28.2703
27.0745
25.9795
24.9288
23.9761
23.066
22.2383
21.4437
20.7103
19.991
19.3043
18.6094
17.9245
17.2136
16.4916
15.7296
14.9444
14.1098
13.2414
12.321
11.3731
10.3884
9.38962
8.3647
7.32939
6.26828
5.19465
4.08402
2.96091
1.74623
0.677213
49.7902
48.2444
47.3136
46.1296
45.0989
43.6707
42.2001
40.8868
40.0048
39.2578
39.0787
39.6723
40.4167
40.0947
39.5438
39.1876
39.5561
40.2747
41.0605
41.9144
43.7292
44.668
39.6191
35.4243
32.5066
30.2869
29.5381
29.3419
29.0677
28.8751
28.8419
28.5591
28.2038
27.8402
27.5843
27.5921
27.8185
28.1742
28.5867
29.0892
29.7029
30.518
31.4605
32.4379
33.344
34.1672
34.8584
35.3485
35.8497
36.1549
36.2729
36.2797
36.385
36.3415
36.1085
35.9955
35.6741
35.1495
34.6821
34.3445
34.1825
34.2546
34.3438
34.2777
33.9627
33.1393
31.9518
30.6929
29.3974
28.1757
26.9866
25.8992
24.8574
23.9152
23.017
22.2022
21.4208
20.7002
19.993
19.3176
18.6336
17.9591
17.2579
16.5444
15.7894
15.0091
14.1765
13.3071
12.3835
11.431
10.4415
9.43811
8.40894
7.36983
6.30531
5.22888
4.11535
2.9881
1.76514
0.68542
49.7797
48.2144
47.2594
46.0674
45.039
43.6618
42.1843
40.8394
39.9508
39.1638
38.9695
39.5247
40.2728
39.9911
39.4181
38.9841
39.4425
40.169
40.7279
41.3221
43.1511
44.1646
39.1904
34.9639
32.0131
29.986
29.4239
29.3537
29.1381
28.9853
28.9602
28.6655
28.2713
27.8716
27.5975
27.604
27.8343
28.1878
28.6017
29.1115
29.7211
30.5277
31.469
32.4578
33.3784
34.1856
34.8383
35.3189
35.8278
36.1445
36.2254
36.1914
36.2792
36.236
36.0243
35.945
35.6302
35.0963
34.6095
34.2611
34.1067
34.1836
34.2794
34.2387
33.8792
33.0151
31.8226
30.5717
29.2854
28.0725
26.8921
25.814
24.7822
23.8516
22.9659
22.1645
21.3965
20.6885
19.9934
19.3291
18.6563
17.9925
17.3013
16.597
15.8498
15.0748
14.2444
13.3742
12.4472
11.4902
10.4956
9.48738
8.45385
7.41089
6.34325
5.26451
4.14879
3.01784
1.78616
0.694675
49.7641
48.1732
47.1952
45.9907
44.9878
43.6609
42.1721
40.7847
39.887
39.0598
38.86
39.3811
40.1166
39.8785
39.2698
38.7824
39.3103
40.0566
40.3851
40.7647
42.5165
43.5451
38.6954
34.4607
31.4889
29.7322
29.3517
29.3723
29.2049
29.0954
29.0787
28.7751
28.3463
27.9089
27.6146
27.6211
27.8488
28.1963
28.6085
29.1314
29.7411
30.5385
31.4832
32.4862
33.4224
34.2111
34.8272
35.2985
35.8171
36.1454
36.1823
36.1114
36.1785
36.1301
35.9375
35.8888
35.5811
35.0406
34.531
34.1671
34.018
34.0948
34.1926
34.1759
33.7629
32.8649
31.6745
30.436
29.1623
27.9609
26.791
25.7237
24.7028
23.7847
22.9124
22.1249
21.3707
20.6757
19.9927
19.34
18.6788
18.0263
17.3457
16.6517
15.9133
15.1442
14.3163
13.4453
12.515
11.553
10.5532
9.53997
8.50193
7.45506
6.38424
5.30354
4.18612
3.05154
1.81024
0.705043
49.7507
48.1286
47.1263
45.9166
44.944
43.6499
42.1644
40.7327
39.8244
38.9612
38.7639
39.2627
39.9853
39.7861
39.1405
38.6038
39.178
39.9348
40.0668
40.2623
41.8661
42.8814
38.1751
33.9414
30.9634
29.5368
29.3203
29.4029
29.2645
29.1806
29.1659
28.8635
28.4116
27.9393
27.6235
27.6286
27.8485
28.191
28.6029
29.1434
29.7548
30.5427
31.4974
32.5164
33.4633
34.2284
34.8085
35.2671
35.7993
36.1374
36.131
36.0314
36.0759
36.0171
35.8411
35.8182
35.5173
34.9747
34.4445
34.0617
33.9137
33.9866
34.0823
34.0842
33.6172
32.6932
31.5115
30.2892
29.0312
27.8433
26.686
25.6306
24.6215
23.7166
22.8578
22.0839
21.3434
20.6612
19.9901
19.3488
18.6994
18.0586
17.3894
16.7066
15.9776
15.2149
14.3899
13.5183
12.5844
11.6172
10.6118
9.59339
8.55076
7.5
6.42654
5.34471
4.2265
3.08872
1.83725
0.716322
49.738
48.0807
47.0455
45.8299
44.8807
43.6217
42.1504
40.6716
39.7519
38.8527
38.67
39.1578
39.8498
39.7131
39.1171
38.5225
39.0398
39.7491
39.7449
39.7896
41.1728
42.1459
37.6024
33.38
30.4311
29.3862
29.3198
29.4191
29.3114
29.2462
29.2468
28.954
28.4903
27.9831
27.6436
27.6425
27.8431
28.175
28.586
29.1506
29.7684
30.5445
31.5147
32.5502
33.5074
34.2454
34.7911
35.231
35.7849
36.1299
36.0891
35.9682
35.9856
35.9067
35.7414
35.7393
35.4455
34.9066
34.3562
33.9465
33.8005
33.8643
33.9528
33.9691
33.4479
32.5038
31.3346
30.1318
28.8926
27.7208
26.577
25.5345
24.5379
23.6467
22.8018
22.0415
21.3147
20.6454
19.9861
19.3566
18.7194
18.0908
17.4345
16.7642
16.0455
15.2896
14.4679
13.5958
12.658
11.6853
10.674
9.65032
8.60306
7.54853
6.47264
5.39031
4.27199
3.1311
1.86833
0.728991
49.7288
48.0362
46.9595
45.7315
44.8043
43.5868
42.1333
40.6106
39.6793
38.7525
38.5921
39.0799
39.7298
39.6582
39.0938
38.5522
38.943
39.5246
39.4509
39.3497
40.4811
41.3956
37.0224
32.7718
29.9267
29.2605
29.3348
29.4107
29.3327
29.2842
29.3059
29.03
28.5648
28.0243
27.6604
27.6442
27.8228
28.1432
28.5638
29.1539
29.7735
30.5359
31.5277
32.582
33.5373
34.2434
34.7593
35.1802
35.7588
36.1115
36.048
35.9101
35.8974
35.7917
35.6314
35.6415
35.3568
34.8303
34.2633
33.8232
33.6769
33.7294
33.8085
33.8312
33.2595
32.3005
31.1478
29.9672
28.7494
27.5958
26.4669
25.4374
24.4537
23.5761
22.7452
21.9982
21.2845
20.6275
19.9798
19.3622
18.7372
18.1213
17.4793
16.8224
16.1146
15.3662
14.548
13.6751
12.7332
11.7544
10.7371
9.70808
8.65629
7.59827
6.52081
5.43909
4.32174
3.17826
1.90324
0.743313
49.7168
47.9911
46.8572
45.6151
44.7249
43.5432
42.1097
40.5376
39.5887
38.645
38.5181
39.0182
39.616
39.5746
39.0237
38.5511
38.8512
39.2733
39.1619
38.9171
39.749
40.6065
36.4148
32.0584
29.4934
29.1538
29.3519
29.3833
29.3147
29.31
29.3651
29.1095
28.654
28.083
27.6942
27.6498
27.8083
28.1056
28.5373
29.1613
29.7815
30.5217
31.5372
32.6161
33.5587
34.2389
34.7372
35.1524
35.7351
36.093
36.023
35.8716
35.8258
35.6853
35.5199
35.5337
35.2601
34.755
34.174
33.6956
33.5541
33.5929
33.6613
33.6779
33.0554
32.0858
30.9521
29.7967
28.6033
27.4697
26.3565
25.3399
24.369
23.5046
22.6875
21.9542
21.2533
20.6084
19.9719
19.3666
18.7543
18.1521
17.5256
16.8836
16.1876
15.4471
14.6326
13.7587
12.8121
11.8271
10.8038
9.76964
8.71351
7.65242
6.57387
5.49367
4.37817
3.23215
1.9431
0.760078
49.7019
47.9479
46.7514
45.5021
44.6549
43.4933
42.0888
40.4649
39.489
38.5464
38.4571
38.9803
39.528
39.4782
38.9398
38.5166
38.77
39.0299
38.9005
38.4963
39.0347
39.8381
35.8325
31.3485
29.1618
29.0488
29.3671
29.3387
29.258
29.3145
29.4054
29.1737
28.7405
28.1422
27.7254
27.6464
27.7925
28.0648
28.5033
29.1664
29.7854
30.4961
31.5422
32.6454
33.5578
34.2189
34.7115
35.1346
35.6956
36.0638
35.9927
35.8335
35.754
35.5789
35.4016
35.4069
35.1468
34.6712
34.0821
33.5696
33.4316
33.4578
33.5188
33.5011
32.8335
31.8606
30.7507
29.6234
28.4567
27.3446
26.2478
25.2441
24.2854
23.433
22.629
21.9094
21.2211
20.5875
19.9619
19.3688
18.7694
18.1819
17.5719
16.9457
16.2621
15.5298
14.7187
13.8435
12.8919
11.9005
10.8713
9.83218
8.77212
7.70849
6.62996
5.55265
4.44021
3.29197
1.98728
0.779419
49.6804
47.8998
46.63
45.3845
44.5872
43.4354
42.0573
40.3836
39.3604
38.4403
38.3981
38.9521
39.4493
39.3673
38.8375
38.4176
38.6956
38.7832
38.6426
38.0335
38.3181
39.1059
35.2364
30.6834
28.9141
28.9328
29.3768
29.2777
29.1729
29.2864
29.4372
29.2273
28.8366
28.2286
27.7792
27.6617
27.7916
28.0276
28.458
29.1698
29.7936
30.4658
31.5502
32.6731
33.5538
34.2
34.6937
35.1321
35.6481
36.0377
35.9759
35.8122
35.6966
35.4866
35.2865
35.2712
35.0293
34.5866
33.9946
33.4496
33.321
33.3373
33.3955
33.3122
32.5895
31.6256
30.5442
29.4493
28.3126
27.2229
26.1417
25.1507
24.2031
23.362
22.57
21.8639
21.1881
20.5659
19.9512
19.37
18.7841
18.2125
17.6202
17.0107
16.3401
15.6163
14.8085
13.9315
12.9747
11.9771
10.9425
9.89904
8.83552
7.76998
6.6922
5.61888
4.51028
3.35931
2.03643
0.801629
49.6569
47.8529
46.5091
45.276
44.5221
43.3791
42.0273
40.3127
39.2302
38.3488
38.351
38.938
39.3903
39.2717
38.733
38.2463
38.6278
38.5646
38.3951
37.5094
37.654
38.4375
34.6665
30.0153
28.7092
28.8114
29.3909
29.2097
29.0943
29.2369
29.4438
29.2642
28.9287
28.3267
27.8382
27.6796
27.7859
27.9855
28.4048
29.1657
29.7902
30.4254
31.5555
32.6922
33.5299
34.1637
34.6604
35.1063
35.5795
36.0001
35.9592
35.7866
35.6335
35.3955
35.1685
35.1139
34.8996
34.4959
33.9025
33.3386
33.218
33.2154
33.2782
33.1071
32.3248
31.382
30.3351
29.2769
28.1731
27.1059
26.0397
25.0604
24.1226
23.2918
22.5109
21.8175
21.1535
20.5427
19.9391
19.3693
18.7974
18.2427
17.669
17.0764
16.4191
15.7034
14.8984
14.0195
13.0575
12.0541
11.0145
9.96732
8.90089
7.83408
6.75834
5.69041
4.58646
3.43213
2.08882
0.825905
49.6282
47.7978
46.3794
45.1589
44.4509
43.3195
41.9909
40.2323
39.0865
38.2473
38.2988
38.9251
39.3379
39.1834
38.6324
38.0162
38.5188
38.3639
38.1371
36.9258
37.0356
37.8261
34.1194
29.3327
28.5357
28.6981
29.4253
29.1872
29.1143
29.1901
29.3942
29.2598
29.0125
28.4599
27.9303
27.7196
27.7893
27.9426
28.3451
29.1649
29.7839
30.3875
31.5626
32.7141
33.5068
34.1355
34.625
35.074
35.5413
35.9725
35.9592
35.7695
35.5829
35.3201
35.057
34.9384
34.772
34.4071
33.8142
33.2397
33.1292
33.0876
33.1311
32.8578
32.0452
31.1349
30.1264
29.1094
28.0418
26.9984
25.9447
24.975
24.045
23.2234
22.4526
21.771
21.1184
20.5187
19.9266
19.3683
18.8109
18.2741
17.7199
17.1447
16.5004
15.7926
14.9902
14.1094
13.1427
12.1343
11.0908
10.0407
8.97181
7.90444
6.83159
5.76978
4.67025
3.51054
2.14376
0.851358
49.5986
47.7388
46.2568
45.0472
44.3804
43.2633
41.9547
40.1532
38.9444
38.1497
38.2507
38.9191
39.3024
39.1199
38.5478
37.8358
38.3592
38.1929
37.8741
36.3077
36.5129
37.3091
33.6662
28.7378
28.3914
28.6044
29.4676
29.1802
29.1785
29.1451
29.3013
29.2069
29.0572
28.5969
28.0334
27.7614
27.7825
27.8934
28.2783
29.159
29.7601
30.3427
31.5648
32.7329
33.4631
34.0913
34.5707
35.0367
35.5234
35.9415
35.9577
35.7403
35.5273
35.2453
34.9455
34.7474
34.6356
34.3133
33.7169
33.1482
33.0314
32.9536
32.9527
32.5656
31.7563
30.8867
29.9206
28.9483
27.9191
26.9
25.8569
24.8944
23.9707
23.1564
22.3947
21.7239
21.0823
20.4932
19.9128
19.3665
18.8239
18.3055
17.7708
17.2127
16.581
15.8802
15.0804
14.1979
13.2272
12.2148
11.1684
10.1159
9.04499
7.97772
6.90896
5.85382
4.75794
3.59035
2.19784
0.875776
49.564
47.6674
46.1202
44.9203
44.297
43.2022
41.9089
40.0452
38.7948
38.0438
38.1914
38.9072
39.2684
39.0721
38.4492
37.7032
38.1977
38.0496
37.6011
35.6822
36.0446
36.8863
33.3068
28.2705
28.3143
28.5428
29.5017
29.1732
29.2439
29.1444
29.1732
29.0788
29.0254
28.7149
28.1546
27.8231
27.7776
27.8508
28.2055
29.1365
29.7168
30.305
31.5704
32.7458
33.4272
34.0518
34.5251
35.0276
35.5361
35.9126
35.9671
35.7171
35.4971
35.1914
34.8455
34.5869
34.4986
34.2168
33.6208
33.0751
32.9172
32.8226
32.7522
32.2579
31.4708
30.6443
29.7223
28.7982
27.8111
26.8157
25.7797
24.8207
23.9012
23.0924
22.3388
21.6778
21.0468
20.4676
19.8985
19.365
18.8378
18.3381
17.8229
17.2814
16.6614
15.9675
15.1706
14.2875
13.3141
12.2991
11.251
10.1967
9.12399
8.05751
6.99325
5.94389
4.84909
3.66957
2.24888
0.896944
49.5307
47.5928
45.9883
44.7949
44.2102
43.1381
41.853
39.9389
38.6482
37.9406
38.1253
38.8929
39.2445
39.0559
38.3603
37.616
38.0541
37.9388
37.3281
35.0565
35.564
36.5636
33.0609
27.9682
28.2929
28.5009
29.4957
29.1396
29.2271
29.1076
29.0197
28.913
28.925
28.7525
28.2488
27.869
27.7549
27.8033
28.1498
29.098
29.6165
30.2576
31.5589
32.7426
33.3818
34.0009
34.4702
35.0186
35.5527
35.8714
35.9706
35.6936
35.4739
35.1423
34.7493
34.4336
34.3519
34.1136
33.5264
33.0268
32.7977
32.6731
32.5165
31.9544
31.1935
30.4069
29.531
28.6585
27.7164
26.7431
25.7121
24.7529
23.8351
23.0298
22.2834
21.6312
21.0111
20.4416
19.8834
19.3632
18.8517
18.3705
17.8736