/*--------------------------------*- C++ -*----------------------------------*\
| =========                 |                                                 |
| \\      /  F ield         | OpenFOAM: The Open Source CFD Toolbox           |
|  \\    /   O peration     | Version:  4.1                                   |
|   \\  /    A nd           | Web:      www.OpenFOAM.org                      |
|    \\/     M anipulation  |                                                 |
\*---------------------------------------------------------------------------*/
FoamFile
{
    version     2.0;
    format      ascii;
    class       surfaceScalarField;
    location    "15";
    object      phi;
}
// * * * * * * * * * * * * * * * * * * * * * * * * * * * * * * * * * * * * * //

dimensions      [0 3 -1 0 0 0 0];

internalField   nonuniform List<scalar> 
52920
(
1824.36
-102.713
1933.1
-87.9421
2029.46
-93.1507
2113.42
-87.5675
2194.39
-69.7405
2245.85
-54.0828
2304.44
-53.459
2369.29
-54.5784
2426.96
-53.0806
2490.87
-50.1
2543.02
-61.0709
2612.26
-67.2565
2673.28
-85.5622
2800.36
-111.549
2915.76
-129.406
3064.91
-138.78
3188.85
-139.546
3335.1
-128.288
3434.26
-102.161
3531.17
-84.5919
3615.67
-98.6445
3780.78
-138.052
3926.7
-139.149
4028.79
-87.7473
4087.53
-42.6084
4118.33
-32.4457
4155.2
-35.19
4196.49
-34.3162
4233.9
-32.197
4276.84
-31.4664
4319.78
-32.6958
4367.54
-36.2276
4416.77
-37.835
4463.39
-34.7887
4503.02
-27.8749
4533.65
-20.3575
4559.05
-15.2915
4581.96
-13.8733
4605.65
-15.0749
4629.43
-17.6891
4657.23
-22.0884
4690.96
-29.0531
4734.19
-39.3139
4789.11
-51.5349
4853.02
-61.7301
4929.55
-71.6366
5025.72
-84.8116
5115.44
-97.3369
5230.35
-106.828
5335.04
-114.641
5469.61
-127.718
5600.38
-143.364
5764.54
-158.679
5919.41
-164.422
6079.06
-160.763
6221.36
-149.675
6353.26
-136.523
6472.59
-124.235
6580.99
-113.811
6683.73
-105.994
6778.42
-100.646
6874.15
-98.378
6966.98
-98.9279
7067.89
-102.893
7171.34
-109.456
7288.31
-117.487
7405.24
-123.234
7531.9
-125.877
7649.28
-124.224
7770.96
-120.777
7881.06
-116.011
7994.4
-111.92
8097.02
-107.945
8203.24
-105.022
8301.34
-102.366
8403.1
-100.565
8498.65
-99.1089
8597.85
-98.3663
8693.15
-98.0155
8792.04
-98.2172
8888.66
-98.7605
8988.74
-99.6391
9087.88
-100.72
9190.15
-101.947
9292.26
-103.282
9397.11
-104.658
9502.35
-106.075
9609.93
-107.466
9718.16
-108.833
9828.32
-110.126
9939.27
-111.357
10051.8
-112.538
10165.2
-113.708
10280.1
-114.922
10396.1
-116.183
10513.5
-117.519
10632.6
-119.092
10752
-119.414
10881.6
-129.611
-120.664
1947.9
-219.191
2080.58
-201.838
2192.57
-200.549
2289.93
-189.032
2381.39
-152.561
2438.72
-120.968
2507.11
-122.365
2585.68
-130.576
2655.66
-128.601
2735.15
-125.09
2802.21
-146.446
2888.72
-165.083
2963.55
-200.309
3109.58
-252.095
3240.18
-283.506
3406.48
-300.668
3544.34
-299.528
3703.92
-273.392
3808.95
-212.507
3911.38
-172.56
4002.02
-200.926
4178.52
-289.815
4334.39
-290.47
4443.25
-183.982
4506.82
-91.7744
4545.68
-69.2339
4594.49
-74.5182
4651.17
-73.874
4706.57
-70.5387
4770.27
-70.0779
4835.83
-73.6578
4907.03
-81.2579
4979.31
-83.9309
5047.67
-76.8241
5107.66
-62.6916
5157.12
-47.7483
5200.03
-37.8744
5238.54
-34.6
5275.61
-36.2266
5310.15
-40.3373
5345.97
-47.5283
5384.81
-59.3123
5430.17
-77.2612
5483.99
-98.9877
5543.44
-116.227
5611.62
-131.674
5694.69
-152.613
5767.2
-174.245
5858.46
-189.086
5935.01
-201.722
6036.86
-224.161
6133.35
-254.174
6262.81
-284.51
6385.48
-298.255
6516.18
-293.986
6633.68
-276.01
6744.87
-254.052
6847.35
-233.431
6942.3
-216.268
7034.2
-203.234
7119.87
-194.376
7207.27
-190.417
7291.47
-191.122
7382.32
-197.535
7474.19
-208.857
7578.31
-223.552
7682.26
-235.431
7796.31
-241.306
7902.09
-239.286
8012.91
-233.139
8112.94
-224.637
8216.46
-216.586
8309.34
-208.92
8405.4
-202.415
8492.66
-196.492
8582.46
-191.505
8664.69
-187.162
8748.83
-183.653
8827.1
-180.851
8906.76
-178.772
8981.77
-177.316
9057.7
-176.3
9130.04
-175.637
9202.76
-175.136
9272.46
-174.798
9342
-174.489
9408.98
-174.246
9475.36
-173.978
9539.48
-173.693
9602.64
-173.334
9663.75
-172.896
9723.62
-172.427
9781.65
-171.961
9838.37
-171.669
9893.6
-171.518
9947.74
-171.715
10001
-172.36
10053.5
-171.946
10101.2
-177.236
-179.5
2104.5
-334.303
2241.31
-316.081
2360.45
-317.703
2467.61
-299.042
2571.03
-243.145
2647.14
-196.884
2735.97
-204.016
2833.57
-215.736
2921.72
-208.381
3016.38
-202.871
3098.37
-232.897
3194.26
-253.454
3275.84
-298.946
3417.75
-374.759
3543.52
-418.955
3700.81
-444.738
3833.88
-444.867
3990.2
-410.56
4097.77
-322.017
4200.82
-263.718
4289.88
-303.944
4461.35
-435.69
4622.75
-444.888
4743.96
-291.328
4821.48
-154.815
4875.19
-125.748
4938.53
-140.358
5008.37
-142.194
5074.72
-137.808
5145
-135.729
5212.07
-137.544
5279.13
-143.73
5342.27
-142.264
5396.94
-125.966
5438.54
-98.2547
5464.16
-68.2248
5476.99
-44.9361
5478.83
-31.1844
5472.81
-24.6078
5458.06
-22.0047
5438.73
-24.454
5416.94
-34.549
5397.18
-55.0095
5382.29
-82.0091
5367.37
-100.443
5352.28
-112.161
5341.58
-128.326
5306.78
-151.552
5282.92
-154.585
5235.05
-167.923
5212.89
-191.291
5185.09
-243.865
5201.96
-292.171
5220.61
-330.125
5260.78
-334.977
5297.53
-322.871
5338.61
-301.297
5380.43
-281.707
5423.25
-266.346
5470.97
-254.928
5518.03
-249.452
5572.23
-247.746
5625.74
-252.859
5688.62
-262.704
5753.37
-281.744
5834.32
-304.747
5918.05
-327.504
6017.82
-339.157
6111.81
-341.926
6215.54
-334.635
6309.53
-325.805
6410.11
-314.216
6499.77
-304.853
6594.31
-294.305
6678.87
-285.895
6766.47
-276.57
6844.54
-269.169
6923.99
-261.18
6995.14
-254.955
7066.44
-248.527
7130.41
-243.606
7193.64
-238.464
7250.55
-234.263
7305.89
-229.703
7355.46
-225.673
7402.75
-221.297
7444.8
-217.257
7484.12
-213.012
7518.71
-208.998
7550.36
-204.871
7577.83
-200.868
7602.28
-196.888
7623.1
-193.129
7641.12
-189.788
7656.4
-187.017
7669.56
-184.987
7681.08
-183.94
7693.11
-184.005
7692.48
-176.558
-196.093
2254.16
-464.304
2394.84
-442.562
2520.35
-439.73
2635.48
-418.091
2747.02
-348.214
2832.81
-292.124
2927.97
-300.141
3027.27
-313.597
3113.21
-299.821
3199.07
-285.303
3266.47
-316.7
3338.73
-336.514
3390.36
-388.586
3493.39
-473.09
3576.42
-525.511
3689.11
-553.578
3787.05
-564.276
3926.91
-538.393
4037.25
-438.951
4142.42
-355.701
4217.19
-388.493
4372.03
-570.205
4541.06
-609.045
4685.62
-424.357
4782.66
-238.604
4847.66
-186.529
4918.81
-200.228
4993.54
-198.064
5060.25
-185.688
5124.52
-172.801
5177.58
-163.105
5223.82
-160.206
5261.69
-149.266
5287.54
-120.066
5295.72
-75.0035
5280.85
-24.8735
5244.64
18.5157
5188.18
49.9435
5114.83
71.5828
5023.33
87.2503
4918.8
95.8696
4805.07
92.3974
4690.6
70.998
4581.32
37.2958
4467.86
20.9667
4346.63
23.5441
4221.5
25.3037
4051.81
9.46675
3891.67
23.4682
3695.55
6.94269
3542.7
-27.3757
3390.25
-119.842
3316.24
-210.223
3255.82
-291.325
3236.84
-320.73
3220.23
-323.515
3216.14
-309.966
3218.38
-297.461
3226.57
-289.514
3246.07
-285.3
3268.92
-288.059
3306.87
-295.03
3349.51
-310.627
3411.19
-331.861
3481.35
-365.596
3578.74
-406.087
3683.4
-446.755
3811.29
-470.195
3932.01
-478.416
4065.48
-471.469
4186.31
-460.988
4315.82
-446.476
4431.77
-434.053
4554.5
-419.979
4665.45
-407.94
4781.11
-394.765
4886.03
-383.356
4993.85
-371.385
5092.83
-361.119
5193.37
-350.933
5286.53
-342.262
5380.26
-333.671
5467.98
-325.923
5555.3
-318.013
5637.37
-310.477
5718.25
-302.789
5794.59
-295.364
5869.26
-287.983
5940.03
-280.85
6008.88
-273.851
6074.43
-267.026
6137.96
-260.464
6198.82
-254.29
6257.91
-248.916
6315.37
-244.608
6371.85
-241.509
6427.73
-239.805
6484.05
-240.312
6538.51
-230.927
-250.813
2369.88
-579.223
2508.25
-561.624
2631.94
-561.36
2744.94
-534.186
2852.69
-443.853
2931.95
-370.313
3013.69
-374.059
3092.77
-380.016
3151.74
-349.143
3199.21
-314.371
3214.31
-336.387
3219.5
-332.249
3192.02
-378.229
3206.68
-463.952
3189.44
-518.747
3198.21
-544.604
3203.83
-582.575
3291.29
-602.786
3390.28
-541.109
3493.51
-444.467
3538.21
-447.611
3665.75
-667.202
3845.21
-779.64
4025.19
-587.72
4152.75
-348.945
4235.48
-271.519
4323.47
-290.692
4417.54
-290.529
4504.68
-275.267
4588.73
-252.704
4657.6
-229.737
4716.46
-215.186
4764.33
-193.19
4797.6
-148.776
4810.47
-82.7998
4796.65
-7.05977
4757.12
63.1128
4691.87
119.972
4603.66
165.494
4489.18
205.221
4352.12
237.139
4195.72
252.325
4034.64
235.248
3884.14
190.409
3730.39
175.645
3564.03
197.98
3395.69
217.014
3170.65
211.485
2972.56
239.986
2734.29
220.133
2573.64
151.007
2426.91
-1.94448
2392.86
-160.995
2372.09
-291.443
2395.41
-345.604
2408.84
-353.104
2425.58
-336.863
2438.26
-320.699
2447.57
-310.535
2462.32
-306.753
2474.58
-313.078
2501.62
-327.471
2532.44
-354.351
2587.12
-390.626
2653.55
-444.23
2754.6
-507.911
2864.14
-568.241
2999.67
-603.037
3123.68
-614.104
3260.2
-604.639
3379.92
-589.938
3508.75
-570.879
3621.44
-554.495
3742.21
-536.703
3850.2
-521.606
3964.75
-505.461
4068.68
-491.728
4177.76
-477.496
4279.11
-465.642
4384.54
-453.986
4484.27
-444.411
4587.14
-434.876
4685.9
-426.424
4786.62
-417.561
4883.95
-409.107
4982.11
-400.214
5077.36
-391.574
5172.55
-382.747
5265.11
-374.135
5356.87
-365.437
5446.15
-356.832
5534
-348.304
5619.51
-340.175
5703.36
-332.864
5785.43
-326.921
5866.33
-322.528
5946.17
-319.701
6025.7
-319.87
6104.68
-309.864
-326.494
2410.97
-692.372
2534.44
-674.244
2643.58
-668.343
2743.47
-639.311
2838.33
-533.063
2899.35
-441.306
2952.29
-427.356
2993
-418.893
3003.62
-365.737
2985.66
-293.667
2912.26
-283.42
2809.87
-245.216
2659.97
-281.259
2550.59
-350.497
2393.31
-397.129
2264.24
-409.41
2146.16
-495.01
2159.11
-600.212
2223.68
-618.048
2322.01
-523.615
2362.39
-499.135
2503.12
-781.777
2708.48
-977.604
2920.96
-785.088
3077.72
-487.25
3183.29
-368.041
3298.49
-387.097
3424.82
-387.994
3546.64
-368.918
3669.84
-337.587
3780.5
-302.324
3883.48
-277.872
3977.28
-245.504
4057.15
-186.637
4115.39
-99.6624
4143.59
2.28673
4141.44
101.47
4108.59
186.056
4048.18
257.004
3957.04
321.24
3838.83
377.664
3695.95
414.127
3539.3
408.524
3387.72
356.414
3231.86
343.176
3063.77
385.521
2914.43
402.398
2735.76
379.464
2598.75
401.264
2415.26
377.415
2305.42
273.938
2204.7
65.6694
2210.81
-158.188
2224.51
-329.982
2275.09
-402.116
2308.77
-407.26
2338.16
-382.332
2356.17
-356.037
2363.67
-337.307
2370.23
-327.987
2368.75
-332.167
2378.38
-349.96
2389.01
-384.654
2422.75
-434.678
2468.79
-507.737
2552.67
-597.465
2647.08
-681.377
2769.39
-730.494
2879.49
-744.239
3002.25
-732.843
3107.16
-713.305
3221.53
-690.083
3319.07
-669.153
3425.32
-647.976
3518.61
-629.319
3619.33
-610.594
3709.74
-594.166
3806.41
-578.183
3896.12
-564.676
3991.25
-552.274
4081.82
-542.073
4176.99
-532.492
4269.33
-523.839
4365.02
-514.932
4458.54
-506.096
4554.07
-496.815
4647.76
-487.488
4742.37
-477.936
4835.23
-468.348
4928.07
-458.569
5019.09
-448.618
5109.24
-438.587
5197.48
-428.795
5284.42
-419.873
5369.89
-412.544
5454.55
-407.248
5538.72
-403.849
5623.01
-404.148
5707.19
-393.931
-409.981
2336.48
-766.889
2440.63
-758.622
2531.76
-757.899
2615.94
-725.756
2695.74
-597.849
2732.36
-475.228
2747.08
-431.643
2741.65
-396.971
2699.35
-308.961
2612.92
-178.542
2447.22
-122.399
2241.48
-21.7232
1981.49
-46.5643
1790.2
-115.005
1554.92
-177.8
1385.19
-205.87
1238.86
-366.336
1243.68
-567.588
1285.61
-665.269
1386.83
-601.492
1460.32
-596.839
1663.21
-940.359
1904.13
-1207.06
2123.27
-982.423
2272.03
-611.715
2364.84
-465.248
2473.69
-502.39
2599.41
-516.358
2727.93
-505.475
2870.01
-478.278
3006.55
-440.155
3141.06
-411.669
3270.69
-374.88
3389.79
-304.746
3490.23
-198.695
3562.14
-69.6777
3603.09
61.6062
3610.58
179.24
3587.03
282.293
3529.34
378.432
3441.13
466.391
3323.13
532.118
3180.35
551.298
3039.82
496.572
2906.68
474.542
2766.5
530.949
2637.8
550.995
2479.45
511.895
2366.72
531.87
2205.58
513.058
2112.86
384.344
2029.16
123.302
2050.93
-164.19
2082.8
-380.545
2150.54
-470.432
2199.79
-471.456
2240.96
-432.96
2266.29
-391.197
2276.21
-358.529
2280.55
-338.591
2272.73
-337.079
2272.93
-355.371
2271.52
-396.486
2291.36
-458.703
2322.82
-551.793
2394.02
-669.117
2477.69
-777.112
2590.67
-839.781
2691.18
-856.049
2804.55
-841.483
2899.6
-816.98
3004.37
-788.881
3091.88
-763.705
3188.38
-738.907
3271.64
-717.482
3362.72
-696.418
3443.38
-678.53
3530.81
-661.461
3611.47
-647.845
3698.24
-635.745
3780.97
-626.676
3869.14
-618.33
3955.22
-611.237
4045.52
-603.579
4134.37
-595.968
4226.08
-587.482
4316.67
-578.845
4408.95
-569.615
4500.2
-560.218
4592.18
-550.271
4683.02
-539.927
4773.63
-529.139
4862.93
-518.439
4951.54
-508.545
5039.31
-500.53
5127.03
-495.073
5215.29
-492.143
5304.58
-493.454
5395.27
-484.565
-502.082
2168.54
-826.994
2244.92
-825.921
2308.52
-821.317
2369.36
-794.216
2431.62
-653.851
2445.18
-500.435
2430.93
-416.334
2400.56
-362.372
2337.29
-252.939
2226.43
-64.3584
2026.54
42.4457
1791.99
187.671
1504.95
152.144
1345.43
51.4923
1169.33
-58.7184
1095.77
-120.753
1012.69
-323.685
1042.62
-577.86
1062.99
-707.209
1144.04
-653.267
1212.84
-677.875
1432.68
-1125.95
1676.23
-1440.02
1876.32
-1161.58
1989.9
-694.919
2038.93
-498.187
2110.21
-544.271
2205.12
-567.206
2306.63
-565.401
2427.62
-544.912
2547.44
-506.955
2671.61
-481.812
2796.53
-446.39
2915.79
-371.606
3022.6
-254.922
3108.71
-110.848
3170.67
42.4166
3202.88
185.752
3206.06
315.033
3176.2
436.949
3116.31
551.757
3025.65
644.126
2905.59
689.807
2778.82
639.294
2655.87
610.383
2531.27
675.529
2418.79
698.398
2271.45
650.045
2168.26
660.925
2020.58
636.011
1939.96
478.123
1870.54
161.905
1907.27
-192.677
1957.43
-454.571
2042.5
-561.452
2107.22
-556.343
2160.19
-502.706
2193.25
-442.473
2206.45
-392.282
2209.93
-358.108
2197.61
-347.101
2190.6
-362.735
2179.64
-406.914
2188.06
-478.577
2207.62
-590.227
2269.25
-737.099
2345.25
-873.666
2451.47
-952.243
2544.66
-971.205
2650.59
-954.145
2737.75
-924.849
2834.78
-892.341
2914.23
-862.645
3002.81
-834.259
3077.97
-809.341
3161.12
-785.672
3233.81
-765.287
3313.5
-746.696
3386.6
-731.946
3466.24
-719.819
3542.33
-711.161
3624.5
-703.965
3705.22
-698.008
3790.86
-691.65
3875.73
-685.002
3964.1
-677.445
4052.01
-669.445
4142.28
-660.827
4232.23
-651.825
4323.61
-642.177
4414.57
-631.844
4506.01
-620.86
4596.83
-609.755
4687.66
-599.547
4778.48
-591.577
4870.19
-586.89
4963.58
-585.544
5059.14
-589.008
5157.88
-583.189
-603.308
1895.69
-824.257
1927.4
-835.697
1952.7
-842.885
1989.91
-834.233
2047.3
-692.147
2062.13
-511.951
2055.61
-396.139
2044.74
-329.287
2007.44
-194.708
1928.17
55.369
1766.45
197.152
1576.68
403.992
1331.15
371.243
1241.3
200.998
1142.59
27.7619
1131.76
-69.1319
1076.66
-281.453
1102.18
-563.239
1096.15
-705.626
1142.92
-671.076
1178.69
-738.576
1371.9
-1267.2
1604.37
-1658.99
1794.38
-1323.69
1878.32
-743.844
1880.09
-506.834
1910.5
-585.796
1972.94
-634.402
2045.63
-649.826
2142.75
-641.378
2240.2
-606.617
2346.44
-586.891
2457.59
-557.142
2565.69
-478.95
2663.89
-352.54
2745.84
-194.775
2811.71
-24.6655
2855.86
139.406
2876.25
293.45
2866.76
442.753
2829.62
586.504
2762.65
708.295
2666.41
783.526
2555.9
747
2439.37
723.035
2324.36
793.538
2225.18
814.226
2089.11
759.062
1997.34
768.917
1864.4
743.595
1796.73
562.756
1740.88
194.92
1790.96
-226.641
1857.28
-537.451
1957.72
-661.435
2036.48
-648.819
2100.74
-575.632
2141.8
-492.478
2159.1
-420.349
2163.08
-367.683
2148.02
-344.429
2136.03
-355.463
2118.02
-401.974
2117.5
-482.243
2127.78
-613.153
2182.7
-791.908
2253.74
-956.321
2354.99
-1048.6
2442.1
-1068.52
2541.59
-1047.27
2622.02
-1012.6
2712.48
-975.076
2785.22
-941.04
2867.28
-909.02
2935.8
-881.387
3012.45
-855.49
3078.54
-833.802
3151.74
-814.392
3218.38
-800.007
3291.87
-788.928
3362.13
-782.426
3439.02
-777.697
3514.98
-774.64
3596.45
-770.893
3677.74
-766.824
3763.15
-761.425
3848.76
-755.516
3937.48
-748.704
4026.69
-741.452
4118.19
-733.258
4210.15
-724.15
4303.43
-713.991
4396.93
-703.512
4491.28
-693.9
4586.48
-686.937
4683.51
-683.967
4783.23
-685.265
4886.06
-691.826
4993.5
-690.547
-713.366
1512.38
-780.838
1499.58
-813.717
1500.69
-846.257
1535.84
-881.382
1610.39
-760.071
1649.88
-567.533
1677.08
-422.061
1706.46
-353.027
1706.68
-205.147
1665.59
93.9033
1552.06
263.984
1410.01
508.953
1204.31
479.46
1156.2
250.633
1104.02
23.0191
1122.04
-79.2793
1086.57
-283.168
1117.33
-579.907
1103.6
-720.305
1128.54
-664.045
1126.62
-739.972
1270.95
-1373.86
1484.98
-1858.13
1684.01
-1493.9
1763.93
-777.97
1730.27
-444.649
1720.84
-525.336
1754.75
-598.998
1806.8
-640.706
1889.39
-647.26
1973.18
-615.722
2069.21
-607.36
2171.49
-587.681
2270.91
-511.079
2361.27
-379.871
2437.62
-216.478
2502.81
-38.6075
2552.04
135.905
2582.73
304.844
2587.56
471.554
2568.08
635.93
2520.64
780.837
2445.73
879.988
2352.03
859.13
2244.01
846.044
2139.08
919.693
2052.54
935.93
1927.6
876.192
1846.19
877.452
1727.07
840.592
1670.34
632.363
1624.56
211.984
1684.59
-279.397
1764.31
-640.37
1878.05
-781.095
1969.79
-760.21
2045.21
-668.275
2094.88
-560.852
2117.49
-464.287
2123.62
-390.664
2107.98
-352.349
2093.46
-356.39
2071.03
-402.029
2064.33
-487.545
2068.31
-636.743
2119.46
-849.62
2187.36
-1045.74
2284.3
-1152.38
2365.88
-1173.12
2459.72
-1148.83
2534.85
-1109.97
2620.53
-1068.6
2688.82
-1030.62
2766.68
-995.275
2831.1
-964.339
2903.62
-935.772
2965.48
-911.43
3034.28
-890.261
3096.48
-874.67
3165.55
-863.741
3231.71
-858.16
3304.82
-855.322
3377.53
-854.3
3456.21
-852.831
3535.36
-850.78
3619.22
-847.471
3704.08
-843.513
3792.82
-838.798
3882.96
-833.565
3976.24
-827.355
4070.82
-819.901
4167.41
-811.07
4264.82
-801.568
4363.56
-792.944
4463.61
-787.323
4565.9
-786.461
4671.3
-790.736
4780.22
-800.796
4894.22
-804.44
-829.71
1105.49
-738.351
1109.53
-788.152
1124.73
-856.091
1175.44
-932.429
1265.05
-822.631
1316.4
-611.834
1364.38
-451.399
1418.99
-377.642
1450.66
-208.123
1449.49
141.475
1362.15
353.438
1231.12
681.017
1049.04
647.453
1034.92
330.796
1021.26
35.4977
1066.79
-80.6872
1053.58
-275.123
1098.41
-584.72
1083.16
-708.555
1115.43
-669.16
1073.15
-728.112
1143.61
-1394.15
1351.89
-2056.49
1553.98
-1670.23
1627.99
-818.159
1558.83
-392.563
1509.69
-504.562
1525.16
-631.986
1573.56
-714.055
1652.19
-736.114
1726.61
-703.174
1816.31
-703.323
1914.04
-690.514
2007.02
-607.529
2092.22
-468.147
2165.54
-295.98
2229.95
-108.233
2281.42
78.0031
2318.67
262.399
2333.93
448.418
2328.36
635.319
2297.18
805.592
2240.97
930.416
2162.37
931.775
2062.39
939.506
1967.12
1015.46
1892.34
1025.06
1778.39
961.308
1707.84
961.922
1601.37
921.615
1553.39
696.098
1514.06
231.333
1580.77
-329.644
1670.6
-745.06
1795.21
-904.256
1898.7
-876.38
1985.43
-762.972
2044.55
-628.185
2073.61
-503.685
2083.38
-405.429
2068.88
-349.972
2053.97
-345.649
2029.48
-390.179
2018.79
-481.179
2018.27
-648.892
2066.7
-897.127
2131.62
-1121.48
2224.1
-1238.58
2300.92
-1258.59
2391.08
-1230.86
2463.89
-1188.31
2548.22
-1143.37
2615.78
-1101.95
2693.07
-1063.46
2756.88
-1029.86
2828.44
-998.848
2888.96
-972.699
2955.88
-950.24
3015.9
-934.69
3082.6
-924.908
3146.52
-921.928
3217.6
-922.372
3288.74
-925.222
3366.27
-927.504
3444.86
-929.252
3528.72
-929.473
3614.28
-929.086
3704.37
-927.768
3796.54
-925.864
3892.39
-922.592
3989.94
-917.611
4089.72
-910.565
4190.39
-902.354
4292.31
-894.775
4395.43
-890.506
4500.69
-891.699
4609.02
-899.002
4720.97
-912.69
4837.91
-921.254
-949.219
901.311
-740.541
909.351
-786.547
922.844
-875.087
971.029
-997.241
1061.12
-907.151
1112.8
-685.156
1162.94
-501.533
1224.47
-433.46
1267.87
-264.72
1280.21
121.002
1200.85
381.153
1072.43
759.785
918.309
703.562
938.929
308.137
955.87
-38.3674
1021.32
-140.839
1026.68
-315.426
1081.67
-629.12
1059.87
-725.161
1081.73
-658.386
948.558
-578.205
945.928
-1336.74
1167.41
-2257.18
1376.23
-1838.27
1494.76
-884.087
1464.72
-323.611
1403.44
-366.512
1396.84
-522.908
1426.82
-662.732
1496.54
-704.707
1561.09
-671.476
1641.6
-687.602
1728.62
-684.332
1804.58
-600.244
1874.32
-462.808
1936.9
-295.661
1995.4
-108.821
2044.61
79.6034
2083.96
269.568
2105.58
463.694
2110.46
663.501
2092.47
851.307
2051.55
995.102
1985.78
1017.49
1893.78
1047.55
1806.9
1124.42
1742.35
1125.23
1639.41
1057.67
1579.61
1050.33
1485.6
996.546
1444.31
749.489
1407.25
240.76
1476.56
-392.671
1572.76
-864.22
1705.26
-1042.58
1819.14
-1009.39
1917.23
-878.599
1986.56
-716.464
2023.08
-562.045
2037.55
-437.303
2025.37
-362.297
2011.5
-348.025
1986.51
-388.524
1973.22
-479.886
1968.62
-664.14
2014.35
-949.158
2076.03
-1205.18
2165.01
-1334.82
2240.03
-1357.29
2330.77
-1330.19
2406.08
-1286.95
2493.68
-1240.14
2564.74
-1195.57
2645
-1153.59
2711.23
-1115.95
2784.19
-1081.09
2845.37
-1050.9
2911.96
-1025.31
2971.21
-1007.52
3036.7
-997.353
3099.59
-995.293
3169.72
-998.02
3240.39
-1003.54
3317.72
-1008.86
3396.63
-1013.48
3481.11
-1016.71
3567.76
-1019.23
3659.19
-1020.95
3753
-1021.9
3850.56
-1021.25
3949.87
-1018.29
4051.21
-1012.61
4153.18
-1005.13
4256.05
-998.101
4359.8
-994.715
4465.45
-997.679
4574.13
-1007.84
4686.59
-1025.27
4804.03
-1038.61
-1069.81
782.64
-733.293
796.134
-764.994
806.161
-874.32
847.435
-1036.99
932.134
-960.159
978.958
-721.874
1027.72
-528.761
1091.15
-461.411
1136.16
-276.385
1151.24
155.874
1074.48
464.845
947.814
936.81
819.455
830.052
870.498
324.154
909.437
-73.6528
991.293
-176.154
1013.12
-338.985
1082.36
-658.957
1074.52
-720.719
984.721
-528.983
731.076
-370.73
801.096
-1355.29
1054.86
-2500.34
1177.53
-1919.23
1290.2
-950.094
1360.01
-420.437
1372.01
-413.067
1359.26
-534.335
1347.7
-685.813
1392.39
-763.574
1451.94
-749.292
1532.08
-779.624
1608.74
-771.38
1662.61
-661.616
1709.6
-516.129
1753.35
-349.462
1798.66
-162.767
1839.14
29.0046
1874.15
226.039
1896.05
430.209
1906.76
643.405
1899.31
849.217
1872.07
1013.81
1819.64
1061.29
1736.87
1121.67
1657.11
1202.71
1600.77
1194.24
1508.23
1118.62
1460.25
1109.65
1378.58
1052.14
1342.24
800.044
1303.36
261.82
1370.77
-443.183
1468.53
-975.649
1605.08
-1176.77
1727.34
-1143.54
1836.95
-995.663
1917.43
-804.717
1962.47
-617.267
1982.72
-462.187
1973.86
-365.585
1962.43
-340.406
1938.27
-376.731
1922.26
-468.442
1912.09
-667.019
1954.17
-989.186
2013.63
-1274.49
2102.7
-1416.07
2181.5
-1442.88
2278.84
-1417.6
2362.09
-1373.6
2457.18
-1323.85
2534.92
-1274.87
2620.27
-1228.09
2690.42
-1185.69
2765.71
-1146.29
2828.19
-1112.21
2894.9
-1083.66
2953.78
-1064.76
3018.45
-1055.34
3080.69
-1056.05
3150.23
-1062.64
3220.67
-1072.74
3297.89
-1082.56
3376.93
-1091.66
3461.58
-1099.04
3548.52
-1105.67
3640.25
-1111.23
3734.42
-1115.84
3832.3
-1118.3
3931.88
-1117.77
4033.3
-1113.59
4135.1
-1106.87
4237.47
-1100.24
4340.43
-1097.62
4445.16
-1102.29
4552.99
-1115.52
4664.89
-1137.05
4782.06
-1155.61
-1190.72
722.566
-771.017
741.503
-775.593
747.077
-889.018
778.565
-1089.33
854.337
-1034.18
892.815
-788.016
935.689
-575.372
996.494
-519.675
1039.86
-337.629
1053.1
126.96
979.591
478.411
856.583
998.765
749.629
842.775
828.291
236.731
885.58
-192.23
979.166
-268.978
1010.42
-404.789
1096.27
-738.42
1135.21
-799.225
958.012
-307.505
688.851
-60.3225
861.35
-1464.32
1117.28
-2723.62
1106.93
-1839.95
1144.35
-891.559
1237.34
-458.819
1297.47
-381.109
1354.1
-454.951
1356.63
-577.419
1382.44
-659.26
1439.94
-681.492
1523.43
-731.612
1578.9
-700.183
1593.84
-566.511
1602.17
-428.436
1614.12
-283.529
1636.67
-116.024
1661.31
63.6333
1686.16
254.662
1703.22
455.229
1715.69
668.779
1715.84
880.894
1700.24
1056.7
1659.21
1124.85
1585.45
1213.43
1514.03
1297.53
1466.39
1278.93
1384.87
1194.97
1350.39
1174.79
1282.41
1103.97
1248.65
844.619
1201.7
281.202
1261.15
-497.054
1355.39
-1092.83
1491.82
-1318.91
1620.37
-1290.84
1741.32
-1134.36
1833.8
-916.278
1888.48
-694.286
1915.58
-507.255
1911.09
-386.471
1903.14
-349.29
1880.11
-377.828
1860
-460.157
1841.93
-668.956
1881.2
-1034.51
1942.64
-1358.74
2038.58
-1520.1
2128.57
-1557.28
2238.54
-1537.23
2333.86
-1493.06
2438.74
-1439.19
2524.27
-1383.78
2614.96
-1329.99
2688.89
-1280.36
2766.14
-1234.17
2829.6
-1193.58
2896.1
-1159.91
2954.47
-1137.52
3018.21
-1127.13
3079.77
-1128.75
3148.59
-1137.86
3218.56
-1150.89
3295.18
-1163.89
3373.73
-1175.9
3457.73
-1186.28
3544.12
-1195.83
3635.24
-1204.47
3728.98
-1212.02
3826.48
-1217.17
3925.76
-1218.6
4026.75
-1215.5
4127.89
-1208.96
4229.24
-1202.2
4330.88
-1199.86
4434.14
-1206.01
4540.64
-1222.28
4651.61
-1248.23
4768.41
-1272.35
-1311.73
693.638
-781.319
712.837
-754.81
711.89
-874.492
733.486
-1103.48
800.331
-1063.97
831.645
-802.304
868.786
-586.327
925.755
-534.009
967.633
-336.556
980.486
172.384
906.553
570.213
782.145
1187.64
699.301
938.575
806.103
198.554
875.609
-252.086
973.65
-316.118
1011.77
-440.203
1119.68
-807.31
1212.35
-897.749
1036.15
-102.322
726.728
202.227
848.156
-1553.28
1045.97
-2918.54
1222.19
-1997.67
1290.66
-920.436
1220.1
-438.243
1291.49
-502.896
1406.82
-613.54
1425.12
-652.471
1438.78
-706.76
1482.62
-764.159
1546.13
-826.618
1568.51
-751.118
1552.74
-571.731
1525.8
-417.663
1502.72
-279.002
1497.59
-126.21
1502.72
42.3336
1514.78
229.028
1524.26
429.121
1535.13
644.284
1539.53
863.031
1533.37
1050.99
1502.27
1144.36
1437.89
1267.03
1376.65
1355.46
1338.55
1328.6
1269.04
1229.38
1250.35
1201.96
1195.55
1131.45
1160.47
891.837
1099.27
325.743
1146.01
-526.487
1232.65
-1192.53
1365.06
-1448.19
1497.24
-1434.3
1629.26
-1273.47
1734.46
-1029.09
1799.8
-769.879
1835.02
-547.026
1836.12
-400.018
1832.83
-349.791
1810.57
-368.796
1782.23
-436.644
1753.11
-653.628
1793.17
-1070.99
1865.12
-1439.24
1977.41
-1622.86
2086.2
-1670.61
2213.26
-1652.58
2322.68
-1603.5
2437.69
-1541.13
2530.59
-1475.88
2625.87
-1412.78
2702.83
-1354.77
2781.44
-1301.17
2845.45
-1254.46
2911.51
-1216.26
2969.2
-1191.89
3031.88
-1182.03
3092.52
-1186.55
3160.23
-1199.77
3229.17
-1217.55
3304.52
-1235.08
3381.82
-1251.57
3464.48
-1266.15
3549.7
-1279.99
3639.77
-1292.77
3732.71
-1304.35
3829.57
-1312.96
3928.29
-1316.96
4028.57
-1315.13
4128.65
-1308.79
4228.49
-1301.66
4328.27
-1299.45
4429.58
-1307.08
4534.43
-1326.89
4644.39
-1358.01
4760.88
-1388.61
-1432.71
673.125
-831.987
691.264
-767.583
682.172
-878.365
695.129
-1140.75
755.135
-1126.47
780.275
-859.628
812.329
-626.341
866.81
-590.631
909.559
-400.936
923.807
135.28
846.556
579.52
722.446
1242.96
677.421
901.434
809.348
51.2916
877.143
-385.399
963.401
-405.371
1006.33
-517.979
1123.58
-925.026
1179.27
-990.42
1021.45
105.916
731.267
542.973
788.891
-1559.58
907.924
-2999.69
1143.23
-2166.85
1307.54
-980.44
1215.64
-280.601
1241.01
-411.897
1356.92
-569.557
1407.77
-566.123
1451.4
-593.563
1500.17
-659.866
1548.85
-715.864
1553.36
-611.846
1523.5
-416.292
1472.88
-257.201
1419.63
-136.637
1385.01
-13.4722
1366.29
126.662
1361.63
292.187
1360.25
475.895
1366.62
678.861
1372.47
891.487
1372.95
1079.87
1349.21
1191.91
1293.72
1341.32
1243.37
1429.91
1215.57
1394.53
1159.33
1281.79
1158.74
1235.38
1116.94
1158.81
1075.83
942.179
994.122
379.373
1025.87
-552.702
1103.6
-1293.12
1229.05
-1579.23
1362.3
-1586.08
1504.5
-1433.49
1622.94
-1166.72
1700.05
-869.942
1744.83
-610.429
1752.73
-434.125
1753.85
-367.982
1729.15
-369.039
1685.41
-405.297
1644.13
-633.262
1695.05
-1128.37
1790.78
-1559.15
1929.74
-1771.31
2062.84
-1828.81
2208.5
-1809.06
2331.35
-1750.99
2454.97
-1676.35
2553.6
-1598.35
2652.03
-1523.55
2730.95
-1454.99
2810.11
-1392.11
2874.11
-1336.99
2939.23
-1292.21
2995.77
-1263.4
3056.81
-1252.02
3115.83
-1257.2
3181.6
-1272.69
3248.65
-1293.14
3321.89
-1313.62
3397.27
-1332.92
3478.01
-1350.58
3561.61
-1367.57
3650.24
-1383.82
3742.07
-1398.8
3837.96
-1410.47
3935.79
-1416.5
4034.92
-1415.38
4133.49
-1408.46
4231.41
-1400.35
4329.07
-1397.84
4428.38
-1406.99
4531.81
-1430.68
4641.08
-1467.58
4757.51
-1505.02
-1553.63
653.953
-848.22
667.473
-739.626
650.283
-841.465
657.712
-1137.6
714.085
-1143.88
736.031
-860.196
764.806
-627.215
817.896
-598.394
861.467
-394.191
879.392
179.805
794.731
688.437
677.592
1438.45
680.296
919.763
814.347
-17.5175
860.618
-418.864
931.709
-423.709
986.354
-571.141
1093.31
-992.245
1028.7
-932.383
1093.11
72.5636
929.721
671.19
788.023
-1392.73
866.649
-3081.42
1117.08
-2404.91
1303.02
-1142.85
1178.25
-224.91
1157.93
-465.641
1276.2
-747.383
1348.4
-715.836
1417.53
-712.757
1465.22
-764.834
1496.34
-798.533
1499.34
-660.342
1474.77
-425.966
1422.94
-231.971
1355.82
-97.0328
1298.43
21.4693
1256.64
146.024
1233.19
296.896
1217.6
469.818
1215.44
663.186
1218.81
870.696
1222.44
1060.99
1205.5
1194.36
1160.16
1373.92
1119.91
1465.36
1101.48
1423.93
1058.33
1285.94
1075.58
1223.44
1042.59
1161.03
990.474
1003.66
886.912
466.355
906.775
-554.867
976.77
-1376.07
1092.59
-1691.32
1223.34
-1727.55
1374.69
-1591.61
1506.89
-1306.51
1596.86
-970.377
1652.49
-670.736
1667.18
-461.763
1670.83
-375.822
1638.37
-352.34
1569.02
-340.922
1519.36
-597.943
1597.63
-1201.12
1731.84
-1699.96
1904.59
-1932.73
2063.08
-1989.29
2225.22
-1957.8
2358.62
-1882.98
2488.1
-1791.21
2590.3
-1697.46
2690.26
-1609.54
2769.98
-1530.08
2848.83
-1457.97
2912.07
-1395.22
2975.52
-1344.7
3030.05
-1313.02
3088.49
-1301.63
3144.85
-1309.42
3207.69
-1328.88
3271.92
-1354.08
3342.32
-1379.22
3415.13
-1403.31
3493.44
-1425.62
3574.94
-1447.46
3661.72
-1468.49
3752.11
-1488.19
3846.84
-1503.86
3943.63
-1512.65
4041.6
-1512.5
4138.76
-1505.14
4235.03
-1496.08
4331.06
-1493.51
4429.04
-1504.62
4531.7
-1532.99
4640.73
-1576.36
4757.12
-1621.11
-1674.15
631.719
-902.51
639.911
-745.789
616.015
-834.324
621.016
-1171.12
677.304
-1207.87
698.182
-918.062
724.586
-667.152
776.43
-659.347
820.564
-466.866
841.308
126.3
743.709
708.218
642.523
1457.61
687.569
802.184
794.396
-149.292
818.774
-516.714
891.665
-503.597
966.227
-684.172
1070.79
-1105.5
996.086
-899.466
1084.44
69.4502
863.83
963.894
731.208
-1200.73
866.954
-3171.74
1098.29
-2551.13
1248.33
-1177.41
1128.2
-34.9032
1099.65
-283.149
1222.3
-663.383
1299.72
-627.547
1376.01
-598.444
1418.95
-626.588
1450.98
-653.618
1462.34
-516.462
1440.52
-269.861
1389.04
-63.153
1314.75
73.2398
1240.79
179.715
1177.48
280.211
1133.21
404.331
1099.53
552.499
1084.74
722.417
1082.01
910.578
1084.99
1089.76
1071.59
1233.22
1034.63
1431.16
1003.55
1521.58
993.483
1473.43
961.677
1314.5
996.04
1223.73
969.707
1172.13
905.406
1076.42
783.411
560.033
797.677
-562.479
861.807
-1462.64
964.523
-1799.42
1089.28
-1870.63
1249.54
-1769.56
1397.03
-1473.22
1500.85
-1097.68
1566.6
-755.919
1584.22