/*--------------------------------*- C++ -*----------------------------------*\
| =========                 |                                                 |
| \\      /  F ield         | OpenFOAM: The Open Source CFD Toolbox           |
|  \\    /   O peration     | Version:  4.1                                   |
|   \\  /    A nd           | Web:      www.OpenFOAM.org                      |
|    \\/     M anipulation  |                                                 |
\*---------------------------------------------------------------------------*/
FoamFile
{
    version     2.0;
    format      ascii;
    class       volVectorField;
    location    "15";
    object      U;
}
// * * * * * * * * * * * * * * * * * * * * * * * * * * * * * * * * * * * * * //

dimensions      [0 1 -1 0 0 0 0];

internalField   nonuniform List<vector> 
26785
(
(7.68362e-16 -0.0128004 14.4862)
(4.98609e-16 -0.00609364 14.8113)
(1.396e-15 -0.00713152 15.021)
(-5.6803e-16 -0.00468984 15.1492)
(-1.1497e-15 0.000993764 15.2147)
(-2.77811e-15 0.00579236 15.164)
(-3.38036e-15 0.00608761 15.0403)
(-4.29026e-15 0.00615267 14.9682)
(-2.46525e-15 0.00681159 14.9144)
(-8.04835e-15 0.00787844 14.8495)
(8.83814e-16 0.00438878 14.7647)
(-2.30813e-15 0.00246995 14.6968)
(-1.77876e-15 -0.00357658 14.6666)
(-1.65039e-15 -0.0124538 14.7988)
(-1.56676e-15 -0.0184861 15.0722)
(-1.60671e-15 -0.0213193 15.389)
(-1.63275e-15 -0.0209496 15.7051)
(-1.77557e-15 -0.0166319 16.012)
(-2.33739e-15 -0.00763207 16.2409)
(-8.37681e-15 -0.00140354 16.3248)
(-7.2786e-16 -0.00652014 16.3475)
(-1.52639e-15 -0.0206906 16.5271)
(-1.16422e-14 -0.0205485 16.8895)
(-3.82333e-15 -0.00156198 17.1158)
(-7.14507e-15 0.0148092 17.1057)
(-7.14149e-15 0.0189702 16.9326)
(-2.96612e-15 0.0187299 16.7381)
(-2.82195e-15 0.0195254 16.5765)
(-7.67151e-15 0.0207038 16.4211)
(-5.95023e-15 0.0213565 16.2718)
(-1.26338e-14 0.0211592 16.1355)
(-1.10315e-14 0.0199745 16.0122)
(-2.87641e-15 0.0193473 15.9101)
(-7.31279e-16 0.0202607 15.8115)
(-2.0121e-15 0.0224894 15.6974)
(-4.65808e-15 0.0248961 15.5584)
(-4.55228e-15 0.0263786 15.3988)
(-4.56006e-15 0.0264797 15.2317)
(-4.59089e-15 0.0255706 15.0677)
(-5.2608e-15 0.0241497 14.911)
(-3.63237e-15 0.0221097 14.765)
(-2.98624e-15 0.0191512 14.6377)
(2.25635e-16 0.0149447 14.5377)
(5.43665e-15 0.00997567 14.4762)
(-9.54855e-15 0.00588876 14.4508)
(-7.72758e-15 0.0020871 14.449)
(-7.26304e-15 -0.00288407 14.4959)
(-6.85634e-15 -0.00763568 14.5669)
(-6.60187e-15 -0.011381 14.6559)
(-6.50723e-15 -0.0145519 14.7675)
(-5.05699e-15 -0.0195925 14.904)
(-4.60164e-15 -0.02546 15.0721)
(-4.32345e-15 -0.0310706 15.2753)
(-4.10755e-15 -0.033027 15.5058)
(-3.96457e-15 -0.0314433 15.7244)
(-3.49634e-15 -0.0270808 15.9204)
(-1.39441e-14 -0.0219602 16.0759)
(-4.75044e-15 -0.0171723 16.198)
(-3.32072e-15 -0.0131096 16.2877)
(-4.39331e-15 -0.0100256 16.3546)
(-6.32736e-15 -0.00788052 16.4034)
(-5.99554e-15 -0.00689163 16.4425)
(-6.94615e-15 -0.00699669 16.4782)
(-1.25752e-14 -0.00840732 16.5188)
(-2.0253e-15 -0.0107985 16.571)
(-4.28414e-15 -0.0137436 16.6411)
(-4.29676e-15 -0.0158548 16.7257)
(-4.20166e-15 -0.0168148 16.8199)
(-4.43793e-15 -0.0161965 16.9127)
(-4.21199e-15 -0.0149112 16.9979)
(-4.52015e-15 -0.0131418 17.0731)
(-4.81909e-15 -0.0116144 17.1376)
(-5.20951e-15 -0.0101412 17.1927)
(-5.28458e-15 -0.0090635 17.239)
(-7.08932e-15 -0.00811154 17.2795)
(-1.07772e-14 -0.00749287 17.3146)
(-1.47963e-15 -0.00703068 17.3464)
(-3.87973e-15 -0.00685333 17.3749)
(-4.07677e-15 -0.00684841 17.4026)
(-4.11222e-15 -0.00706714 17.4295)
(-4.14907e-15 -0.00743474 17.4572)
(-4.46113e-15 -0.00794524 17.4856)
(-4.37737e-15 -0.00855268 17.5158)
(-4.03892e-15 -0.00923177 17.5477)
(-5.65774e-15 -0.00996715 17.5818)
(-5.7511e-15 -0.0107301 17.6177)
(-4.88493e-15 -0.0115186 17.656)
(-5.22893e-15 -0.0123048 17.6961)
(-4.02025e-15 -0.0130868 17.7382)
(-3.99649e-15 -0.0138452 17.782)
(-4.63113e-15 -0.0145828 17.8274)
(-4.28709e-15 -0.0153047 17.8742)
(-4.24433e-15 -0.0160239 17.9224)
(-4.19829e-15 -0.0167573 17.9719)
(-4.02468e-15 -0.0175109 18.0226)
(-2.43581e-15 -0.0182758 18.0751)
(-3.90743e-15 -0.019112 18.1282)
(-3.88427e-15 -0.019297 18.1866)
(-3.75063e-15 -0.0235899 18.2333)
(-3.55654e-15 -0.020841 18.3367)
(1.32937e-15 -0.0336421 15.4138)
(6.13244e-16 -0.0193639 15.8973)
(-6.33256e-16 -0.0217023 16.1981)
(-3.89845e-15 -0.015668 16.3908)
(-1.14998e-15 0.00485504 16.4989)
(3.49971e-15 0.0234902 16.4555)
(-8.48625e-15 0.0240593 16.3431)
(3.29478e-15 0.021639 16.3101)
(-7.95388e-15 0.0238296 16.298)
(1.91377e-15 0.0269172 16.2753)
(2.19946e-15 0.015327 16.2398)
(2.57931e-15 0.00703119 16.2259)
(2.48386e-15 -0.0115983 16.2441)
(3.08858e-15 -0.039277 16.4246)
(2.69063e-15 -0.0564137 16.7454)
(1.61251e-15 -0.065399 17.1042)
(-8.62869e-16 -0.0646942 17.4569)
(1.05756e-15 -0.050806 17.794)
(2.64039e-15 -0.0195481 18.0249)
(1.34939e-14 0.000441547 18.0891)
(-5.47891e-15 -0.0158224 18.0987)
(7.42913e-15 -0.0619892 18.2828)
(-8.81498e-15 -0.0609393 18.6571)
(1.60747e-15 -0.00214619 18.8848)
(3.30561e-15 0.0479536 18.8578)
(5.60817e-15 0.0595668 18.6751)
(4.52207e-15 0.0562506 18.4883)
(1.26309e-15 0.0563465 18.3479)
(7.12796e-16 0.057847 18.2242)
(6.29302e-15 0.0576477 18.116)
(4.59555e-15 0.0551875 18.0288)
(8.13905e-16 0.0503032 17.9586)
(3.29615e-15 0.0478627 17.9079)
(3.81359e-15 0.0505744 17.8553)
(6.07679e-16 0.0571041 17.7805)
(1.85244e-16 0.0639906 17.6745)
(2.22429e-15 0.0680769 17.5422)
(2.17921e-15 0.0684294 17.3963)
(2.42057e-15 0.066084 17.246)
(2.52573e-15 0.0624282 17.0946)
(2.08035e-15 0.0571947 16.945)
(3.85649e-15 0.0495518 16.8056)
(4.28965e-15 0.0386294 16.6847)
(5.01965e-15 0.02573 16.5933)
(5.33124e-15 0.0152473 16.5292)
(6.36847e-15 0.00564974 16.4797)
(4.82916e-15 -0.00733152 16.4677)
(6.65074e-15 -0.0201989 16.4681)
(1.16149e-14 -0.0298726 16.4731)
(1.69962e-15 -0.0380308 16.4874)
(3.08956e-15 -0.0507302 16.5161)
(1.18496e-15 -0.0662626 16.5706)
(2.13028e-15 -0.081173 16.6601)
(1.88119e-15 -0.0867591 16.7832)
(2.72629e-15 -0.0827588 16.905)
(3.09471e-15 -0.0715627 17.0167)
(2.61702e-15 -0.0583577 17.1007)
(2.18388e-15 -0.0459756 17.1632)
(2.43704e-15 -0.0355047 17.2039)
(3.07195e-15 -0.0274346 17.2306)
(4.09073e-15 -0.0217675 17.2455)
(3.18832e-15 -0.0189169 17.2546)
(2.86421e-15 -0.0187701 17.2614)
(4.0307e-15 -0.0218723 17.2717)
(4.15221e-15 -0.0277034 17.2903)
(4.03394e-15 -0.0352452 17.3238)
(4.02027e-15 -0.0410886 17.371)
(5.52908e-15 -0.0438245 17.429)
(1.1638e-14 -0.0424637 17.4883)
(1.62937e-15 -0.0390977 17.5428)
(1.27802e-15 -0.0345481 17.5896)
(-3.16597e-15 -0.0303999 17.6274)
(4.55396e-15 -0.0264949 17.6568)
(4.15779e-15 -0.0233772 17.6775)
(8.69177e-15 -0.0206373 17.6918)
(-5.02037e-15 -0.0185576 17.6993)
(4.70219e-15 -0.0169074 17.7015)
(3.42971e-15 -0.0158373 17.6979)
(2.21497e-15 -0.0152277 17.6903)
(2.27878e-15 -0.0150958 17.6784)
(3.1878e-15 -0.0153624 17.6635)
(2.83219e-15 -0.0159265 17.6452)
(2.97663e-15 -0.0167398 17.6246)
(3.34362e-15 -0.0176833 17.6014)
(4.1008e-15 -0.0187639 17.5761)
(6.63212e-15 -0.0198773 17.5483)
(1.63109e-15 -0.0210513 17.5184)
(2.59961e-15 -0.0221985 17.4861)
(3.78838e-15 -0.0233363 17.4518)
(3.8742e-15 -0.0244002 17.4152)
(4.07543e-15 -0.025407 17.3764)
(4.12003e-15 -0.0263551 17.3354)
(4.26593e-15 -0.0272829 17.2924)
(4.01561e-15 -0.028243 17.2473)
(3.95987e-15 -0.02923 17.2004)
(3.62415e-15 -0.0303096 17.1523)
(3.40027e-15 -0.0315484 17.1025)
(4.44752e-15 -0.0316023 17.0541)
(3.85997e-15 -0.0381195 17.0034)
(3.59896e-15 -0.0356479 16.9373)
(2.54532e-16 -0.0529075 16.6775)
(2.32347e-15 -0.0371006 17.1377)
(3.77426e-15 -0.0358454 17.4399)
(-3.42885e-15 -0.0241184 17.6517)
(3.50946e-15 0.0100006 17.7916)
(-4.24699e-15 0.0387146 17.8095)
(2.63041e-16 0.0363575 17.7889)
(2.4466e-15 0.0298955 17.8434)
(5.95489e-15 0.0340491 17.8989)
(5.27451e-15 0.0378694 17.9305)
(5.52754e-15 0.0200355 17.9388)
(5.42566e-15 0.00687416 17.9497)
(4.5442e-15 -0.0205264 17.9665)
(4.66872e-15 -0.0645466 18.1073)
(6.43168e-15 -0.0903481 18.3599)
(5.30856e-15 -0.1045 18.6398)
(1.68143e-15 -0.102584 18.9183)
(4.74627e-15 -0.078806 19.1981)
(6.79797e-15 -0.0238176 19.399)
(-7.29371e-16 0.011529 19.4466)
(6.38129e-15 -0.014023 19.4249)
(9.9506e-15 -0.0934899 19.5543)
(4.81913e-15 -0.0959326 19.9012)
(8.05343e-15 -0.00146394 20.1478)
(5.63181e-15 0.0801198 20.1548)
(5.24646e-15 0.0973801 20.0035)
(7.51097e-15 0.0892347 19.8503)
(5.34432e-15 0.0877292 19.7406)
(3.7763e-15 0.0892704 19.6392)
(3.95738e-15 0.0886964 19.5402)
(4.39273e-15 0.0849423 19.4436)
(1.94978e-15 0.0779459 19.3434)
(-6.94528e-15 0.0753036 19.244)
(1.01019e-15 0.0812752 19.1275)
(9.26891e-15 0.0935316 18.9755)
(5.53415e-15 0.106619 18.7776)
(5.81708e-15 0.115337 18.5363)
(5.83981e-15 0.118202 18.2631)
(5.92089e-15 0.116672 17.9678)
(5.9544e-15 0.11285 17.6557)
(5.88719e-15 0.106295 17.3312)
(5.85059e-15 0.0956323 17.0042)
(6.00999e-15 0.0793163 16.6851)
(6.13217e-15 0.0594286 16.3899)
(6.11393e-15 0.0439597 16.1175)
(6.02632e-15 0.031588 15.8439)
(5.92512e-15 0.0157371 15.5839)
(5.81821e-15 -0.00267767 15.3065)
(5.87805e-15 -0.013313 15.0082)
(5.87553e-15 -0.0258692 14.7057)
(5.42404e-15 -0.0438146 14.4132)
(5.16e-15 -0.0715948 14.1547)
(3.90011e-15 -0.097188 13.9531)
(3.40183e-15 -0.112655 13.8212)
(5.16688e-15 -0.111385 13.7246)
(-1.17131e-14 -0.099917 13.6546)
(-3.30709e-15 -0.0841912 13.5878)
(1.45543e-15 -0.069531 13.5285)
(1.53932e-15 -0.0574327 13.4728)
(1.96522e-15 -0.0480927 13.4261)
(2.79461e-15 -0.0421162 13.3857)
(3.63842e-15 -0.0391407 13.3541)
(3.65251e-15 -0.0400473 13.3306)
(5.88159e-15 -0.0447053 13.3171)
(1.55184e-15 -0.0541472 13.3155)
(-4.97581e-16 -0.0661481 13.3341)
(3.26299e-15 -0.0770126 13.3746)
(3.76658e-15 -0.0822254 13.4366)
(3.73405e-15 -0.0817405 13.5098)
(3.78132e-15 -0.0766259 13.5861)
(3.98924e-15 -0.0701393 13.6606)
(5.6174e-15 -0.0629729 13.73)
(1.08127e-14 -0.0566481 13.7931)
(1.86385e-15 -0.0504249 13.8484)
(5.11442e-15 -0.0451271 13.897)
(4.77883e-15 -0.0399537 13.9375)
(4.90622e-15 -0.0356885 13.9705)
(5.02111e-15 -0.0316262 13.9945)
(5.09671e-15 -0.0284558 14.0109)
(5.2714e-15 -0.0255628 14.0189)
(5.36677e-15 -0.0234449 14.0196)
(5.60656e-15 -0.0214852 14.0123)
(5.25953e-15 -0.0200102 13.9983)
(5.15251e-15 -0.0185325 13.9771)
(5.08951e-15 -0.017324 13.9492)
(5.03159e-15 -0.0160534 13.9142)
(5.07397e-15 -0.0149383 13.8728)
(5.0031e-15 -0.013772 13.8248)
(4.85393e-15 -0.0126848 13.7707)
(8.52968e-15 -0.0115488 13.7106)
(4.02121e-15 -0.0104239 13.6451)
(3.22008e-15 -0.00930313 13.5743)
(5.76873e-16 -0.00824645 13.4988)
(3.29628e-15 -0.00739973 13.4189)
(2.771e-15 -0.00676447 13.3353)
(1.91228e-15 -0.00651934 13.2494)
(2.34033e-15 -0.00676617 13.1604)
(5.88578e-16 -0.00690218 13.0722)
(-8.97534e-17 -0.00669634 12.9912)
(-1.1526e-15 -0.0146472 12.8539)
(9.87061e-16 -0.0685646 17.887)
(2.36446e-15 -0.0499837 18.323)
(3.52842e-15 -0.0477865 18.6255)
(-5.89332e-15 -0.0323574 18.8496)
(6.00335e-15 0.0134772 19.0061)
(1.78878e-14 0.0505123 19.0483)
(8.06367e-15 0.0454617 19.0443)
(6.52753e-15 0.0366633 19.0865)
(5.95128e-15 0.0444713 19.1029)
(6.48292e-15 0.0513105 19.069)
(6.31489e-15 0.02871 18.9786)
(5.63382e-15 0.0133843 18.8509)
(2.95052e-15 -0.0219058 18.6926)
(2.54833e-16 -0.0794074 18.6275)
(1.05949e-14 -0.115174 18.6483)
(8.38693e-15 -0.135555 18.6894)
(6.74824e-15 -0.139115 18.7516)
(7.41756e-15 -0.114005 18.8974)
(7.52686e-15 -0.042118 19.086)
(7.16981e-15 0.0105748 19.1853)
(6.8725e-15 -0.0172667 19.1493)
(-1.7944e-15 -0.130589 19.1701)
(5.32063e-15 -0.146168 19.4956)
(7.02424e-15 -0.02357 19.8429)
(6.42665e-15 0.0910167 19.9645)
(6.47125e-15 0.119215 19.8728)
(6.39153e-15 0.109377 19.7565)
(6.35668e-15 0.109409 19.6756)
(6.65121e-15 0.114617 19.5873)
(8.76657e-15 0.118365 19.4813)
(1.00492e-14 0.118802 19.3485)
(9.9005e-16 0.114808 19.1833)
(7.23841e-15 0.116184 19.0007)
(7.93004e-15 0.129156 18.792)
(2.6952e-16 0.151423 18.5376)
(1.47384e-14 0.175772 18.2219)
(6.76685e-15 0.194655 17.8382)
(6.99658e-15 0.205392 17.3977)
(8.14739e-15 0.20973 16.9088)
(6.90388e-15 0.210168 16.3811)
(5.683e-15 0.205814 15.8174)
(7.07387e-15 0.19422 15.2341)
(7.7805e-15 0.173193 14.6489)
(5.44116e-15 0.146623 14.0962)
(4.33765e-15 0.12874 13.5742)
(3.29576e-15 0.118573 13.0369)
(3.71349e-15 0.106445 12.4985)
(4.07891e-15 0.0862238 11.902)
(3.70588e-15 0.081537 11.2579)
(-2.0004e-15 0.0630259 10.604)
(-5.9922e-15 0.036753 9.97879)
(-6.53417e-15 -0.017373 9.42908)
(-8.05068e-15 -0.0682671 8.99499)
(-9.68324e-15 -0.111847 8.69984)
(-8.06485e-15 -0.125938 8.487)
(-6.51504e-15 -0.124855 8.33817)
(-8.82614e-15 -0.114538 8.21242)
(-7.44995e-15 -0.1049 8.11237)
(-6.75901e-15 -0.097874 8.02984)
(-3.718e-15 -0.0930933 7.97096)
(-2.73977e-15 -0.0924332 7.93102)
(-1.86721e-15 -0.0941901 7.91394)
(-2.48165e-15 -0.101018 7.92032)
(-2.41219e-15 -0.111149 7.95388)
(-2.85397e-15 -0.128585 8.01699)
(-1.80311e-15 -0.149356 8.11933)
(-2.21064e-15 -0.16975 8.25962)
(-9.17771e-15 -0.180008 8.43299)
(-9.17036e-15 -0.181791 8.62152)
(-6.49343e-15 -0.174661 8.81249)
(-7.23184e-15 -0.165743 8.99901)
(-6.89301e-15 -0.154393 9.17725)
(8.00999e-15 -0.144577 9.34616)
(-3.38845e-15 -0.133765 9.50436)
(3.34393e-15 -0.124473 9.65376)
(-9.32287e-15 -0.114496 9.79299)
(-5.62811e-15 -0.1059 9.92312)
(2.41009e-15 -0.0969704 10.0428)
(-1.03886e-14 -0.0893642 10.1539)
(-6.67127e-15 -0.0818049 10.2557)
(-6.28238e-15 -0.0754205 10.3497)
(-6.14492e-15 -0.0690891 10.4353)
(-5.86606e-15 -0.0634896 10.5139)
(-6.2832e-15 -0.05781 10.585)
(-6.24032e-15 -0.052548 10.6495)
(-7.01758e-15 -0.0472195 10.7067)
(-1.1639e-14 -0.0421993 10.7574)
(-4.94125e-15 -0.0372341 10.8015)
(-4.06801e-15 -0.0325311 10.8397)
(-8.12541e-15 -0.027946 10.8719)
(-1.56931e-14 -0.0235514 10.8989)
(-1.20829e-14 -0.0193641 10.9206)
(-6.42339e-15 -0.0154697 10.9378)
(-6.03393e-15 -0.0121123 10.9509)
(-8.13878e-15 -0.00941579 10.9604)
(-8.11531e-15 -0.00747329 10.9683)
(-8.24787e-15 -0.00651872 10.973)
(-7.4582e-15 -0.0069455 10.9799)
(-9.30807e-15 -0.000386187 10.9846)
(-9.37163e-15 -0.0153349 10.9903)
(-3.77237e-16 -0.0794729 18.842)
(5.54671e-15 -0.0616552 19.2201)
(5.29345e-15 -0.0594433 19.4801)
(-7.77835e-15 -0.0413529 19.6589)
(4.15076e-15 0.0162605 19.769)
(4.11236e-15 0.0620279 19.7573)
(-8.01727e-17 0.0563594 19.6662)
(1.00339e-14 0.0472053 19.5786)
(8.99613e-15 0.0605126 19.4362)
(8.76451e-15 0.0738559 19.2034)
(7.01049e-15 0.0492854 18.846)
(3.4166e-15 0.0363121 18.3752)
(4.34637e-15 -0.00583032 17.8196)
(7.3808e-15 -0.073548 17.327)
(7.91046e-15 -0.120082 16.8808)
(-1.23963e-15 -0.147378 16.428)
(5.47612e-15 -0.168777 16.0206)
(5.57245e-15 -0.163522 15.8464)
(5.8576e-15 -0.0982032 15.9704)
(6.64332e-15 -0.0279515 16.1765)
(7.16155e-15 -0.0418504 16.1509)
(1.17679e-14 -0.187155 16.0285)
(4.82526e-15 -0.236831 16.3701)
(7.02731e-15 -0.0972434 16.9188)
(6.31038e-15 0.0554986 17.2705)
(6.50455e-15 0.101991 17.3194)
(8.96702e-15 0.0921435 17.313)
(6.37918e-15 0.0946599 17.3509)
(4.71416e-15 0.105537 17.385)
(7.27358e-15 0.118249 17.4009)
(7.25538e-15 0.12849 17.3727)
(7.91352e-15 0.132029 17.2933)
(5.17734e-15 0.140362 17.1837)
(6.70714e-15 0.162648 17.0366)
(1.56579e-14 0.197736 16.8324)
(1.35272e-14 0.237601 16.5558)
(7.36725e-15 0.272509 16.1958)
(7.27714e-15 0.297904 15.7621)
(6.34057e-15 0.315343 15.2599)
(5.61258e-15 0.328077 14.6985)
(4.85592e-15 0.334824 14.0733)
(5.38187e-15 0.330519 13.3978)
(3.09795e-15 0.308279 12.6935)
(7.88509e-16 0.2733 12.0325)
(-1.61916e-15 0.25546 11.4288)
(-3.18884e-15 0.254735 10.7986)
(-4.73304e-15 0.252947 10.1601)
(-7.11956e-15 0.2359 9.44842)
(-3.76276e-15 0.24272 8.69448)
(7.6814e-15 0.220415 7.96527)
(-2.04175e-14 0.175117 7.30131)
(6.03333e-16 0.07796 6.79219)
(-2.26468e-14 -0.0190018 6.45426)
(-1.03282e-14 -0.101812 6.30069)
(-5.73143e-15 -0.136711 6.22684)
(-1.69791e-16 -0.14452 6.20131)
(1.8221e-15 -0.137032 6.16796)
(3.61674e-15 -0.129392 6.13227)
(-2.1664e-14 -0.125001 6.08748)
(3.14382e-16 -0.123786 6.04641)
(-3.75853e-15 -0.128342 6.00954)
(-1.69791e-15 -0.136824 5.98795)
(3.64116e-16 -0.152441 5.9882)
(8.49871e-17 -0.172795 6.02053)
(5.81562e-16 -0.20317 6.09223)
(-9.92884e-15 -0.238705 6.21606)
(-6.80678e-15 -0.272465 6.38732)
(-9.94791e-15 -0.290425 6.59566)
(-9.94147e-15 -0.294305 6.81635)
(-1.36607e-14 -0.285288 7.03373)
(-1.59059e-14 -0.273131 7.24095)
(-1.11117e-14 -0.257934 7.43547)
(-8.76734e-15 -0.244488 7.61784)
(5.16262e-15 -0.229969 7.78798)
(-1.21593e-14 -0.217209 7.94929)
(-1.8229e-14 -0.203723 8.10116)
(-6.3537e-15 -0.191816 8.24567)
(-2.16246e-14 -0.179613 8.38189)
(-3.7524e-15 -0.168967 8.51263)
(-6.74699e-15 -0.158516 8.63733)
(-7.92344e-15 -0.149451 8.75798)
(-7.76007e-15 -0.140531 8.8739)
(-8.4459e-15 -0.132404 8.98666)
(-8.66772e-15 -0.124181 9.0954)
(-8.62169e-15 -0.116352 9.20079)
(-8.30288e-15 -0.108428 9.30187)
(-8.47963e-15 -0.100807 9.39913)
(-8.66165e-15 -0.0932477 9.49191)
(-8.13135e-15 -0.085967 9.58057)
(-4.01853e-15 -0.0788065 9.66457)
(-9.30936e-15 -0.0718474 9.74413)
(-7.918e-15 -0.0651047 9.81887)
(-1.11161e-14 -0.0587412 9.88896)
(-8.17426e-15 -0.053032 9.95439)
(-7.36233e-15 -0.0482739 10.0154)
(-3.95362e-15 -0.0445215 10.0735)
(-6.73639e-15 -0.041885 10.1273)
(-7.96648e-15 -0.0410761 10.1819)
(-6.44083e-15 -0.0332367 10.2269)
(-7.12342e-15 -0.0450182 10.2976)
(1.59524e-15 -0.0942356 19.2395)
(2.55814e-15 -0.0766 19.4824)
(2.8032e-15 -0.0735511 19.6231)
(-5.87541e-15 -0.0536612 19.6914)
(6.68411e-15 0.0156299 19.7139)
(5.21985e-15 0.0716707 19.612)
(-3.08129e-15 0.0699446 19.3722)
(9.90072e-15 0.0638179 19.0708)
(1.26078e-14 0.0859764 18.6791)
(1.45768e-14 0.113122 18.1406)
(1.51996e-15 0.0948384 17.3631)
(1.9291e-15 0.0912653 16.357)
(3.30449e-15 0.0437006 15.2092)
(5.19707e-15 -0.0295797 14.1238)
(4.75585e-15 -0.0842126 13.062)
(5.68265e-15 -0.116 11.9689)
(7.31853e-15 -0.171536 10.9754)
(7.06578e-15 -0.218328 10.4139)
(5.77568e-15 -0.196721 10.413)
(1.5971e-14 -0.121423 10.6936)
(2.11272e-14 -0.113147 10.7833)
(1.14157e-14 -0.293206 10.7711)
(1.38899e-14 -0.393557 11.3038)
(4.51736e-15 -0.245049 12.0955)
(4.22803e-15 -0.0481084 12.6962)
(6.57618e-15 0.0257933 12.9364)
(7.59807e-15 0.0174979 13.1092)
(7.1056e-15 0.0221555 13.3471)
(4.85707e-15 0.0386461 13.5874)
(1.61731e-15 0.0608337 13.8135)
(1.19311e-14 0.0823647 14.003)
(1.23537e-14 0.0961888 14.1414)
(1.17766e-14 0.114572 14.2494)
(6.51124e-15 0.149879 14.3182)
(1.41148e-15 0.202217 14.3222)
(8.59873e-15 0.262458 14.2394)
(1.24617e-14 0.318343 14.0524)
(6.80566e-15 0.363092 13.7687)
(6.0724e-15 0.398041 13.396)
(5.87452e-15 0.427876 12.9455)
(4.29869e-15 0.451278 12.4143)
(-5.73798e-17 0.460736 11.8145)
(-6.6523e-15 0.442326 11.1667)
(3.36204e-15 0.39783 10.5255)
(5.28635e-16 0.380498 9.93977)
(-1.22174e-14 0.395425 9.32132)
(-1.17176e-14 0.399284 8.70764)
(-1.2945e-14 0.379609 8.11347)
(-1.26652e-14 0.38846 7.54619)
(-1.0223e-14 0.36442 7.00238)
(-6.36282e-15 0.293695 6.49618)
(7.20815e-15 0.157115 6.13211)
(1.56927e-14 0.0139813 5.91688)
(1.68884e-14 -0.0993852 5.86758)
(1.61042e-14 -0.149138 5.87934)
(1.52272e-14 -0.157504 5.92006)
(1.36513e-14 -0.145892 5.93232)
(1.41559e-14 -0.133265 5.92176)
(1.14546e-14 -0.124989 5.88348)
(8.74974e-15 -0.122018 5.83204)
(5.60241e-15 -0.127108 5.77037)
(6.72529e-15 -0.139532 5.71336)
(5.36184e-15 -0.162073 5.6714)
(4.63495e-15 -0.193012 5.65813)
(9.72513e-16 -0.237778 5.68493)
(-4.27271e-15 -0.291169 5.76949)
(-1.72499e-14 -0.340457 5.90863)
(7.99919e-16 -0.367684 6.09038)
(-5.41707e-16 -0.373598 6.28652)
(-1.12957e-14 -0.363022 6.47931)
(-1.34211e-14 -0.347586 6.66134)
(-7.59604e-15 -0.329215 6.83037)
(-4.82124e-15 -0.312656 6.9873)
(-7.95625e-15 -0.29555 7.13244)
(-1.01506e-16 -0.2804 7.26968)
(1.71371e-15 -0.264921 7.39874)
(-4.49663e-15 -0.251225 7.52206)
(-1.13845e-14 -0.23759 7.63898)
(5.74529e-15 -0.22578 7.75266)
(7.44529e-16 -0.214498 7.86277)
(3.08023e-16 -0.204811 7.97154)
(1.14138e-15 -0.195405 8.07838)
(1.04478e-15 -0.186773 8.1849)
(1.77269e-15 -0.177951 8.29011)
(2.0158e-15 -0.169362 8.39451)
(8.19376e-16 -0.160512 8.49689)
(-4.52641e-16 -0.151801 8.59752)
(-1.17743e-15 -0.143002 8.6955)
(-1.0182e-15 -0.134335 8.79097)
(-2.00505e-15 -0.125633 8.88317)
(-1.8975e-15 -0.116973 8.97211)
(-2.17665e-15 -0.108384 9.05714)
(-3.5736e-15 -0.100099 9.13822)
(-1.2849e-15 -0.0924874 9.21512)
(-6.70771e-15 -0.0860035 9.28802)
(-2.32273e-15 -0.0808401 9.35825)
(-2.40795e-15 -0.0769561 9.42467)
(-4.44207e-15 -0.0754548 9.49388)
(-5.1406e-15 -0.0667834 9.54821)
(-6.20052e-15 -0.0763243 9.64554)
(2.65284e-15 -0.104921 18.7165)
(3.20367e-15 -0.0934225 18.8152)
(-7.17973e-15 -0.0928757 18.8435)
(4.53271e-15 -0.0738558 18.8094)
(6.69007e-15 0.00601787 18.7615)
(6.27507e-15 0.0763757 18.5783)
(5.4031e-15 0.0871586 18.1607)
(5.56946e-15 0.0907072 17.608)
(-5.93805e-15 0.128422 16.9587)
(-1.01056e-14 0.183446 16.1265)
(-9.3865e-15 0.1847 14.9308)
(4.8061e-15 0.204355 13.4018)
(4.23382e-15 0.154985 11.7323)
(4.75722e-15 0.0802419 10.2173)
(7.11391e-15 0.017997 8.82051)
(9.26946e-15 -0.0200306 7.51804)
(1.26016e-14 -0.131488 6.46713)
(1.561e-14 -0.260787 5.95258)
(1.36301e-14 -0.311181 5.96693)
(-3.56176e-15 -0.252983 6.26929)
(2.26257e-14 -0.240396 6.53578)
(1.03966e-14 -0.462977 6.8863)
(1.45451e-14 -0.613003 7.71462)
(8.32457e-15 -0.445716 8.664)
(9.69914e-15 -0.193935 9.32817)
(7.51329e-15 -0.0901889 9.5883)
(6.29503e-15 -0.102536 9.78536)
(3.13059e-15 -0.10007 10.0703)
(2.36932e-14 -0.0812959 10.3785)
(7.70364e-15 -0.0511444 10.7151)
(5.75304e-15 -0.0171949 11.0473)
(4.9186e-15 0.00672214 11.3441)
(5.45253e-15 0.0356488 11.6235)
(4.99661e-15 0.0850021 11.8705)
(3.61382e-15 0.156356 12.0585)
(5.74035e-16 0.240171 12.1632)
(2.90274e-15 0.322094 12.1596)
(6.03963e-15 0.391928 12.0463)
(4.32052e-15 0.449863 11.8269)
(4.46079e-15 0.501703 11.5138)
(1.84593e-15 0.546561 11.1053)
(1.327e-15 0.57498 10.6128)
(-3.86637e-15 0.570242 10.0492)
(-4.2455e-15 0.522227 9.4453)
(-5.44736e-15 0.501354 8.91939)
(-7.40304e-15 0.528272 8.40538)
(-1.07304e-14 0.532554 7.88365)
(-8.74984e-15 0.501726 7.34014)
(-4.23814e-15 0.507015 6.85025)
(2.17478e-15 0.481544 6.38974)
(3.40133e-14 0.390527 5.94513)
(2.76105e-14 0.216018 5.63344)
(3.03614e-14 0.0270226 5.46641)
(1.76346e-14 -0.117291 5.46645)
(1.34285e-14 -0.179857 5.53037)
(1.27987e-14 -0.185733 5.61942)
(1.10297e-14 -0.165881 5.67116)
(1.29133e-14 -0.143885 5.68776)
(8.45531e-15 -0.12744 5.66422)
(5.72421e-15 -0.11864 5.61546)
(2.46334e-15 -0.120986 5.54554)
(5.35336e-16 -0.134999 5.47175)
(-2.23826e-15 -0.162964 5.40688)
(-1.5417e-15 -0.203685 5.36576)
(-6.04913e-15 -0.26312 5.36187)
(-5.96339e-15 -0.336165 5.4178)
(-5.69514e-15 -0.402847 5.53361)
(-1.44248e-14 -0.440292 5.69681)
(-1.36987e-14 -0.448144 5.87634)
(-1.94861e-14 -0.43567 6.05287)
(-1.57156e-14 -0.416519 6.21856)
(-1.69572e-14 -0.39467 6.37128)
(-1.43341e-14 -0.374705 6.51196)
(-1.2352e-14 -0.354862 6.64102)
(-1.70929e-14 -0.337225 6.76249)
(-2.02219e-14 -0.319797 6.87623)
(-1.5026e-14 -0.30443 6.98481)
(-2.62098e-14 -0.289617 7.0877)
(-1.18074e-14 -0.277007 7.18829)
(-1.53056e-14 -0.265398 7.28645)
(-2.1061e-14 -0.255704 7.38468)
(-1.22087e-14 -0.246527 7.48253)
(-1.48815e-14 -0.238159 7.58178)
(-1.59404e-14 -0.229531 7.68139)
(-1.63936e-14 -0.220982 7.78185)
(-1.64993e-14 -0.212003 7.88182)
(-1.7177e-14 -0.202999 7.98153)
(-1.85265e-14 -0.193746 8.07998)
(-1.60897e-14 -0.184465 8.17729)
(-1.62613e-14 -0.174962 8.27262)
(-2.06707e-14 -0.165302 8.36592)
(-1.93973e-14 -0.155502 8.45643)
(-1.8439e-14 -0.145871 8.54399)
(-2.31625e-14 -0.136885 8.62829)
(-2.20529e-14 -0.12918 8.70956)
(-2.01745e-14 -0.123125 8.78921)
(-1.86336e-14 -0.118682 8.86613)
(-2.22907e-14 -0.116989 8.94883)
(-2.06617e-14 -0.108206 9.01226)
(-2.02889e-14 -0.117058 9.13766)
(3.3874e-15 -0.120382 17.4628)
(4.82824e-15 -0.120249 17.3827)
(1.41272e-14 -0.125084 17.2568)
(4.41559e-15 -0.110613 17.0762)
(6.84827e-15 -0.0202894 16.9488)
(6.26166e-15 0.0718901 16.7114)
(7.45917e-15 0.106813 16.1686)
(-5.54504e-15 0.125953 15.4828)
(4.48148e-15 0.184518 14.7627)
(2.80311e-15 0.283981 13.8776)
(2.80869e-15 0.318241 12.5655)
(3.9049e-15 0.376819 10.8948)
(5.50262e-15 0.327233 9.13427)
(8.95567e-15 0.242438 7.68219)
(1.1388e-14 0.156803 6.5756)
(3.4412e-14 0.0957534 5.79136)
(1.90055e-14 -0.0697762 5.22741)
(1.36069e-14 -0.262174 4.9676)
(1.1367e-14 -0.36039 4.97329)
(1.12867e-14 -0.324648 5.16247)
(9.34816e-15 -0.333229 5.38654)
(8.19575e-15 -0.611398 5.82267)
(1.6817e-14 -0.799414 6.70951)
(1.11729e-14 -0.599992 7.65065)
(1.51493e-14 -0.288028 8.2235)
(6.75001e-15 -0.154649 8.33718)
(-4.18173e-17 -0.174791 8.38855)
(2.05498e-14 -0.181259 8.56284)
(1.40763e-14 -0.169564 8.7883)
(9.20404e-15 -0.144591 9.06485)
(8.43976e-15 -0.108462 9.35213)
(8.46995e-15 -0.0819733 9.62882)
(8.21784e-15 -0.0502082 9.91091)
(8.42305e-15 0.00758402 10.1789)
(6.3395e-15 0.0928583 10.4042)
(3.76665e-16 0.19554 10.5718)
(2.94948e-15 0.300563 10.6572)
(7.05749e-15 0.394974 10.6463)
(3.15984e-15 0.47697 10.5341)
(3.19367e-15 0.55164 10.3291)
(1.17421e-14 0.618759 10.0286)
(4.29199e-15 0.668208 9.64029)
(-1.23911e-14 0.683225 9.17144)
(-1.75662e-14 0.636109 8.642)
(-1.38048e-14 0.60783 8.14728)
(-1.12586e-14 0.642883 7.68315)
(-1.26863e-14 0.650171 7.23019)
(-1.33323e-14 0.609707 6.73207)
(2.96197e-14 0.610712 6.26352)
(-1.03427e-15 0.585256 5.8557)
(-9.0954e-16 0.474022 5.45351)
(3.41381e-16 0.259766 5.18258)
(1.72225e-15 0.0228878 5.05922)
(3.04496e-15 -0.153727 5.10808)
(3.82566e-15 -0.227887 5.22449)
(5.69794e-15 -0.228819 5.36143)
(2.04344e-15 -0.197392 5.45178)
(3.09467e-15 -0.162157 5.49541)
(-1.80266e-15 -0.133689 5.48775)
(-5.27166e-15 -0.11561 5.44397)
(-6.30624e-15 -0.112477 5.36918)
(-8.37581e-15 -0.125991 5.28298)
(-1.2647e-14 -0.157882 5.20033)
(-1.42668e-14 -0.207132 5.13658)
(-1.87534e-14 -0.281299 5.10722)
(-2.6047e-14 -0.375552 5.14045)
(-4.29524e-14 -0.461533 5.23924)
(-2.71908e-14 -0.50972 5.38946)
(-3.61631e-14 -0.519399 5.55688)
(-3.80665e-14 -0.504672 5.72079)
(-3.60294e-14 -0.48172 5.87339)
(-3.49336e-14 -0.456234 6.01289)
(-3.51826e-14 -0.432842 6.14036)
(-3.63768e-14 -0.41016 6.25629)
(-2.86941e-14 -0.39005 6.36486)
(-2.86599e-14 -0.370636 6.46596)
(-2.59566e-14 -0.353655 6.56229)
(-5.53178e-14 -0.337717 6.65336)
(-3.20954e-14 -0.324473 6.74276)
(-3.15535e-14 -0.31276 6.83054)
(-2.8922e-14 -0.303401 6.9195)
(-3.82761e-14 -0.294834 7.00937)
(-3.54395e-14 -0.287157 7.10206)
(-3.59382e-14 -0.279129 7.19654)
(-3.52105e-14 -0.271019 7.29325)
(-3.48454e-14 -0.262282 7.39078)
(-3.47342e-14 -0.253345 7.4893)
(-3.47156e-14 -0.243987 7.58781)
(-3.48678e-14 -0.234438 7.68643)
(-3.40351e-14 -0.224469 7.78433)
(-3.1662e-14 -0.214124 7.88144)
(-2.84935e-14 -0.203406 7.97696)
(-3.83905e-14 -0.192704 8.07067)
(-3.0959e-14 -0.182639 8.16224)
(-2.97569e-14 -0.174073 8.25198)
(-3.16827e-14 -0.167592 8.34151)
(-2.7223e-14 -0.163247 8.42967)
(-2.7965e-14 -0.161988 8.52666)
(-2.59693e-14 -0.15422 8.60107)
(-2.32835e-14 -0.163513 8.75499)
(3.49227e-15 -0.139603 15.4285)
(2.54502e-15 -0.155354 15.0498)
(-9.47151e-15 -0.169279 14.6905)
(6.74645e-15 -0.1669 14.3496)
(7.88608e-15 -0.0705684 14.2193)
(1.05934e-15 0.0464843 14.0871)
(-5.55327e-15 0.110307 13.6485)
(1.13136e-14 0.144019 13.119)
(7.54005e-15 0.224091 12.62)
(1.68082e-16 0.376596 11.9712)
(-9.45634e-16 0.447244 10.9142)
(5.88807e-15 0.539989 9.53779)
(7.92658e-15 0.487275 8.04875)
(1.15307e-14 0.367386 6.91144)
(1.34735e-14 0.244003 6.22941)
(1.43586e-14 0.161371 5.85896)
(1.83262e-14 -0.0156909 5.52698)
(2.32945e-14 -0.230843 5.29561)
(6.59185e-15 -0.343595 5.21696)
(1.56267e-14 -0.318837 5.23318)
(9.71597e-15 -0.357097 5.30676)
(6.87134e-15 -0.711201 5.6017)
(1.38242e-15 -0.94452 6.38402)
(1.02606e-14 -0.706405 7.32417)
(2.5871e-15 -0.321762 7.83963)
(-1.22735e-15 -0.162741 7.7847)
(7.24184e-15 -0.204394 7.65834)
(1.14129e-14 -0.22528 7.70298)
(6.50157e-15 -0.224299 7.8253)
(5.67797e-15 -0.20643 8.02379)
(1.7687e-14 -0.175033 8.24122)
(1.81536e-15 -0.151628 8.46065)
(-1.017e-14 -0.122964 8.70636)
(1.07907e-15 -0.0627345 8.95053)
(3.39345e-15 0.0298629 9.16139)
(6.33929e-15 0.143762 9.32543)
(-1.56235e-15 0.26527 9.42879)
(6.89209e-15 0.379393 9.46654)
(4.73536e-15 0.482252 9.42304)
(5.64594e-15 0.578564 9.29636)
(7.58656e-15 0.668282 9.08067)
(4.06536e-15 0.739977 8.78035)
(-7.77227e-15 0.776675 8.39605)
(-1.59205e-14 0.737155 7.95579)
(-1.66145e-14 0.707403 7.48939)
(-1.62325e-14 0.746744 7.05122)
(-1.63098e-14 0.754623 6.65341)
(-1.45654e-14 0.708584 6.19429)
(-1.15217e-14 0.705691 5.75339)
(-7.51126e-15 0.677511 5.40068)
(-3.75497e-15 0.547994 5.0429)
(-2.38025e-15 0.294943 4.81168)
(-1.21028e-15 0.00987282 4.72767)
(-1.07832e-15 -0.20003 4.81942)
(-5.86661e-16 -0.285206 4.98191)
(1.2976e-15 -0.279886 5.16144)
(-6.89156e-15 -0.234838 5.28711)
(-1.07069e-14 -0.18385 5.35686)
(-1.62237e-14 -0.140622 5.36596)
(-2.76317e-14 -0.11051 5.32926)
(-4.54677e-14 -0.0996308 5.25264)
(-1.93829e-14 -0.110891 5.1582)
(-2.47761e-14 -0.145328 5.06279)
(-2.7132e-14 -0.201834 4.98152)
(-3.03775e-14 -0.290323 4.93174)
(-2.87105e-14 -0.407211 4.9479)
(-3.18017e-14 -0.513893 5.03527)
(-3.90407e-14 -0.572983 5.17663)
(-3.92879e-14 -0.58402 5.33421)
(-3.38938e-14 -0.56675 5.48685)
(-2.78842e-14 -0.53993 5.62757)
(-2.52897e-14 -0.51084 5.75525)
(-2.51035e-14 -0.484074 5.87114)
(-1.01632e-14 -0.458633 5.97582)
(-2.75588e-14 -0.436148 6.07343)
(-2.19012e-14 -0.414871 6.16388)
(-3.56756e-15 -0.39641 6.24978)
(-2.14937e-14 -0.379528 6.33063)
(-2.21518e-14 -0.365904 6.41013)
(-2.42133e-14 -0.354447 6.48853)
(-2.74038e-14 -0.345876 6.5689)
(-1.95958e-14 -0.338445 6.65122)
(-2.26963e-14 -0.332019 6.73756)
(-2.17017e-14 -0.325163 6.82689)
(-2.2088e-14 -0.318053 6.91966)
(-2.30809e-14 -0.310115 7.01442)
(-2.36976e-14 -0.30181 7.11142)
(-2.33938e-14 -0.29293 7.20972)
(-2.25952e-14 -0.283717 7.30956)
(-2.18583e-14 -0.273902 7.41019)
(-2.17794e-14 -0.263488 7.51157)
(-2.25476e-14 -0.252455 7.61281)
(-2.26131e-14 -0.24127 7.71364)
(-1.71274e-14 -0.230729 7.81366)
(-1.66693e-14 -0.221949 7.91319)
(-1.77217e-14 -0.215753 8.01394)
(-1.68012e-14 -0.212314 8.11465)
(-1.45146e-14 -0.212256 8.22658)
(-1.31646e-14 -0.206696 8.31333)
(-1.08876e-14 -0.216771 8.49359)
(2.1841e-15 -0.161594 12.5245)