/*--------------------------------*- C++ -*----------------------------------*\
| =========                 |                                                 |
| \\      /  F ield         | OpenFOAM: The Open Source CFD Toolbox           |
|  \\    /   O peration     | Version:  4.1                                   |
|   \\  /    A nd           | Web:      www.OpenFOAM.org                      |
|    \\/     M anipulation  |                                                 |
\*---------------------------------------------------------------------------*/
FoamFile
{
    version     2.0;
    format      ascii;
    class       volScalarField;
    location    "2";
    object      p;
}
// * * * * * * * * * * * * * * * * * * * * * * * * * * * * * * * * * * * * * //

dimensions      [0 2 -2 0 0 0 0];

internalField   nonuniform List<scalar> 
1705
(
6.46393e-29
3.30538e-28
6.11713e-28
7.42544e-28
8.73468e-28
1.12297e-27
1.4351e-27
1.57146e-27
1.70763e-27
1.94723e-27
2.30303e-27
2.44947e-27
2.69275e-27
3.0923e-27
3.25198e-27
3.41166e-27
3.65289e-27
4.12591e-27
4.30579e-27
4.55958e-27
5.11131e-27
5.31636e-27
5.52169e-27
5.78207e-27
6.45545e-27
6.69582e-27
6.93602e-27
7.20886e-27
8.04531e-27
8.33335e-27
8.63493e-27
9.65971e-27
1.00076e-26
1.03557e-26
1.06776e-26
1.19845e-26
1.24149e-26
1.27786e-26
1.44196e-26
1.49527e-26
1.53345e-26
1.55601e-26
1.58974e-26
1.6293e-26
-1.05127e-26
1.71777e-26
1.70134e-26
1.69016e-26
1.68994e-26
1.69069e-26
1.69241e-26
1.70587e-26
1.72548e-26
-1.02279e-26
1.66083e-26
1.62626e-26
1.59758e-26
1.58092e-26
1.56573e-26
1.55201e-26
1.55058e-26
1.55573e-26
-1.19129e-26
1.38349e-26
1.33674e-26
1.29768e-26
1.27143e-26
1.24748e-26
1.22584e-26
1.21732e-26
1.2163e-26
-1.30791e-26
4.3993e-27
3.98712e-27
3.67581e-27
3.51979e-27
3.42045e-27
3.37735e-27
3.44487e-27
3.60317e-27
-7.92933e-27
-7.29982e-27
-7.06678e-27
-6.61159e-27
-6.41713e-27
-6.04458e-27
-5.68262e-27
-5.54095e-27
-5.27323e-27
-5.00615e-27
-4.90208e-27
-4.70374e-27
-4.61358e-27
-4.44584e-27
-4.27492e-27
-4.20667e-27
-4.0785e-27
-4.01904e-27
-3.90951e-27
-3.79694e-27
-3.75179e-27
-3.6671e-27
-3.58007e-27
-3.54678e-27
-3.4808e-27
-3.45259e-27
-3.3961e-27
-3.34029e-27
-3.32111e-27
-3.27774e-27
-3.26291e-27
-3.22646e-27
-3.19454e-27
-3.18753e-27
-3.1613e-27
-3.14218e-27
-3.1429e-27
-3.12556e-27
-3.13043e-27
-3.11785e-27
-1.19958e-28
-1.20306e-28
-1.16436e-28
-1.08817e-28
-9.76004e-29
-8.29753e-29
-6.51877e-29
-4.45445e-29
-2.14145e-29
3.77055e-30
3.05143e-29
5.82542e-29
8.6359e-29
1.14127e-28
1.40784e-28
1.65485e-28
1.87312e-28
2.0528e-28
2.18338e-28
2.25372e-28
2.25205e-28
2.16597e-28
1.98232e-28
1.68705e-28
1.26489e-28
6.98942e-29
-2.98588e-30
-9.43501e-29
-2.0677e-28
-3.43275e-28
-5.07409e-28
-7.03213e-28
-9.35016e-28
-1.20679e-27
-1.52061e-27
-1.87361e-27
-2.25245e-27
-2.62603e-27
-2.94039e-27
-1.19944e-28
-1.20261e-28
-1.16379e-28
-1.08759e-28
-9.75446e-29
-8.29246e-29
-6.51445e-29
-4.45109e-29
-2.13921e-29
3.78025e-30
3.05105e-29
5.82365e-29
8.63276e-29
1.14082e-28
1.40728e-28
1.65419e-28
1.8724e-28
2.05205e-28
2.18264e-28
2.25305e-28
2.25152e-28
2.16566e-28
1.98233e-28
1.68749e-28
1.2659e-28
7.00703e-29
-2.71589e-30
-9.39636e-29
-2.06242e-28
-3.42578e-28
-5.06517e-28
-7.02113e-28
-9.33719e-28
-1.20537e-27
-1.51927e-27
-1.87276e-27
-2.25282e-27
-2.62852e-27
-2.94565e-27
-1.19703e-28
-1.19977e-28
-1.16086e-28
-1.08478e-28
-9.7288e-29
-8.27016e-29
-6.49638e-29
-4.43802e-29
-2.13182e-29
3.79185e-30
3.04556e-29
5.81125e-29
8.61334e-29
1.13819e-28
1.40398e-28
1.65028e-28
1.86795e-28
2.04717e-28
2.17746e-28
2.24773e-28
2.24625e-28
2.16067e-28
1.9779e-28
1.68392e-28
1.26355e-28
6.99975e-29
-2.58044e-30
-9.35689e-29
-2.05532e-28
-3.41496e-28
-5.05011e-28
-7.00151e-28
-9.31324e-28
-1.20269e-27
-1.51671e-27
-1.87115e-27
-2.25361e-27
-2.63357e-27
-2.95628e-27
-1.19244e-28
-1.19473e-28
-1.15579e-28
-1.07996e-28
-9.68498e-29
-8.23232e-29
-6.46597e-29
-4.41634e-29
-2.12e-29
3.80213e-30
3.03508e-29
5.78879e-29
8.57872e-29
1.13352e-28
1.39816e-28
1.64338e-28
1.8601e-28
2.03853e-28
2.16824e-28
2.23819e-28
2.23672e-28
2.15151e-28
1.96954e-28
1.67686e-28
1.25835e-28
6.97267e-29
-2.53055e-30
-9.31197e-29
-2.04599e-28
-3.39991e-28
-5.02854e-28
-6.97292e-28
-9.27796e-28
-1.19871e-27
-1.51287e-27
-1.86871e-27
-2.25473e-27
-2.64112e-27
-2.97229e-27
-1.18576e-28
-1.18761e-28
-1.14873e-28
-1.07327e-28
-9.62435e-29
-8.18014e-29
-6.42422e-29
-4.38681e-29
-2.10425e-29
3.80895e-30
3.01971e-29
5.75672e-29
8.52968e-29
1.12694e-28
1.38995e-28
1.63367e-28
1.84905e-28
2.02637e-28
2.15526e-28
2.22475e-28
2.22325e-28
2.13852e-28
1.95761e-28
1.66667e-28
1.25066e-28
6.92934e-29
-2.53208e-30
-9.25837e-29
-2.03411e-28
-3.38033e-28
-5.00019e-28
-6.9351e-28
-9.23104e-28
-1.19339e-27
-1.50769e-27
-1.86533e-27
-2.25606e-27
-2.65107e-27
-2.99377e-27
-1.17706e-28
-1.17853e-28
-1.13977e-28
-1.06482e-28
-9.54785e-29
-8.11444e-29
-6.37182e-29
-4.34996e-29
-2.08492e-29
3.81094e-30
2.99953e-29
5.71534e-29
8.46678e-29
1.11852e-28
1.37948e-28
1.62128e-28
1.83496e-28
2.01087e-28
2.13872e-28
2.20762e-28
2.20607e-28
2.12193e-28
1.94235e-28
1.65359e-28
1.24072e-28
6.87212e-29
-2.5628e-30
-9.19404e-29
-2.01951e-28
-3.35607e-28
-4.9649e-28
-6.88787e-28
-9.17224e-28
-1.18668e-27
-1.5011e-27
-1.8609e-27
-2.25744e-27
-2.6633e-27
-3.0208e-27
-1.16641e-28
-1.16755e-28
-1.129e-28
-1.05467e-28
-9.45611e-29
-8.03576e-29
-6.30922e-29
-4.30614e-29
-2.06221e-29
3.80727e-30
2.9746e-29
5.66489e-29
8.3904e-29
1.10831e-28
1.3668e-28
1.6063e-28
1.81794e-28
1.99215e-28
2.11875e-28
2.18694e-28
2.18534e-28
2.10192e-28
1.92394e-28
1.6378e-28
1.2287e-28
6.80249e-29
-2.60884e-30
-9.11771e-29
-2.00206e-28
-3.32702e-28
-4.92256e-28
-6.83108e-28
-9.10129e-28
-1.17854e-27
-1.493e-27
-1.85525e-27
-2.25865e-27
-2.67764e-27
-3.05349e-27
-1.15387e-28
-1.15472e-28
-1.11646e-28
-1.04286e-28
-9.34956e-29
-7.9445e-29
-6.23675e-29
-4.25558e-29
-2.0363e-29
3.79742e-30
2.94499e-29
5.60552e-29
8.30083e-29
1.09636e-28
1.35197e-28
1.5888e-28
1.79806e-28
1.9703e-28
2.09544e-28
2.16282e-28
2.16116e-28
2.07858e-28
1.90248e-28
1.6194e-28
1.21469e-28
6.72142e-29
-2.66169e-30
-9.02866e-29
-1.98171e-28
-3.29312e-28
-4.8731e-28
-6.76462e-28
-9.01797e-28
-1.16891e-27
-1.48329e-27
-1.84821e-27
-2.25945e-27
-2.69389e-27
-3.09197e-27
-1.13947e-28
-1.14009e-28
-1.10219e-28
-1.02944e-28
-9.22854e-29
-7.84096e-29
-6.15464e-29
-4.19847e-29
-2.00728e-29
3.78106e-30
2.91074e-29
5.53739e-29
8.1983e-29
1.0827e-28
1.33504e-28
1.56882e-28
1.77538e-28
1.94538e-28
2.06887e-28
2.13533e-28
2.13362e-28
2.052e-28
1.87805e-28
1.59846e-28
1.19877e-28
6.62953e-29
-2.7161e-30
-8.92648e-29
-1.95842e-28
-3.25435e-28
-4.81649e-28
-6.6884e-28
-8.92204e-28
-1.15775e-27
-1.47186e-27
-1.83956e-27
-2.25951e-27
-2.71178e-27
-3.13633e-27
-1.12327e-28
-1.12368e-28
-1.08622e-28
-1.01444e-28
-9.09334e-29
-7.72539e-29
-6.06311e-29
-4.13495e-29
-1.97524e-29
3.758e-30
2.87191e-29
5.46061e-29
8.08302e-29
1.06737e-28
1.31603e-28
1.54641e-28
1.74995e-28
1.91745e-28
2.0391e-28
2.10453e-28
2.10277e-28
2.02225e-28
1.85072e-28
1.57505e-28
1.18099e-28
6.52727e-29
-2.76875e-30
-8.81096e-29
-1.93219e-28
-3.21069e-28
-4.75272e-28
-6.60235e-28
-8.81328e-28
-1.14499e-27
-1.45857e-27
-1.82906e-27
-2.25848e-27
-2.73094e-27
-3.18672e-27
-1.10531e-28
-1.10554e-28
-1.06858e-28
-9.97886e-29
-8.94422e-29
-7.598e-29
-5.96233e-29
-4.06517e-29
-1.94026e-29
3.72811e-30
2.82855e-29
5.37532e-29
7.95519e-29
1.05037e-28
1.29499e-28
1.52161e-28
1.72182e-28
1.88656e-28
2.00619e-28
2.0705e-28
2.06869e-28
1.98939e-28
1.82053e-28
1.54922e-28
1.1614e-28
6.41499e-29
-2.81744e-30
-8.68202e-29
-1.90303e-28
-3.16218e-28
-4.68177e-28
-6.5064e-28
-8.69146e-28
-1.13058e-27
-1.4433e-27
-1.81644e-27
-2.25592e-27
-2.75095e-27
-3.24324e-27
-1.08561e-28
-1.0857e-28
-1.0493e-28
-9.79802e-29
-8.78144e-29
-7.45904e-29
-5.8525e-29
-3.98925e-29
-1.90242e-29
3.6913e-30
2.78072e-29
5.28164e-29
7.81502e-29
1.03176e-28
1.27195e-28
1.49447e-28
1.69103e-28
1.85276e-28
1.97019e-28
2.03328e-28
2.03143e-28
1.95347e-28
1.78756e-28
1.52101e-28
1.14003e-28
6.29297e-29
-2.86061e-30
-8.53967e-29
-1.87094e-28
-3.10881e-28
-4.60366e-28
-6.40051e-28
-8.55637e-28
-1.11444e-27
-1.42589e-27
-1.80141e-27
-2.25131e-27
-2.77123e-27
-3.30589e-27
-1.06423e-28
-1.06418e-28
-1.02842e-28
-9.60221e-29
-8.60527e-29
-7.30872e-29
-5.73379e-29
-3.90732e-29
-1.86178e-29
3.64753e-30
2.72849e-29
5.17973e-29
7.66272e-29
1.01154e-28
1.24695e-28
1.46502e-28
1.65764e-28
1.81612e-28
1.93116e-28
1.99293e-28
1.99105e-28
1.91456e-28
1.75185e-28
1.49049e-28
1.11693e-28
6.1615e-29
-2.8971e-30
-8.38395e-29
-1.83595e-28
-3.05064e-28
-4.51842e-28
-6.28464e-28
-8.40781e-28
-1.09653e-27
-1.4062e-27
-1.78363e-27
-2.24409e-27
-2.79109e-27
-3.37473e-27
-1.04119e-28
-1.04103e-28
-1.00595e-28
-9.39173e-29
-8.41599e-29
-7.1473e-29
-5.6064e-29
-3.81952e-29
-1.81842e-29
3.59679e-30
2.67193e-29
5.06973e-29
7.49852e-29
9.89764e-29
1.22002e-28
1.43331e-28
1.6217e-28
1.77668e-28
1.88916e-28
1.94953e-28
1.94762e-28
1.87272e-28
1.71347e-28
1.45769e-28
1.09214e-28
6.02082e-29
-2.92594e-30
-8.21495e-29
-1.79808e-28
-2.98769e-28
-4.42607e-28
-6.1588e-28
-8.24561e-28
-1.07679e-27
-1.38407e-27
-1.76275e-27
-2.23357e-27
-2.80964e-27
-3.44959e-27
-1.01654e-28
-1.01627e-28
-9.81949e-29
-9.16691e-29
-8.21388e-29
-6.97502e-29
-5.47053e-29
-3.726e-29
-1.77241e-29
3.53906e-30
2.61112e-29
4.9518e-29
7.32268e-29
9.66453e-29
1.1912e-28
1.39938e-28
1.58326e-28
1.7345e-28
1.84426e-28
1.90313e-28
1.9012e-28
1.82801e-28
1.67246e-28
1.42267e-28
1.06569e-28
5.87121e-29
-2.94633e-30
-8.03281e-29
-1.75738e-28
-2.92003e-28
-4.32669e-28
-6.02298e-28
-8.06966e-28
-1.05515e-27
-1.35934e-27
-1.73841e-27
-2.21901e-27
-2.82579e-27
-3.5303e-27
-9.9031e-29
-9.89955e-29
-9.5644e-29
-8.92809e-29
-7.99927e-29
-6.79216e-29
-5.3264e-29
-3.6269e-29
-1.72383e-29
3.47435e-30
2.54616e-29
4.82612e-29
7.13544e-29
9.41643e-29
1.16055e-28
1.3633e-28
1.54237e-28
1.68966e-28
1.79652e-28
1.85381e-28
1.85187e-28
1.78051e-28
1.62891e-28
1.38549e-28
1.03763e-28
5.71293e-29
-2.95756e-30
-7.83768e-29
-1.71388e-28
-2.84771e-28
-4.22034e-28
-5.87725e-28
-7.87987e-28
-1.03159e-27
-1.33189e-27
-1.71022e-27
-2.19955e-27
-2.83819e-27
-3.61629e-27
-9.62554e-29
-9.62113e-29
-9.29466e-29
-8.67563e-29
-7.77248e-29
-6.59899e-29
-5.17422e-29
-3.52238e-29
-1.67276e-29
3.40271e-30
2.47711e-29
4.69286e-29
6.93709e-29
9.15374e-29
1.1281e-28
1.32512e-28
1.49912e-28
1.64222e-28
1.74603e-28
1.80165e-28
1.7997e-28
1.73028e-28
1.58286e-28
1.3462e-28
1.00801e-28
5.54626e-29
-2.95902e-30
-7.62976e-29
-1.66762e-28
-2.77081e-28
-4.10711e-28
-5.72167e-28
-7.6762e-28
-1.00605e-27
-1.30156e-27
-1.6778e-27
-2.17426e-27
-2.84515e-27
-3.70644e-27
-9.33311e-29
-9.32792e-29
-9.01067e-29
-8.40992e-29
-7.53386e-29
-6.39582e-29
-5.01425e-29
-3.41261e-29
-1.61928e-29
3.32416e-30
2.4041e-29
4.55223e-29
6.72793e-29
8.87683e-29
1.0939e-28
1.28489e-28
1.45355e-28
1.59224e-28
1.69284e-28
1.74672e-28
1.74477e-28
1.6774e-28
1.5344e-28
1.30487e-28
9.76874e-29
5.37148e-29
-2.95017e-30
-7.40926e-29
-1.61867e-28
-2.68942e-28
-3.98711e-28
-5.55636e-28
-7.45872e-28
-9.78518e-28
-1.26826e-27
-1.64078e-27
-2.14212e-27
-2.84464e-27
-3.79959e-27
-9.02626e-29
-9.02036e-29
-8.71288e-29
-8.13138e-29
-7.28377e-29
-6.18295e-29
-4.84673e-29
-3.29776e-29
-1.56348e-29
3.23877e-30
2.32722e-29
4.40444e-29
6.50827e-29
8.58613e-29
1.05801e-28
1.24267e-28
1.40573e-28
1.53982e-28
1.63706e-28
1.68911e-28
1.68717e-28
1.62195e-28
1.4836e-28
1.26155e-28
9.44265e-29
5.18888e-29
-2.93054e-30
-7.17645e-29
-1.56708e-28
-2.60363e-28
-3.86048e-28
-5.38148e-28
-7.22754e-28
-9.48984e-28
-1.23188e-27
-1.59879e-27
-2.10205e-27
-2.83417e-27
-3.89335e-27
-8.70548e-29
-8.69893e-29
-8.40172e-29
-7.84041e-29
-7.02261e-29
-5.96072e-29
-4.67191e-29
-3.17801e-29
-1.50546e-29
3.1466e-30
2.24658e-29
4.2497e-29
6.27843e-29
8.28208e-29
1.02047e-28
1.19853e-28
1.35575e-28
1.48502e-28
1.57875e-28
1.6289e-28
1.62698e-28
1.56402e-28
1.43054e-28
1.21632e-28
9.10239e-29
4.99878e-29
-2.89975e-30
-6.93159e-29
-1.51292e-28
-2.51355e-28
-3.72736e-28
-5.19721e-28
-6.98287e-28
-9.17455e-28
-1.19237e-27
-1.55155e-27
-2.05293e-27
-2.81075e-27
-3.98395e-27
-8.37126e-29
-8.3641e-29
-8.07769e-29
-7.53747e-29
-6.75076e-29
-5.72946e-29
-4.49006e-29
-3.05354e-29
-1.4453e-29
3.04774e-30
2.1623e-29
4.08824e-29
6.03877e-29
7.96513e-29
9.81357e-29
1.15253e-28
1.30367e-28
1.42793e-28
1.51801e-28
1.56618e-28
1.56429e-28
1.5037e-28
1.37529e-28
1.16924e-28
8.74847e-29
4.80147e-29
-2.85751e-30
-6.67501e-29
-1.45626e-28
-2.41929e-28
-3.58795e-28
-5.0038e-28
-6.72499e-28
-8.83958e-28
-1.14973e-27
-1.49879e-27
-1.99363e-27
-2.77083e-27
-4.06717e-27
-8.02411e-29
-8.0164e-29
-7.74126e-29
-7.22302e-29
-6.46864e-29
-5.48954e-29
-4.30148e-29
-2.92455e-29
-1.38311e-29
2.94228e-30
2.07451e-29
3.92031e-29
5.78964e-29
7.63576e-29
9.40715e-29
1.10475e-28
1.24958e-28
1.36864e-28
1.45493e-28
1.50106e-28
1.49919e-28
1.44108e-28
1.31794e-28
1.12039e-28
8.38144e-29
4.59727e-29
-2.8036e-30
-6.40705e-29
-1.39717e-28
-2.321e-28
-3.44242e-28
-4.80153e-28
-6.45429e-28
-8.48541e-28
-1.10396e-27
-1.44038e-27
-1.9231e-27
-2.71025e-27
-4.13532e-27
-7.66456e-29
-7.65635e-29
-7.39297e-29
-6.89753e-29
-6.1767e-29
-5.24132e-29
-4.10644e-29
-2.79125e-29
-1.31898e-29
2.83033e-30
1.98332e-29
3.74615e-29
5.53141e-29
7.29446e-29
8.98611e-29
1.05525e-28
1.19355e-28
1.30723e-28
1.38961e-28
1.43363e-28
1.4318e-28
1.37625e-28
1.25859e-28
1.06984e-28
8.00188e-29
4.38651e-29
-2.7379e-30
-6.12808e-29
-1.33575e-28
-2.21882e-28
-3.29101e-28
-4.59072e-28
-6.17125e-28
-8.11273e-28
-1.05517e-27
-1.37629e-27
-1.84043e-27
-2.62426e-27
-4.17938e-27
-7.29316e-29
-7.2845e-29
-7.03333e-29
-6.56152e-29
-5.87537e-29
-4.98518e-29
-3.90526e-29
-2.65384e-29
-1.25302e-29
2.71201e-30
1.88888e-29
3.56603e-29
5.26448e-29
6.94176e-29
8.55106e-29
1.00412e-28
1.13567e-28
1.2438e-28
1.32215e-28
1.36399e-28
1.36221e-28
1.30931e-28
1.19731e-28
1.01767e-28
7.61036e-29
4.16952e-29
-2.66037e-30
-5.83851e-29
-1.27209e-28
-2.1129e-28
-3.13396e-28
-4.37174e-28
-5.87643e-28
-7.72246e-28
-1.00349e-27
-1.30664e-27
-1.74499e-27
-2.50751e-27
-4.18407e-27
-6.91047e-29
-6.90143e-29
-6.6629e-29
-6.21549e-29
-5.56511e-29
-4.72152e-29
-3.69824e-29
-2.51253e-29
-1.18533e-29
2.58745e-30
1.79133e-29
3.38021e-29
4.98924e-29
6.57818e-29
8.10268e-29
9.51425e-29
1.07603e-28
1.17845e-28
1.25265e-28
1.29225e-28
1.29052e-28
1.24036e-28
1.13421e-28
9.63957e-29
7.20749e-29
3.94663e-29
-2.57107e-30
-5.53878e-29
-1.20627e-28
-2.00342e-28
-2.97153e-28
-4.14498e-28
-5.5705e-28
-7.31573e-28
-9.4912e-28
-1.23173e-27
-1.63658e-27
-2.35427e-27
-4.12712e-27
-6.51709e-29
-6.5077e-29
-6.28224e-29
-5.85997e-29
-5.24642e-29
-4.45075e-29
-3.4857e-29
-2.36755e-29
-1.11602e-29
2.45681e-30
1.6908e-29
3.18898e-29
4.70612e-29
6.20428e-29
7.64165e-29
8.97249e-29
1.01473e-28
1.11127e-28
1.18121e-28
1.21852e-28
1.21686e-28
1.16951e-28
1.06937e-28
9.08784e-29
6.79387e-29
3.71818e-29
-2.47014e-30
-5.22934e-29
-1.13842e-28
-1.89054e-28
-2.80399e-28
-3.9109e-28
-5.25417e-28
-6.89387e-28
-8.92335e-28
-1.15208e-27
-1.51562e-27
-2.15884e-27
-4.01288e-27
-6.1136e-29
-6.10393e-29
-5.89194e-29
-5.4955e-29
-4.91976e-29
-4.17327e-29
-3.26798e-29
-2.21912e-29
-1.04519e-29
2.32023e-30
1.58745e-29
2.99262e-29
4.41554e-29
5.82063e-29
7.16866e-29
8.41675e-29
9.51841e-29
1.04237e-28
1.10794e-28
1.14291e-28
1.14131e-28
1.09687e-28
1.00291e-28
8.52235e-29
6.37014e-29
3.48451e-29
-2.35783e-30
-4.9107e-29
-1.06863e-28
-1.77445e-28
-2.63164e-28
-3.66996e-28
-4.92824e-28
-6.45839e-28
-8.33452e-28
-1.06842e-27
-1.38342e-27
-1.915e-27
-3.55697e-27
-5.70061e-29
-5.69072e-29
-5.49259e-29
-5.12265e-29
-4.58565e-29
-3.88952e-29
-3.04539e-29
-2.06746e-29
-9.72971e-30
2.17789e-30
1.48144e-29
2.79143e-29
4.11794e-29
5.4278e-29
6.68444e-29
7.84787e-29
8.87475e-29
9.71854e-29
1.03296e-28
1.06553e-28
1.06402e-28
1.02255e-28
9.34908e-29
7.94396e-29
5.93694e-29
3.24598e-29
-2.23444e-30
-4.58336e-29
-9.97016e-29
-1.65535e-28
-2.45479e-28
-3.42264e-28
-4.59354e-28
-6.0109e-28
-7.7284e-28
-9.81688e-28
-1.24246e-27
-1.62669e-27
-2.78511e-27
-5.27874e-29
-5.26871e-29
-5.08481e-29
-4.74199e-29
-4.24459e-29
-3.59994e-29
-2.8183e-29
-1.91282e-29
-8.99462e-30
2.02997e-30
1.37291e-29
2.5857e-29
3.81377e-29
5.02639e-29
6.18971e-29
7.26671e-29
8.21726e-29
8.99827e-29
9.56377e-29
9.86507e-29
9.85077e-29
9.46658e-29
8.65483e-29
7.35355e-29
5.49492e-29
3.00293e-29
-2.10038e-30
-4.24787e-29
-9.237e-29
-1.53344e-28
-2.27376e-28
-3.16946e-28
-4.25095e-28
-5.55312e-28
-7.10898e-28
-8.93012e-28
-1.09646e-27
-1.30736e-27
-1.71976e-27
-4.84863e-29
-4.83854e-29
-4.66921e-29
-4.35411e-29
-3.89712e-29
-3.30496e-29
-2.58705e-29
-1.75544e-29
-8.24784e-30
1.87667e-30
1.26204e-29
2.37576e-29
3.50349e-29
4.61701e-29
5.68524e-29
6.67416e-29
7.54694e-29
8.26399e-29
8.78311e-29
9.05959e-29
9.04621e-29
8.69312e-29
7.94736e-29
6.752e-29
5.04475e-29
2.75573e-29
-1.95613e-30
-3.9048e-29
-8.48802e-29
-1.40894e-28
-2.08889e-28
-2.91094e-28
-3.90135e-28
-5.08679e-28
-6.4804e-28
-8.03606e-28
-9.5005e-28
-9.8001e-28
-2.67089e-28
-4.41092e-29
-4.40085e-29
-4.24644e-29
-3.95959e-29
-3.54377e-29
-3.00505e-29
-2.35199e-29
-1.59555e-29
-7.49052e-30
1.71818e-30
1.14899e-29
2.16193e-29
3.18758e-29
4.20029e-29
5.17178e-29
6.07112e-29
6.86481e-29
7.51683e-29
7.9888e-29
8.24006e-29
8.22768e-29
7.90629e-29
7.22774e-29
6.14024e-29
4.5871e-29
2.50472e-29
-1.80223e-30
-3.55471e-29
-7.72449e-29
-1.28204e-28
-1.90049e-28
-2.64759e-28
-3.54561e-28
-4.61358e-28
-5.84667e-28
-7.14683e-28
-8.08168e-28
-6.82397e-28
6.35969e-28
-3.96626e-29
-3.95633e-29
-3.81714e-29
-3.55904e-29
-3.18507e-29
-2.70066e-29
-2.11348e-29
-1.4334e-29
-6.72385e-30
1.55473e-30
1.03392e-29
1.94451e-29
2.86651e-29
3.77686e-29
4.65013e-29
5.45852e-29
6.1719e-29
6.75792e-29
7.18205e-29
7.40776e-29
7.39643e-29
7.1073e-29
6.49708e-29
5.51919e-29
4.12265e-29
2.25027e-29
-1.6393e-30
-3.19822e-29
-6.94768e-29
-1.15297e-28
-1.70892e-28
-2.37995e-28
-3.18458e-28
-4.13509e-28
-5.21147e-28
-6.27333e-28
-6.74929e-28
-4.32586e-28
1.14919e-27
-3.51532e-29
-3.50563e-29
-3.38197e-29
-3.15308e-29
-2.82158e-29
-2.39226e-29
-1.87191e-29
-1.26925e-29
-5.94904e-30
1.38654e-30
9.17023e-30
1.72385e-29
2.54078e-29
3.34736e-29
4.12107e-29
4.83728e-29
5.46929e-29
5.98842e-29
6.3641e-29
6.56393e-29
6.55373e-29
6.29737e-29
5.75647e-29
4.88978e-29
3.65211e-29
1.99275e-29
-1.468e-30
-2.83594e-29
-6.15892e-29
-1.02195e-28
-1.51451e-28
-2.10852e-28
-2.81907e-28
-3.65275e-28
-4.57796e-28
-5.42432e-28
-5.53162e-28
-2.36446e-28
1.39454e-27
-3.05875e-29
-3.04946e-29
-2.94161e-29
-2.74234e-29
-2.45386e-29
-2.08032e-29
-1.62762e-29
-1.10335e-29
-5.16727e-30
1.21385e-30
7.98463e-30
1.50028e-29
2.21087e-29
2.91245e-29
3.58542e-29
4.20836e-29
4.75803e-29
5.20951e-29
5.53618e-29
5.70988e-29
5.70087e-29
5.47772e-29
5.00705e-29
4.25297e-29
3.17617e-29
1.73252e-29
-1.28907e-30
-2.4685e-29
-5.35955e-29
-8.89213e-29
-1.3176e-28
-1.83381e-28
-2.44983e-28
-3.1678e-28
-3.94859e-28
-4.60583e-28
-4.44371e-28
-9.29651e-29
1.45e-27
-2.59723e-29
-2.58852e-29
-2.49673e-29
-2.32745e-29
-2.08248e-29
-1.76534e-29
-1.38101e-29
-9.35952e-30
-4.37977e-30
1.03691e-30
6.78423e-30
1.27415e-29
1.8773e-29
2.4728e-29
3.04399e-29
3.57271e-29
4.03922e-29
4.42237e-29
4.69956e-29
4.8469e-29
4.83914e-29
4.64959e-29
4.24994e-29
3.60972e-29
2.69554e-29
1.46994e-29
-1.10326e-30
-2.09654e-29
-4.55091e-29
-7.54971e-29
-1.11854e-28
-1.55629e-28
-2.07755e-28
-2.68126e-28
-3.32501e-28
-3.821e-28
-3.48877e-28
2.77131e-30
1.37614e-27
-2.13143e-29
-2.1235e-29
-2.04802e-29
-1.90904e-29
-1.70801e-29
-1.44778e-29
-1.13246e-29
-7.67313e-30
-3.58775e-30
8.55973e-31
5.57085e-30
1.04578e-29
1.54057e-29
2.02906e-29
2.49761e-29
2.9313e-29
3.31395e-29
3.6282e-29
3.85553e-29
3.97632e-29
3.96985e-29
3.81426e-29
3.48631e-29
2.961e-29
2.21094e-29
1.20539e-29
-9.11403e-31
-1.72072e-29
-3.73438e-29
-6.19455e-29
-9.17652e-29
-1.27645e-28
-1.70283e-28
-2.19387e-28
-2.70808e-28
-3.07008e-28
-2.66018e-28
5.75665e-29
1.2157e-27
-1.66201e-29
-1.65513e-29
-1.59617e-29
-1.48777e-29
-1.33102e-29
-1.12814e-29
-8.82329e-30
-5.97695e-30
-2.79244e-30
6.71312e-31
4.34634e-30
8.15546e-30
1.20119e-29
1.58193e-29
1.94712e-29
2.28512e-29
2.58333e-29
2.82823e-29
3.00536e-29
3.09944e-29
3.09434e-29
2.973e-29
2.7173e-29
2.30778e-29
1.72307e-29
9.39225e-30
-7.14335e-31
-1.34171e-29
-2.91135e-29
-4.82893e-29
-7.15277e-29
-9.94719e-29
-1.32625e-28
-1.70619e-28
-2.09783e-28
-2.35069e-28
-1.94373e-28
7.89187e-29
9.94802e-28
-1.18964e-29
-1.18415e-29
-1.14188e-29
-1.06428e-29
-9.52092e-30
-8.06912e-30
-6.3102e-30
-4.27357e-30
-1.99505e-30
4.83202e-31
3.11257e-30
5.83782e-30
8.59692e-30
1.13208e-29
1.39334e-29
1.63515e-29
1.84848e-29
2.02366e-29
2.15036e-29
2.21763e-29
2.21393e-29
2.12707e-29
1.94409e-29
1.65105e-29
1.23268e-29
6.71829e-30
-5.12932e-31
-9.60159e-30
-2.0832e-29
-3.45512e-29
-5.11743e-29
-7.11542e-29
-9.48269e-29
-1.21853e-28
-1.49361e-28
-1.65824e-28
-1.31956e-28
7.45184e-29
7.35289e-28
-7.14983e-30
-7.11292e-30
-6.85868e-30
-6.39224e-30
-5.71813e-30
-4.84586e-30
-3.78913e-30
-2.56562e-30
-1.19682e-30
2.91928e-31
1.87143e-30
3.5085e-30
5.16587e-30
6.80208e-30
8.3714e-30
9.82383e-30
1.11052e-29
1.21574e-29
1.29182e-29
1.33222e-29
1.32998e-29
1.27778e-29
1.16785e-29
9.91802e-30
7.40476e-30
4.03568e-30
-3.08093e-31
-5.76756e-30
-1.25134e-29
-2.0754e-29
-3.07376e-29
-4.27334e-29
-5.69333e-29
-7.31018e-29
-8.94127e-29
-9.86342e-29
-7.6379e-29
5.19118e-29
4.49979e-28
-2.3867e-30
-2.37326e-30
-2.28835e-30
-2.13265e-30
-1.90767e-30
-1.61658e-30
-1.26396e-30
-8.55693e-31
-3.98961e-31
9.77871e-32
6.2481e-31
1.17104e-30
1.72404e-30
2.26998e-30
2.7936e-30
3.27823e-30
3.70579e-30
4.05687e-30
4.31077e-30
4.44559e-30
4.43819e-30
4.26413e-30
3.89746e-30
3.31026e-30
2.47194e-30
1.34816e-30
-1.00734e-31
-1.92176e-30
-4.17183e-30
-6.92037e-30
-1.02501e-29
-1.42502e-29
-1.8983e-29
-2.43645e-29
-2.97684e-29
-3.27303e-29
-2.49938e-29
1.84952e-29
1.51115e-28
-1.08215e-20
-5.92417e-21
-3.60632e-21
-1.31457e-21
-1.51097e-21
-6.12136e-22
-3.23701e-22
-1.70956e-22
-1.06283e-22
-8.64448e-23
-3.28881e-23
-1.68368e-23
-9.48246e-24
-6.30064e-24
-4.29858e-24
-1.59491e-24
-7.41764e-25
-3.53175e-25
-1.51347e-25
-2.12567e-26
1.0912e-25
1.47698e-25
1.61689e-25
1.65826e-25
1.65426e-25
)
;

boundaryField
{
    fixedWallsLeftTop
    {
        type            zeroGradient;
    }
    backFaceLeftTop
    {
        type            zeroGradient;
    }
    frontFaceLeftTop
    {
        type            zeroGradient;
    }
    symmetryWallLeftTop
    {
        type            fixedValue;
        value           uniform 0;
    }
    topToBottom
    {
        type            zeroGradient;
    }
    plug
    {
        type            cyclicAMI;
        value           nonuniform List<scalar> 
40
(
6.5365e-26
6.55153e-26
6.57402e-26
6.60039e-26
7.52531e-26
6.65937e-26
6.64842e-26
6.64097e-26
6.65416e-26
6.65466e-26
6.65581e-26
6.66478e-26
6.67786e-26
7.55942e-26
6.63476e-26
6.61171e-26
6.4547e-26
6.44359e-26
6.43346e-26
6.42432e-26
6.42336e-26
6.4268e-26
7.27139e-26
6.31197e-26
5.81443e-26
5.78839e-26
5.77089e-26
5.75492e-26
5.7405e-26
5.73482e-26
5.73414e-26
6.52959e-26
3.93061e-26
3.90313e-26
3.88238e-26
3.87198e-26
3.86536e-26
3.86248e-26
3.86698e-26
3.87754e-26
)
;
    }
    fixedWallsChannel
    {
        type            zeroGradient;
    }
    inlet
    {
        type            zeroGradient;
    }
    outlet
    {
        type            cyclicAMI;
        value           nonuniform List<scalar> 5(6.74635e-26 6.79296e-26 6.55079e-26 5.88278e-26 3.88256e-26);
    }
    backFaceInletChannel
    {
        type            zeroGradient;
    }
    frontFaceInletChannel
    {
        type            zeroGradient;
    }
}


// ************************************************************************* //
