/*--------------------------------*- C++ -*----------------------------------*\
| =========                 |                                                 |
| \\      /  F ield         | OpenFOAM: The Open Source CFD Toolbox           |
|  \\    /   O peration     | Version:  4.1                                   |
|   \\  /    A nd           | Web:      www.OpenFOAM.org                      |
|    \\/     M anipulation  |                                                 |
\*---------------------------------------------------------------------------*/
FoamFile
{
    version     2.0;
    format      ascii;
    class       volVectorField;
    location    "2";
    object      U;
}
// * * * * * * * * * * * * * * * * * * * * * * * * * * * * * * * * * * * * * //

dimensions      [0 1 -1 0 0 0 0];

internalField   nonuniform List<vector> 
1705
(
(-9.54876e-63 -2.43932e-28 -2.86445e-31)
(-2.86751e-61 -6.68735e-30 4.14666e-30)
(-8.2559e-63 -2.45364e-28 8.4384e-30)
(7.44299e-60 -4.83482e-28 3.06426e-30)
(7.86619e-57 -2.32376e-28 -4.26451e-30)
(6.23389e-54 -1.50348e-29 2.32946e-29)
(2.8376e-52 -2.75277e-28 5.06643e-30)
(2.28807e-49 -4.90728e-28 -7.33693e-30)
(7.8405e-47 -2.22188e-28 -7.98392e-30)
(3.64086e-44 -2.92136e-29 4.38663e-29)
(7.78401e-47 -3.09569e-28 6.8169e-31)
(1.81352e-49 -2.40241e-28 -1.35088e-30)
(3.69534e-51 -5.32144e-29 5.87091e-29)
(1.02161e-53 -3.37405e-28 1.27182e-29)
(4.47588e-51 -5.23986e-28 -1.19374e-30)
(3.12573e-48 -2.52543e-28 -6.72391e-30)
(4.05582e-47 -9.09068e-29 8.70731e-29)
(7.41547e-44 -3.9748e-28 8.38231e-30)
(4.11047e-46 -2.95113e-28 5.4421e-31)
(2.99544e-48 -1.39056e-28 1.17723e-28)
(1.86226e-49 -4.53282e-28 2.56859e-29)
(2.10318e-46 -6.04424e-28 6.27571e-30)
(7.04805e-44 -3.38256e-28 -7.33324e-30)
(2.18381e-47 -2.03598e-28 1.64705e-28)
(1.90946e-48 -5.45712e-28 2.09508e-29)
(-1.01628e-45 -6.68932e-28 -7.30365e-30)
(-2.00415e-43 -3.95784e-28 -1.80337e-29)
(9.61225e-46 -2.80293e-28 2.24277e-28)
(-8.08055e-44 -6.54935e-28 1.26426e-29)
(-6.32521e-46 -4.94715e-28 -7.97131e-30)
(-5.55966e-47 -3.73694e-28 3.05688e-28)
(-2.04986e-43 -7.73527e-28 4.15833e-29)
(-1.0275e-45 -8.78083e-28 1.50981e-30)
(-2.02043e-43 -6.06626e-28 -2.39452e-29)
(-5.31689e-47 -4.95635e-28 4.11094e-28)
(-7.97957e-48 -9.5273e-28 3.20727e-29)
(5.83253e-45 -7.74178e-28 -6.37814e-30)
(9.75601e-42 -6.46626e-28 5.6404e-28)
(6.03114e-40 -1.16224e-27 7.87877e-29)
(1.33922e-36 -1.29838e-27 2.36412e-29)
(1.27272e-35 -1.44685e-27 1.67743e-27)
(1.17282e-35 -1.75548e-27 1.64159e-27)
(7.85396e-36 -1.71569e-27 1.60572e-27)
(-1.31103e-33 1.54343e-26 3.2579e-27)
(2.53671e-34 -3.72236e-28 2.56026e-27)
(-1.30768e-33 -1.69462e-26 2.98464e-27)
(6.17744e-36 -4.24866e-28 1.69275e-27)
(5.76494e-36 -3.81359e-28 1.67892e-27)
(-7.77819e-35 -6.75413e-28 2.07163e-27)
(-7.44772e-35 -8.5782e-28 2.05865e-27)
(-7.55567e-35 -1.16472e-27 2.01969e-27)
(-8.94555e-35 -1.13811e-27 1.99946e-27)
(-4.00541e-33 1.6042e-26 3.58312e-27)
(7.41852e-34 1.06726e-28 2.73167e-27)
(-3.98846e-33 -1.64973e-26 3.42863e-27)
(2.34433e-35 6.32421e-29 2.07686e-27)
(1.85814e-34 9.38623e-29 2.40416e-27)
(8.00191e-35 -2.11912e-28 2.41869e-27)
(7.9842e-35 -3.99207e-28 2.40939e-27)
(8.01971e-35 -7.1047e-28 2.38488e-27)
(1.3421e-34 -6.85986e-28 2.37753e-27)
(1.61033e-32 1.65092e-26 3.88686e-27)
(-3.05402e-33 4.03272e-28 2.815e-27)
(1.58918e-32 -1.61904e-26 3.86925e-27)
(-1.19121e-34 4.82674e-28 2.61614e-27)
(3.14591e-35 4.89733e-28 2.62692e-27)
(3.31665e-35 1.66182e-28 2.64475e-27)
(3.43505e-35 -3.3823e-29 2.647e-27)
(3.54471e-35 -3.60271e-28 2.63407e-27)
(1.19233e-35 -3.45564e-28 2.63629e-27)
(-6.8211e-33 1.68441e-26 4.06461e-27)
(9.95529e-34 1.58908e-27 2.72295e-27)
(-3.56371e-33 -1.49813e-26 3.9483e-27)
(-5.82229e-35 6.10732e-28 2.53705e-27)
(-4.80966e-35 5.53792e-28 2.5455e-27)
(-4.86912e-35 1.75213e-28 2.56743e-27)
(-4.93181e-35 -7.95466e-29 2.57052e-27)
(-4.99623e-35 -3.99959e-28 2.55842e-27)
(-5.65812e-35 -5.47267e-28 2.54519e-27)
(-2.03673e-33 7.91912e-27 3.17424e-27)
(1.28596e-34 6.43071e-27 4.48569e-28)
(2.26151e-39 -1.82728e-28 -5.50192e-29)
(1.03356e-40 -1.24689e-28 6.87852e-30)
(2.29936e-43 -7.63791e-29 -5.10948e-29)
(6.91176e-47 -8.51026e-29 1.8043e-30)
(2.71635e-48 -7.62769e-29 -4.90982e-29)
(2.47278e-48 -9.77535e-29 -3.85434e-29)
(1.62627e-47 -4.34971e-29 1.40139e-30)
(1.88812e-43 -6.48418e-29 -3.81753e-29)
(-1.82635e-43 -6.6032e-29 -3.04531e-29)
(-6.15312e-47 -3.94512e-29 1.36933e-31)
(-1.91694e-48 -2.7383e-29 -3.1643e-29)
(-1.24624e-47 -3.82483e-29 -2.04339e-30)
(6.71884e-44 -6.5259e-29 -3.21741e-29)
(-1.90479e-43 -3.65402e-29 -2.6175e-29)
(-6.25177e-47 -3.55006e-29 -2.57218e-30)
(-3.29233e-48 -2.7978e-29 -2.64206e-29)
(-3.3449e-44 -3.9203e-29 -4.42509e-30)
(1.68977e-43 -6.25292e-29 -2.69695e-29)
(-1.74542e-43 -1.74416e-29 -2.19091e-29)
(-5.9914e-47 -3.60809e-29 -3.96364e-30)
(-2.35537e-48 -6.10577e-29 -2.15703e-29)
(-2.35713e-48 -1.40875e-29 -1.81172e-29)
(-5.52067e-47 -3.33153e-29 -2.49987e-30)
(-1.78404e-43 -2.88422e-29 -1.75646e-29)
(-5.52503e-47 -3.7618e-29 -3.82736e-30)
(-2.37086e-48 -4.84761e-29 -1.68566e-29)
(-2.38179e-48 -7.95287e-30 -1.3787e-29)
(-5.85362e-47 -2.42066e-29 -2.1458e-30)
(-1.77584e-43 -2.23737e-29 -1.35117e-29)
(-1.15211e-46 -2.6875e-29 -2.88617e-30)
(-1.68432e-43 -3.05602e-29 -1.30251e-29)
(-2.02935e-47 -5.39175e-30 -1.06867e-29)
(-6.16872e-47 -1.53108e-29 -1.31462e-30)
(-1.78978e-43 -1.94051e-29 -1.04397e-29)
(-1.91856e-47 -6.48677e-30 -9.07565e-30)
(-1.11218e-48 7.21286e-31 1.84694e-31)
(-2.34116e-48 -3.98139e-30 -9.44326e-30)
(-5.75612e-47 5.81722e-31 9.3626e-31)
(-1.67967e-43 6.01365e-30 -9.57899e-30)
(-9.91416e-297 2.18204e-33 -1.09102e-32)
(-5.65811e-290 2.38645e-33 -2.84124e-32)
(-3.18898e-283 2.56217e-33 -4.25694e-32)
(-1.77412e-276 2.75417e-33 -5.85741e-32)
(-9.73724e-270 3.00626e-33 -7.66301e-32)
(-5.2695e-263 3.33243e-33 -9.74133e-32)
(-2.81012e-256 3.7463e-33 -1.21742e-31)
(-1.47578e-249 4.26437e-33 -1.50593e-31)
(-7.62724e-243 4.90711e-33 -1.85135e-31)
(-3.87649e-236 5.69989e-33 -2.26778e-31)
(-1.93594e-229 6.6739e-33 -2.77227e-31)
(-9.492e-223 7.86745e-33 -3.38544e-31)
(-4.56492e-216 9.32741e-33 -4.13235e-31)
(-2.15122e-209 1.11111e-32 -5.04336e-31)
(-9.92286e-203 1.32883e-32 -6.15532e-31)
(-4.47483e-196 1.59441e-32 -7.51293e-31)
(-1.97033e-189 1.91818e-32 -9.17039e-31)
(-8.45869e-183 2.31267e-32 -1.11934e-30)
(-3.53501e-176 2.79303e-32 -1.36614e-30)
(-1.43564e-169 3.37761e-32 -1.66707e-30)
(-5.65504e-163 4.08848e-32 -2.03378e-30)
(-2.15589e-156 4.95211e-32 -2.48029e-30)
(-7.93549e-150 5.99987e-32 -3.02355e-30)
(-2.81257e-143 7.26858e-32 -3.68385e-30)
(-9.56935e-137 8.80059e-32 -4.48543e-30)
(-3.11453e-130 1.06427e-31 -5.45696e-30)
(-9.65795e-124 1.28441e-31 -6.63188e-30)
(-2.84013e-117 1.54492e-31 -8.04826e-30)
(-7.87741e-111 1.84847e-31 -9.74771e-30)
(-2.04746e-104 2.19326e-31 -1.17722e-29)
(-4.94849e-98 2.56779e-31 -1.41572e-29)
(-1.10167e-91 2.94121e-31 -1.69167e-29)
(-2.23287e-85 3.24599e-31 -2.00156e-29)
(-4.05899e-79 3.34969e-31 -2.33189e-29)
(-6.48936e-73 3.01726e-31 -2.6508e-29)
(-8.88336e-67 1.88343e-31 -2.89641e-29)
(-1.00169e-60 -4.97653e-32 -2.96632e-29)
(-8.75762e-55 -4.38601e-31 -2.72276e-29)
(-5.3331e-49 -9.71555e-31 -2.13295e-29)
(-1.4576e-300 7.6271e-33 -1.08705e-32)
(-8.23633e-294 8.18737e-33 -2.83407e-32)
(-4.59499e-287 8.701e-33 -4.25036e-32)
(-2.52971e-280 9.29003e-33 -5.84961e-32)
(-1.37361e-273 1.00594e-32 -7.65282e-32)
(-7.3521e-267 1.10492e-32 -9.72819e-32)
(-3.87661e-260 1.22991e-32 -1.21576e-31)
(-2.01235e-253 1.38574e-32 -1.50385e-31)
(-1.02769e-246 1.57843e-32 -1.84878e-31)
(-5.15941e-240 1.81545e-32 -2.26463e-31)
(-2.54431e-233 2.10605e-32 -2.76839e-31)
(-1.23138e-226 2.4616e-32 -3.3807e-31)
(-5.84332e-220 2.89605e-32 -4.12654e-31)
(-2.71598e-213 3.42649e-32 -5.03626e-31)
(-1.23513e-206 4.0738e-32 -6.14664e-31)
(-5.48899e-200 4.86344e-32 -7.50235e-31)
(-2.38062e-193 5.8264e-32 -9.15748e-31)
(-1.00618e-186 7.00032e-32 -1.11776e-30)
(-4.13768e-180 8.43083e-32 -1.36422e-30)
(-1.65258e-173 1.01731e-31 -1.66474e-30)
(-6.39799e-167 1.22934e-31 -2.03093e-30)
(-2.39577e-160 1.48715e-31 -2.47684e-30)
(-8.65577e-154 1.80017e-31 -3.01937e-30)
(-3.00899e-147 2.17949e-31 -3.6788e-30)
(-1.00329e-140 2.63782e-31 -4.47936e-30)
(-3.1972e-134 3.1893e-31 -5.4497e-30)
(-9.69736e-128 3.84867e-31 -6.62326e-30)
(-2.78608e-121 4.62935e-31 -8.03818e-30)
(-7.53946e-115 5.53952e-31 -9.73619e-30)
(-1.9089e-108 6.57396e-31 -1.17596e-29)
(-4.48544e-102 7.69864e-31 -1.41443e-29)
(-9.68469e-96 8.8216e-31 -1.69056e-29)
(-1.89755e-89 9.74121e-31 -2.00103e-29)
(-3.31974e-83 1.00615e-30 -2.33269e-29)
(-5.07429e-77 9.07832e-31 -2.65412e-29)
(-6.57108e-71 5.69483e-31 -2.90386e-29)
(-6.87705e-65 -1.43674e-31 -2.97928e-29)
(-5.35727e-59 -1.31093e-30 -2.74159e-29)
(-2.58032e-53 -2.73128e-30 -2.11808e-29)
(7.37448e-298 1.40991e-32 -1.07994e-32)
(4.20478e-291 1.49128e-32 -2.82019e-32)
(2.36683e-284 1.5731e-32 -4.23566e-32)
(1.31454e-277 1.67257e-32 -5.83133e-32)
(7.19998e-271 1.80228e-32 -7.6292e-32)
(3.88668e-264 1.96847e-32 -9.6982e-32)
(2.06655e-257 2.1776e-32 -1.21201e-31)
(1.08154e-250 2.4376e-32 -1.4992e-31)
(5.56748e-244 2.75833e-32 -1.84306e-31)
(2.81681e-237 3.15207e-32 -2.25761e-31)
(1.39952e-230 3.63407e-32 -2.75981e-31)
(6.82243e-224 4.22311e-32 -3.37021e-31)
(3.26e-217 4.9423e-32 -4.11373e-31)
(1.52533e-210 5.82e-32 -5.02062e-31)
(6.98045e-204 6.89089e-32 -6.12757e-31)
(3.12064e-197 8.19735e-32 -7.47908e-31)
(1.36101e-190 9.79099e-32 -9.1291e-31)
(5.78228e-184 1.17346e-31 -1.1143e-30)
(2.3892e-177 1.41042e-31 -1.36e-30)
(9.584e-171 1.6992e-31 -1.6596e-30)
(3.725e-164 2.05087e-31 -2.02468e-30)
(1.39971e-157 2.47872e-31 -2.46925e-30)
(5.07238e-151 2.99853e-31 -3.01015e-30)
(1.76788e-144 3.62879e-31 -3.66765e-30)
(5.90749e-138 4.39076e-31 -4.46591e-30)
(1.88591e-131 5.30805e-31 -5.43357e-30)
(5.72843e-125 6.40535e-31 -6.60408e-30)
(1.64778e-118 7.70526e-31 -8.01565e-30)
(4.46391e-112 9.22177e-31 -9.71026e-30)
(1.13151e-105 1.09469e-30 -1.17308e-29)
(2.66278e-99 1.28253e-30 -1.41143e-29)
(5.76275e-93 1.4706e-30 -1.68783e-29)
(1.13351e-86 1.62563e-30 -1.99937e-29)
(1.99637e-80 1.6821e-30 -2.33356e-29)
(3.08737e-74 1.52305e-30 -2.65992e-29)
(4.08261e-68 9.65129e-31 -2.91786e-29)
(4.44389e-62 -2.19768e-31 -3.00435e-29)
(3.75403e-56 -2.17405e-30 -2.7749e-29)
(2.22074e-50 -4.46201e-30 -2.0922e-29)
(-9.49092e-297 2.04637e-32 -1.07078e-32)
(-5.41747e-290 2.14524e-32 -2.80143e-32)
(-3.05392e-283 2.25442e-32 -4.21411e-32)
(-1.69934e-276 2.39361e-32 -5.80378e-32)
(-9.32899e-270 2.57553e-32 -7.59364e-32)
(-5.04987e-263 2.80839e-32 -9.65313e-32)
(-2.69376e-256 3.10113e-32 -1.20638e-31)
(-1.41512e-249 3.46473e-32 -1.49224e-31)
(-7.31617e-243 3.91292e-32 -1.8345e-31)
(-3.71977e-236 4.46281e-32 -2.24711e-31)
(-1.85842e-229 5.13561e-32 -2.74697e-31)
(-9.11585e-223 5.95754e-32 -3.35453e-31)
(-4.38608e-216 6.96085e-32 -4.0946e-31)
(-2.06798e-209 8.18513e-32 -4.99728e-31)
(-9.54405e-203 9.67884e-32 -6.0991e-31)
(-4.30649e-196 1.15012e-31 -7.44434e-31)
(-1.89737e-189 1.37244e-31 -9.08673e-31)
(-8.15085e-183 1.64362e-31 -1.10914e-30)
(-3.40874e-176 1.97432e-31 -1.35371e-30)
(-1.38539e-169 2.37741e-31 -1.65193e-30)
(-5.46135e-163 2.86841e-31 -2.01534e-30)
(-2.08377e-156 3.46592e-31 -2.45789e-30)
(-7.67671e-150 4.19201e-31 -2.99637e-30)
(-2.72334e-143 5.0726e-31 -3.65096e-30)
(-9.27465e-137 6.1375e-31 -4.44577e-30)
(-3.02164e-130 7.41984e-31 -5.40941e-30)
(-9.37979e-124 8.95438e-31 -6.57532e-30)
(-2.76136e-117 1.07732e-30 -7.98185e-30)
(-7.66771e-111 1.28965e-30 -9.67135e-30)
(-1.99535e-104 1.53147e-30 -1.16875e-29)
(-4.82865e-98 1.7953e-30 -1.40691e-29)
(-1.07644e-91 2.06046e-30 -1.68369e-29)
(-2.18494e-85 2.28118e-30 -1.9968e-29)
(-3.97847e-79 2.36679e-30 -2.33474e-29)
(-6.37339e-73 2.15433e-30 -2.66846e-29)
(-8.7478e-67 1.38595e-30 -2.93872e-29)
(-9.90334e-61 -2.64947e-31 -3.04207e-29)
(-8.71789e-55 -3.02379e-30 -2.82643e-29)
(-5.38194e-49 -6.53767e-30 -2.15563e-29)
(3.08774e-298 2.67241e-32 -1.06016e-32)
(1.76028e-291 2.78447e-32 -2.77858e-32)
(9.90668e-285 2.91941e-32 -4.18599e-32)
(5.50119e-278 3.09757e-32 -5.76711e-32)
(3.0125e-271 3.33114e-32 -7.54625e-32)
(1.62586e-264 3.63012e-32 -9.59308e-32)
(8.6428e-258 4.00586e-32 -1.19888e-31)
(4.52219e-251 4.47239e-32 -1.48297e-31)
(2.32731e-244 5.0473e-32 -1.8231e-31)
(1.17716e-237 5.7525e-32 -2.23315e-31)
(5.84698e-231 6.61518e-32 -2.72991e-31)
(2.84943e-224 7.66894e-32 -3.3337e-31)
(1.36111e-217 8.95514e-32 -4.06918e-31)
(6.36624e-211 1.05246e-31 -4.96626e-31)
(2.91231e-204 1.24394e-31 -6.06125e-31)
(1.30143e-197 1.47757e-31 -7.39817e-31)
(5.67342e-191 1.76259e-31 -9.0304e-31)
(2.40921e-184 2.11029e-31 -1.10227e-30)
(9.94952e-178 2.53434e-31 -1.34533e-30)
(3.98891e-171 3.05127e-31 -1.64172e-30)
(1.54942e-164 3.68102e-31 -2.00291e-30)
(5.81828e-158 4.44746e-31 -2.44278e-30)
(2.10697e-151 5.37897e-31 -2.97802e-30)
(7.3377e-145 6.50888e-31 -3.62874e-30)
(2.44986e-138 7.87555e-31 -4.41896e-30)
(7.81362e-132 9.52173e-31 -5.37723e-30)
(2.37094e-125 1.14924e-30 -6.53701e-30)
(6.81229e-119 1.38293e-30 -7.9368e-30)
(1.84318e-112 1.656e-30 -9.61943e-30)
(4.66559e-106 1.96744e-30 -1.16297e-29)
(1.09626e-99 2.30808e-30 -1.40085e-29)
(2.36838e-93 2.65218e-30 -1.67811e-29)
(4.64937e-87 2.94223e-30 -1.99324e-29)
(8.17019e-81 3.06348e-30 -2.33609e-29)
(1.26024e-74 2.80792e-30 -2.67953e-29)
(1.6614e-68 1.84214e-30 -2.96625e-29)
(1.80173e-62 -2.65693e-31 -3.09255e-29)
(1.51459e-56 -3.84333e-30 -2.90036e-29)
(8.88944e-51 -8.55408e-30 -2.26552e-29)
(8.93623e-299 3.28851e-32 -1.04837e-32)
(-2.56274e-292 3.41191e-32 -2.75203e-32)
(-5.97029e-285 3.57188e-32 -4.15149e-32)
(-5.95807e-278 3.78834e-32 -5.72143e-32)
(-4.78424e-271 4.073e-32 -7.48713e-32)
(-3.44574e-264 4.4375e-32 -9.51818e-32)
(-2.3147e-257 4.89555e-32 -1.18953e-31)
(-1.47711e-250 5.46423e-32 -1.47141e-31)
(-9.04294e-244 6.16493e-32 -1.80889e-31)
(-5.34167e-237 7.02436e-32 -2.21575e-31)
(-3.05501e-230 8.07566e-32 -2.70864e-31)
(-1.6952e-223 9.35976e-32 -3.30773e-31)
(-9.13722e-217 1.09271e-31 -4.03749e-31)
(-4.7867e-210 1.28395e-31 -4.9276e-31)
(-2.43742e-203 1.5173e-31 -6.01408e-31)
(-1.2061e-196 1.802e-31 -7.34061e-31)
(-5.79618e-190 2.14935e-31 -8.96019e-31)
(-2.70298e-183 2.57311e-31 -1.0937e-30)
(-1.22182e-176 3.08994e-31 -1.33489e-30)
(-5.34623e-170 3.72002e-31 -1.62899e-30)
(-2.26082e-163 4.48767e-31 -1.98742e-30)
(-9.22245e-157 5.42203e-31 -2.42393e-30)
(-3.62107e-150 6.55776e-31 -2.95514e-30)
(-1.36503e-143 7.93558e-31 -3.60102e-30)
(-4.92604e-137 9.60243e-31 -4.38551e-30)
(-1.69606e-130 1.16108e-30 -5.33707e-30)
(-5.54976e-124 1.40159e-30 -6.48917e-30)
(-1.71797e-117 1.68701e-30 -7.8805e-30)
(-5.00421e-111 2.02085e-30 -9.55445e-30)
(-1.36289e-104 2.40228e-30 -1.15571e-29)
(-3.44402e-98 2.82078e-30 -1.39322e-29)
(-7.99976e-92 3.24612e-30 -1.67101e-29)
(-1.68826e-85 3.61008e-30 -1.98858e-29)
(-3.18942e-79 3.7753e-30 -2.33743e-29)
(-5.28988e-73 3.48996e-30 -2.69288e-29)
(-7.50088e-67 2.34404e-30 -3.00019e-29)
(-8.75176e-61 -2.07542e-31 -3.15578e-29)
(-7.91529e-55 -4.61757e-30 -2.9922e-29)
(-4.99178e-49 -1.08029e-29 -2.3476e-29)
(-2.10869e-298 3.89508e-32 -1.03548e-32)
(-1.98272e-291 4.02937e-32 -2.72191e-32)
(-1.57761e-284 4.21406e-32 -4.1107e-32)
(-1.14565e-277 4.46822e-32 -5.66688e-32)
(-7.82643e-271 4.80339e-32 -7.41642e-32)
(-5.1057e-264 5.23275e-32 -9.42857e-32)
(-3.20743e-257 5.77233e-32 -1.17835e-31)
(-1.95001e-250 6.44223e-32 -1.45758e-31)
(-1.15089e-243 7.26763e-32 -1.7919e-31)
(-6.60648e-237 8.27998e-32 -2.19494e-31)
(-3.69264e-230 9.5183e-32 -2.6832e-31)
(-2.01088e-223 1.10308e-31 -3.27667e-31)
(-1.06707e-216 1.2877e-31 -3.99958e-31)
(-5.51692e-210 1.51297e-31 -4.88134e-31)
(-2.7779e-203 1.78783e-31 -5.95764e-31)
(-1.36137e-196 2.1232e-31 -7.27176e-31)
(-6.4879e-190 2.53239e-31 -8.87618e-31)
(-3.00358e-183 3.0316e-31 -1.08345e-30)
(-1.34906e-176 3.64047e-31 -1.32239e-30)
(-5.86995e-170 4.38281e-31 -1.61377e-30)
(-2.47004e-163 5.28729e-31 -1.96887e-30)
(-1.0032e-156 6.38827e-31 -2.40137e-30)
(-3.92375e-150 7.72669e-31 -2.92775e-30)
(-1.4741e-143 9.35063e-31 -3.56785e-30)
(-5.30373e-137 1.13157e-30 -4.34546e-30)
(-1.8213e-130 1.3684e-30 -5.28896e-30)
(-5.9459e-124 1.65217e-30 -6.43182e-30)
(-1.83695e-117 1.98917e-30 -7.81295e-30)
(-5.34167e-111 2.38383e-30 -9.47638e-30)
(-1.45272e-104 2.83568e-30 -1.14697e-29)
(-3.66663e-98 3.33324e-30 -1.38397e-29)
(-8.50862e-92 3.84256e-30 -1.66232e-29)
(-1.79426e-85 4.28592e-30 -1.98266e-29)
(-3.38757e-79 4.50517e-30 -2.3385e-29)
(-5.61555e-73 4.20645e-30 -2.70816e-29)
(-7.95832e-67 2.9022e-30 -3.0402e-29)
(-9.27889e-61 -7.49443e-32 -3.23178e-29)
(-8.38412e-55 -5.32085e-30 -3.11226e-29)
(-5.28676e-49 -1.29836e-29 -2.55152e-29)
(-2.13396e-304 4.49235e-32 -1.02151e-32)
(-1.21885e-295 4.63776e-32 -2.68824e-32)
(-1.38508e-288 4.847e-32 -4.06371e-32)
(-1.16876e-281 5.1383e-32 -5.60357e-32)
(-8.65274e-275 5.52334e-32 -7.33423e-32)
(-5.92107e-268 6.01683e-32 -9.32439e-32)
(-3.83195e-261 6.63707e-32 -1.16534e-31)
(-2.37346e-254 7.40713e-32 -1.4415e-31)
(-1.41656e-247 8.35593e-32 -1.77214e-31)
(-8.17998e-241 9.51963e-32 -2.17074e-31)
(-4.5815e-234 1.09431e-31 -2.65363e-31)
(-2.49252e-227 1.26818e-31 -3.24056e-31)
(-1.3182e-220 1.4804e-31 -3.95551e-31)
(-6.77888e-214 1.73937e-31 -4.82757e-31)
(-3.38937e-207 2.05534e-31 -5.89203e-31)
(-1.64695e-200 2.44088e-31 -7.1917e-31)
(-7.77215e-194 2.91129e-31 -8.77851e-31)
(-3.55869e-187 3.48521e-31 -1.07154e-30)
(-1.57911e-180 4.18524e-31 -1.30786e-30)
(-6.78093e-174 5.03875e-31 -1.59606e-30)
(-2.81315e-167 6.07874e-31 -1.94731e-30)
(-1.12532e-160 7.34479e-31 -2.37514e-30)
(-4.33071e-154 8.88403e-31 -2.89589e-30)
(-1.59926e-147 1.0752e-30 -3.52924e-30)
(-5.65014e-141 1.30127e-30 -4.29885e-30)
(-1.90317e-134 1.57385e-30 -5.23295e-30)
(-6.08748e-128 1.90064e-30 -6.36501e-30)
(-1.84035e-121 2.28905e-30 -7.73417e-30)
(-5.22957e-115 2.74455e-30 -9.38515e-30)
(-1.38762e-108 3.26727e-30 -1.13672e-29)
(-3.4108e-102 3.84527e-30 -1.37308e-29)
(-7.69062e-96 4.44167e-30 -1.65196e-29)
(-1.57123e-89 4.97077e-30 -1.97533e-29)
(-2.86276e-83 5.25579e-30 -2.33902e-29)
(-4.55355e-77 4.96316e-30 -2.72494e-29)
(-6.13649e-71 3.52727e-30 -3.08582e-29)
(-6.69529e-65 1.48529e-31 -3.32024e-29)
(-5.47279e-59 -5.92752e-30 -3.25037e-29)
(-2.83671e-53 -1.46956e-29 -2.72259e-29)
(3.22606e-300 5.08029e-32 -1.0064e-32)
(1.77896e-293 5.2373e-32 -2.65098e-32)
(9.67158e-287 5.47095e-32 -4.01059e-32)
(5.18079e-280 5.79882e-32 -5.53161e-32)
(2.73257e-273 6.23305e-32 -7.24071e-32)
(1.41812e-266 6.78986e-32 -9.20582e-32)
(7.23566e-260 7.48978e-32 -1.15054e-31)
(3.62666e-253 8.35877e-32 -1.4232e-31)
(1.78402e-246 9.42951e-32 -1.74965e-31)
(8.6045e-240 1.07428e-31 -2.1432e-31)
(4.06453e-233 1.23492e-31 -2.61996e-31)
(1.87817e-226 1.43114e-31 -3.19945e-31)
(8.47858e-220 1.67065e-31 -3.90535e-31)
(3.73368e-213 1.96291e-31 -4.76636e-31)
(1.60125e-206 2.31951e-31 -5.81734e-31)
(6.67555e-200 2.75464e-31 -7.10057e-31)
(2.69958e-193 3.28558e-31 -8.66731e-31)
(1.0564e-186 3.93335e-31 -1.05797e-30)
(3.98877e-180 4.72348e-31 -1.29132e-30)
(1.44829e-173 5.6869e-31 -1.5759e-30)
(5.03587e-167 6.86089e-31 -1.92275e-30)
(1.66817e-160 8.29018e-31 -2.34527e-30)
(5.22878e-154 1.00281e-30 -2.85961e-30)
(1.53639e-147 1.21375e-30 -3.48527e-30)
(4.17383e-141 1.46912e-30 -4.24573e-30)
(1.02466e-134 1.77714e-30 -5.16909e-30)
(2.17417e-128 2.14665e-30 -6.28879e-30)
(3.54815e-122 2.58625e-30 -7.64417e-30)
(2.27181e-116 3.1026e-30 -9.28073e-30)
(-1.28403e-109 3.69668e-30 -1.12495e-29)
(-7.38565e-103 4.35659e-30 -1.36048e-29)
(-2.53634e-96 5.04351e-30 -1.63981e-29)
(-6.80968e-90 5.66541e-30 -1.96638e-29)
(-1.51244e-83 6.02953e-30 -2.33865e-29)
(-2.80248e-77 5.7656e-30 -2.74273e-29)
(-4.26896e-71 4.23007e-30 -3.13649e-29)
(-5.15477e-65 4.80047e-31 -3.42088e-29)
(-4.59387e-59 -6.42659e-30 -3.40915e-29)
(-2.57197e-53 -1.65674e-29 -2.89269e-29)
(1.86255e-296 5.65869e-32 -9.90112e-33)
(1.03989e-289 5.82779e-32 -2.61011e-32)
(5.72474e-283 6.08564e-32 -3.95141e-32)
(3.10552e-276 6.44951e-32 -5.45115e-32)
(1.65895e-269 6.93221e-32 -7.13602e-32)
(8.72039e-263 7.55143e-32 -9.07305e-32)
(4.50714e-256 8.32991e-32 -1.13396e-31)
(2.28854e-249 9.2965e-32 -1.40271e-31)
(1.14052e-242 1.04875e-31 -1.72446e-31)
(5.57307e-236 1.19483e-31 -2.11235e-31)
(2.66716e-229 1.37352e-31 -2.58225e-31)
(1.24862e-222 1.59179e-31 -3.15341e-31)
(5.71011e-216 1.85822e-31 -3.84916e-31)
(2.54698e-209 2.18333e-31 -4.6978e-31)
(1.10618e-202 2.58002e-31 -5.73368e-31)
(4.66865e-196 3.06408e-31 -6.99849e-31)
(1.91046e-189 3.65473e-31 -8.54277e-31)
(7.55987e-183 4.37537e-31 -1.04278e-30)
(2.88373e-176 5.25443e-31 -1.27279e-30)
(1.05631e-169 6.32632e-31 -1.55331e-30)
(3.69775e-163 7.63256e-31 -1.89524e-30)
(1.22933e-156 9.22302e-31 -2.3118e-30)
(3.84815e-150 1.11572e-30 -2.81895e-30)
(1.11989e-143 1.35052e-30 -3.43598e-30)
(2.96786e-137 1.63486e-30 -4.18617e-30)
(6.88414e-131 1.97798e-30 -5.09744e-30)
(1.26583e-124 2.38986e-30 -6.20319e-30)
(1.14951e-118 2.88041e-30 -7.54298e-30)
(-3.97814e-112 3.45757e-30 -9.16307e-30)
(-2.89933e-105 4.12349e-30 -1.11164e-29)
(-1.15096e-98 4.86685e-30 -1.34614e-29)
(-3.56062e-92 5.64798e-30 -1.62578e-29)
(-9.22647e-86 6.37038e-30 -1.9556e-29)
(-2.03933e-79 6.82841e-30 -2.33701e-29)
(-3.83333e-73 6.61889e-30 -2.76093e-29)
(-6.02362e-67 5.02143e-30 -3.19153e-29)
(-7.66127e-61 9.38019e-31 -3.53337e-29)
(-7.46117e-55 -6.7964e-30 -3.59132e-29)
(-5.02585e-49 -1.82327e-29 -3.18135e-29)
(3.07418e-300 6.22715e-32 -9.72587e-33)
(1.70084e-293 6.40874e-32 -2.56559e-32)
(9.27702e-287 6.69055e-32 -3.88625e-32)
(4.98532e-280 7.08981e-32 -5.3623e-32)
(2.63771e-273 7.62017e-32 -7.02033e-32)
(1.37308e-266 8.30083e-32 -8.92628e-32)
(7.0268e-260 9.15665e-32 -1.11564e-31)
(3.53225e-253 1.02193e-31 -1.38005e-31)
(1.74251e-246 1.15288e-31 -1.69661e-31)
(8.42752e-240 1.31348e-31 -2.07824e-31)
(3.99162e-233 1.50995e-31 -2.54057e-31)
(1.84928e-226 1.74993e-31 -3.10251e-31)
(8.3692e-220 2.04286e-31 -3.78704e-31)
(3.69451e-213 2.40033e-31 -4.622e-31)
(1.5882e-206 2.83651e-31 -5.64119e-31)
(6.63626e-200 3.36875e-31 -6.88563e-31)
(2.68964e-193 4.01821e-31 -8.40506e-31)
(1.05478e-186 4.81063e-31 -1.02598e-30)
(3.99107e-180 5.77728e-31 -1.2523e-30)
(1.45214e-173 6.95603e-31 -1.52833e-30)
(5.05983e-167 8.3926e-31 -1.86482e-30)
(1.6797e-160 1.01419e-30 -2.27478e-30)
(5.27701e-154 1.22695e-30 -2.77396e-30)
(1.55457e-147 1.4853e-30 -3.38144e-30)
(4.23654e-141 1.79825e-30 -4.12024e-30)
(1.04458e-134 2.17607e-30 -5.01809e-30)
(2.23249e-128 2.62994e-30 -6.1083e-30)
(3.70474e-122 3.17111e-30 -7.43063e-30)
(2.65446e-116 3.809e-30 -9.03212e-30)
(-1.20017e-109 4.54722e-30 -1.09677e-29)
(-7.22513e-103 5.37564e-30 -1.32999e-29)
(-2.51097e-96 6.25483e-30 -1.60974e-29)
(-6.78166e-90 7.08597e-30 -1.94277e-29)
(-1.51221e-83 7.65401e-30 -2.33368e-29)
(-2.81144e-77 7.52767e-30 -2.77887e-29)
(-4.29757e-71 5.91224e-30 -3.25011e-29)
(-5.21274e-65 1.54227e-30 -3.65723e-29)
(-4.67989e-59 -7.01823e-30 -3.79256e-29)
(-2.66489e-53 -2.01703e-29 -3.42516e-29)
(-3.26563e-300 6.78517e-32 -9.53796e-33)
(-1.82586e-293 6.97952e-32 -2.51743e-32)
(-1.00757e-286 7.28496e-32 -3.8152e-32)
(-5.4849e-280 7.71896e-32 -5.26522e-32)
(-2.94378e-273 8.29614e-32 -6.89381e-32)
(-1.5568e-266 9.03715e-32 -8.76575e-32)
(-8.1073e-260 9.96898e-32 -1.09559e-31)
(-4.15477e-253 1.11261e-31 -1.35527e-31)
(-2.09379e-246 1.25519e-31 -1.66615e-31)
(-1.03682e-239 1.43008e-31 -2.04093e-31)
(-5.04076e-233 1.64402e-31 -2.49496e-31)
(-2.40396e-226 1.90534e-31 -3.04683e-31)
(-1.12352e-219 2.22433e-31 -3.71908e-31)
(-5.14051e-213 2.6136e-31 -4.53907e-31)
(-2.29992e-206 3.08859e-31 -5.54e-31)
(-1.00501e-199 3.66821e-31 -6.76215e-31)
(-4.2835e-193 4.37548e-31 -8.25439e-31)
(-1.77811e-186 5.23848e-31 -1.0076e-30)
(-7.17721e-180 6.29125e-31 -1.22988e-30)
(-2.81201e-173 7.57509e-31 -1.501e-30)
(-1.0673e-166 9.13985e-31 -1.83153e-30)
(-3.91576e-160 1.10455e-30 -2.23426e-30)
(-1.38528e-153 1.33635e-30 -2.72472e-30)
(-4.71257e-147 1.61789e-30 -3.32172e-30)
(-1.53679e-140 1.95905e-30 -4.04801e-30)
(-4.78697e-134 2.37113e-30 -4.9311e-30)
(-1.41845e-127 2.86654e-30 -6.00418e-30)
(-3.97928e-121 3.45797e-30 -7.30717e-30)
(-1.051e-114 4.15644e-30 -8.88785e-30)
(-2.59613e-108 4.96737e-30 -1.08031e-29)
(-5.94965e-102 5.88242e-30 -1.31199e-29)
(-1.25263e-95 6.86364e-30 -1.59157e-29)
(-2.3931e-89 7.8121e-30 -1.92762e-29)
(-4.08292e-83 8.50738e-30 -2.32818e-29)
(-6.08939e-77 8.496e-30 -2.79577e-29)
(-7.70328e-71 6.91321e-30 -3.31124e-29)
(-7.89489e-65 2.31445e-30 -3.79198e-29)
(-6.0563e-59 -7.05651e-30 -4.02557e-29)
(-2.92066e-53 -2.18743e-29 -3.73175e-29)
(-1.91276e-296 7.33214e-32 -9.33718e-33)
(-1.08384e-289 7.5394e-32 -2.46564e-32)
(-6.06272e-283 7.86808e-32 -3.73836e-32)
(-3.34613e-276 8.33615e-32 -5.16006e-32)
(-1.82119e-269 8.95922e-32 -6.75669e-32)
(-9.7691e-263 9.75941e-32 -8.59172e-32)
(-5.16145e-256 1.07658e-31 -1.07386e-31)
(-2.68424e-249 1.20155e-31 -1.32839e-31)
(-1.37308e-242 1.35556e-31 -1.63312e-31)
(-6.90351e-236 1.54446e-31 -2.00048e-31)
(-3.40868e-229 1.77553e-31 -2.44552e-31)
(-1.65146e-222 2.0578e-31 -2.98645e-31)
(-7.84336e-216 2.40236e-31 -3.64539e-31)
(-3.64794e-209 2.82282e-31 -4.44914e-31)
(-1.65967e-202 3.3359e-31 -5.43027e-31)
(-7.37734e-196 3.962e-31 -6.62825e-31)
(-3.19972e-189 4.72601e-31 -8.091e-31)
(-1.35218e-182 5.65826e-31 -9.87665e-31)
(-5.55876e-176 6.79557e-31 -1.20557e-30)
(-2.21915e-169 8.18256e-31 -1.47136e-30)
(-8.58658e-163 9.87317e-31 -1.79541e-30)
(-3.21327e-156 1.19323e-30 -2.1903e-30)
(-1.16017e-149 1.44375e-30 -2.6713e-30)
(-4.03064e-143 1.74808e-30 -3.2569e-30)
(-1.3433e-136 2.117e-30 -3.96959e-30)
(-4.27969e-130 2.56286e-30 -4.83659e-30)
(-1.29823e-123 3.09931e-30 -5.89093e-30)
(-3.73238e-117 3.74056e-30 -7.17265e-30)
(-1.01149e-110 4.49941e-30 -8.73024e-30)
(-2.56746e-104 5.38338e-30 -1.06225e-29)
(-6.05729e-98 6.38659e-30 -1.29207e-29)
(-1.31592e-91 7.4738e-30 -1.57115e-29)
(-2.60204e-85 8.5484e-30 -1.90989e-29)
(-4.61461e-79 9.38904e-30 -2.32e-29)
(-7.19948e-73 9.52715e-30 -2.81075e-29)
(-9.62474e-67 8.03482e-30 -3.37374e-29)
(-1.06166e-60 3.27789e-30 -3.93663e-29)
(-9.11184e-55 -6.87703e-30 -4.27633e-29)
(-5.48819e-49 -2.34594e-29 -3.99999e-29)
(-5.56934e-296 7.8674e-32 -9.12346e-33)
(-3.12467e-289 8.08761e-32 -2.41024e-32)
(-1.72935e-282 8.43908e-32 -3.65585e-32)
(-9.4361e-276 8.94049e-32 -5.04699e-32)
(-5.073e-269 9.60846e-32 -6.60916e-32)
(-2.68544e-262 1.04666e-31 -8.40444e-32)
(-1.39875e-255 1.1546e-31 -1.05047e-31)
(-7.1632e-249 1.28864e-31 -1.29947e-31)
(-3.60385e-242 1.45383e-31 -1.59757e-31)
(-1.77966e-235 1.65644e-31 -1.95694e-31)
(-8.61792e-229 1.90431e-31 -2.3923e-31)
(-4.08808e-222 2.20708e-31 -2.92147e-31)
(-1.89758e-215 2.57667e-31 -3.56608e-31)
(-8.60818e-209 3.02769e-31 -4.35236e-31)
(-3.8113e-202 3.57807e-31 -5.31216e-31)
(-1.64455e-195 4.24969e-31 -6.48413e-31)
(-6.90434e-189 5.06927e-31 -7.91514e-31)
(-2.81526e-182 6.06934e-31 -9.66208e-31)
(-1.11265e-175 7.28945e-31 -1.1794e-30)
(-4.25271e-169 8.77751e-31 -1.43945e-30)
(-1.56793e-162 1.05914e-30 -1.75653e-30)
(-5.56003e-156 1.2801e-30 -2.14297e-30)
(-1.89e-149 1.54897e-30 -2.61375e-30)
(-6.13468e-143 1.87568e-30 -3.18707e-30)
(-1.89262e-136 2.27188e-30 -3.88506e-30)
(-5.51924e-130 2.75097e-30 -4.73464e-30)
(-1.51108e-123 3.32791e-30 -5.76864e-30)
(-3.85084e-117 4.01846e-30 -7.02715e-30)
(-9.03157e-111 4.8374e-30 -8.55928e-30)
(-1.91884e-104 5.79465e-30 -1.04257e-29)
(-3.60518e-98 6.88744e-30 -1.27018e-29)
(-5.74299e-92 8.08449e-30 -1.54834e-29)
(-7.05983e-86 9.29409e-30 -1.88932e-29)
(-4.62511e-80 1.02988e-29 -2.3086e-29)
(5.48975e-74 1.06235e-29 -2.82285e-29)
(2.47519e-67 9.28702e-30 -3.43622e-29)
(4.68186e-61 4.45772e-30 -4.09022e-29)
(5.69712e-55 -6.44056e-30 -4.56032e-29)
(4.42579e-49 -2.42039e-29 -4.39238e-29)
(-1.19366e-299 8.39027e-32 -8.8968e-33)
(-6.60557e-293 8.62334e-32 -2.3513e-32)
(-3.60374e-286 8.99712e-32 -3.56778e-32)
(-1.93703e-279 9.53109e-32 -4.92619e-32)
(-1.02509e-272 1.02429e-31 -6.45147e-32)
(-5.33721e-266 1.11576e-31 -8.20422e-32)
(-2.73177e-259 1.23083e-31 -1.02546e-31)
(-1.37334e-252 1.37374e-31 -1.26855e-31)
(-6.77494e-246 1.54985e-31 -1.55956e-31)
(-3.27629e-239 1.76587e-31 -1.91038e-31)
(-1.55138e-232 2.03014e-31 -2.33539e-31)
(-7.18405e-226 2.35295e-31 -2.85198e-31)
(-3.24888e-219 2.74701e-31 -3.48127e-31)
(-1.43264e-212 3.22789e-31 -4.24886e-31)
(-6.1492e-206 3.81471e-31 -5.18587e-31)
(-2.56395e-199 4.53082e-31 -6.33001e-31)
(-1.03612e-192 5.40472e-31 -7.72707e-31)
(-4.0471e-186 6.4711e-31 -9.43262e-31)
(-1.52304e-179 7.77215e-31 -1.15141e-30)
(-5.50047e-173 9.35902e-31 -1.40532e-30)
(-1.89691e-166 1.12936e-30 -1.71494e-30)
(-6.20595e-160 1.36503e-30 -2.09234e-30)
(-1.9087e-153 1.65187e-30 -2.55218e-30)
(-5.44382e-147 2.0005e-30 -3.11232e-30)
(-1.40718e-140 2.42344e-30 -3.79453e-30)
(-3.14934e-134 2.93517e-30 -4.62538e-30)
(-5.39154e-128 3.55197e-30 -5.63743e-30)
(-3.17992e-122 4.29125e-30 -6.87075e-30)
(2.58542e-115 5.16988e-30 -8.375e-30)
(1.56436e-108 6.20053e-30 -1.02125e-29)
(5.93518e-102 7.38415e-30 -1.24627e-29)
(1.80827e-95 8.69473e-30 -1.52302e-29)
(4.69487e-89 1.0048e-29 -1.86561e-29)
(1.0573e-82 1.12358e-29 -2.29341e-29)
(2.06727e-76 1.17862e-29 -2.83099e-29)
(3.47455e-70 1.06789e-29 -3.49705e-29)
(4.91418e-64 5.88088e-30 -4.25118e-29)
(5.63477e-58 -5.7296e-30 -4.84956e-29)
(4.93874e-52 -2.42902e-29 -4.69888e-29)
(-1.87698e-296 8.90002e-32 -8.65734e-33)
(-1.0634e-289 9.14581e-32 -2.28888e-32)
(-5.94738e-283 9.54136e-32 -3.4743e-32)
(-3.28192e-276 1.01071e-31 -4.79784e-32)
(-1.78595e-269 1.08616e-31 -6.28386e-32)
(-9.57841e-263 1.18315e-31 -7.99136e-32)
(-5.05983e-256 1.30517e-31 -9.98874e-32)
(-2.63093e-249 1.45672e-31 -1.23567e-31)
(-1.34558e-242 1.64349e-31 -1.51914e-31)
(-6.76401e-236 1.87258e-31 -1.86088e-31)
(-3.33921e-229 2.15284e-31 -2.27488e-31)
(-1.61751e-222 2.4952e-31 -2.77809e-31)
(-7.68074e-216 2.91311e-31 -3.39109e-31)
(-3.57166e-209 3.42312e-31 -4.13882e-31)
(-1.62468e-202 4.04548e-31 -5.05158e-31)
(-7.22054e-196 4.80498e-31 -6.16613e-31)
(-3.13118e-189 5.73184e-31 -7.52709e-31)
(-1.32299e-182 6.8629e-31 -9.1886e-31)
(-5.43789e-176 8.24291e-31 -1.12164e-30)
(-2.17056e-169 9.92619e-31 -1.36902e-30)
(-8.39735e-163 1.19785e-30 -1.67071e-30)
(-3.14203e-156 1.44789e-30 -2.03847e-30)