/*--------------------------------*- C++ -*----------------------------------*\
| =========                 |                                                 |
| \\      /  F ield         | OpenFOAM: The Open Source CFD Toolbox           |
|  \\    /   O peration     | Version:  4.1                                   |
|   \\  /    A nd           | Web:      www.OpenFOAM.org                      |
|    \\/     M anipulation  |                                                 |
\*---------------------------------------------------------------------------*/
FoamFile
{
    version     2.0;
    format      ascii;
    class       volScalarField;
    location    "21";
    object      p;
}
// * * * * * * * * * * * * * * * * * * * * * * * * * * * * * * * * * * * * * //

dimensions      [0 2 -2 0 0 0 0];

internalField   nonuniform List<scalar> 
26785
(
-5.10283
-4.99395
-4.59363
-4.45948
-4.26438
-4.1488
-3.76689
-3.36345
-2.74647
-2.04276
-1.18469
-0.183543
0.927047
2.21008
3.61899
5.2768
7.04451
9.00813
10.9438
13.0046
15.0695
17.204
19.2054
21.1347
22.9711
24.6818
26.2259
27.5387
28.6252
29.5996
30.4797
31.4101
32.3694
33.4179
34.5042
35.6345
36.7795
37.8577
38.7097
39.1871
39.2908
39.1831
38.8616
38.2899
37.4408
36.3295
34.9845
33.4486
31.7958
30.0859
28.3171
26.5705
24.784
23.0658
21.343
19.7317
18.1669
16.7559
15.4155
14.2132
13.075
12.0596
11.1022
10.243
9.43447
8.71188
8.0364
7.43093
6.86644
6.36123
5.89184
5.46959
5.07712
4.72317
4.39425
4.09565
3.81773
3.5643
3.32813
3.11102
2.90743
2.718
2.53858
2.36891
2.20622
2.04989
1.89835
1.75081
1.60654
1.46461
1.32482
1.18612
1.04878
0.911706
0.7758
0.639515
0.505579
0.366882
0.232818
0.0599301
-5.12493
-4.99597
-4.59234
-4.46147
-4.26548
-4.14944
-3.76807
-3.36531
-2.749
-2.04552
-1.18823
-0.186811
0.923042
2.20718
3.61533
5.27441
7.04181
9.0067
10.9418
13.0026
15.0679
17.2038
19.2054
21.1371
22.9766
24.6894
26.2333
27.5446
28.6291
29.6012
30.4785
31.4083
32.368
33.416
34.501
35.6338
36.7829
37.8695
38.7292
39.2033
39.3008
39.1949
38.8763
38.3061
37.4567
36.3433
34.9952
33.4561
31.7996
30.0879
28.3154
26.5666
24.7761
23.056
21.3306
19.7192
18.1538
16.7441
15.4041
14.2031
13.0653
12.051
11.0939
10.2356
9.42741
8.70559
8.03049
7.42566
6.86154
6.35683
5.88772
5.46581
5.07356
4.71984
4.39108
4.09265
3.81485
3.56155
3.3255
3.10852
2.90506
2.71576
2.53648
2.36695
2.20441
2.04821
1.89679
1.74937
1.60523
1.46342
1.32376
1.18518
1.04796
0.910962
0.775121
0.638728
0.5054
0.365601
0.252487
0.0343219
-5.16405
-4.99717
-4.58892
-4.46511
-4.26762
-4.15071
-3.77024
-3.36891
-2.75364
-2.05098
-1.19499
-0.193919
0.914814
2.20004
3.60755
5.26868
7.03596
9.00311
10.9379
12.9989
15.0657
17.204
19.2057
21.1417
22.988
24.7061
26.25
27.5581
28.6382
29.6051
30.4753
31.4035
32.3642
33.4108
34.4946
35.633
36.7931
37.8995
38.7786
39.2466
39.3307
39.2272
38.9132
38.3451
37.4939
36.3756
35.0209
33.4747
31.8107
30.0941
28.3148
26.5607
24.7625
23.038
21.3078
19.6955
18.1294
16.7212
15.3819
14.1827
13.0459
12.033
11.0767
10.2197
9.41248
8.69194
8.01791
7.41428
6.8512
6.34749
5.87923
5.45811
5.06658
4.71348
4.38531
4.08738
3.81012
3.55727
3.32172
3.10516
2.90217
2.71327
2.53442
2.36525
2.20307
2.04718
1.89606
1.74891
1.60504
1.46349
1.32408
1.18574
1.04872
0.911902
0.776224
0.639776
0.506745
0.365933
0.259308
0.0401561
-5.21626
-4.99434
-4.58349
-4.47094
-4.27112
-4.15303
-3.77383
-3.37492
-2.76115
-2.06005
-1.20595
-0.2056
0.90167
2.18806
3.59539
5.25952
7.02708
8.99761
10.9322
12.9938
15.0632
17.2045
19.2064
21.1493
23.0061
24.7318
26.2751
27.5776
28.6508
29.609
30.4686
31.3947
32.3585
33.404
34.4874
35.6345
36.8095
37.9418
38.8476
39.3034
39.3669
39.2662
38.9576
38.3918
37.5381
36.4136
35.0508
33.4965
31.8248
30.1022
28.3163
26.5553
24.7504
23.0202
21.2873
19.6737
18.1092
16.7019
15.365
14.1667
13.0318
12.0193
11.0645
10.2078
9.40202
8.68194
8.00923
7.40608
6.84413
6.34073
5.87327
5.45231
5.06133
4.70828
4.38046
4.08254
3.80558
3.55278
3.31747
3.10097
2.89819
2.70934
2.53062
2.36148
2.19936
2.04346
1.89234
1.7452
1.60134
1.45984
1.32046
1.18219
1.04522
0.90854
0.772885
0.636721
0.502696
0.363886
0.238814
0.0618338
-5.27663
-4.98393
-4.57581
-4.47838
-4.27566
-4.15613
-3.77852
-3.38266
-2.77069
-2.07157
-1.21971
-0.220408
0.885289
2.17295
3.58077
5.2484
7.01684
8.99099
10.9251
12.9871
15.0601
17.2043
19.2059
21.1564
23.0256
24.7591
26.3011
27.5969
28.6622
29.6118
30.4599
31.386
32.3551
33.399
34.4836
35.6386
36.8263
37.9789
38.9085
39.3465
39.3877
39.2906
38.9875
38.4252
37.5716
36.4441
35.077
33.5183
31.8417
30.1142
28.3231
26.5545
24.744
23.0072
21.2723
19.6561
18.0932
16.685
15.3497
14.1506
13.0169
12.0035
11.0496
10.1926
9.38821
8.66844
7.99721
7.39469
6.83416
6.33139
5.86505
5.44466
5.05462
4.70204
4.37496
4.0775
3.80122
3.5489
3.3142
3.09816
2.89591
2.70746
2.52916
2.36034
2.19852
2.04286
1.89196
1.74502
1.60136
1.46007
1.32089
1.18283
1.04606
0.909614
0.774107
0.638233
0.503455
0.365308
0.228857
0.0765344
-5.33769
-4.96521
-4.56736
-4.48747
-4.28117
-4.15992
-3.78412
-3.39158
-2.78158
-2.0845
-1.23488
-0.236372
0.86799
2.15707
3.56598
5.23708
7.00734
8.98511
10.9186
12.9798
15.0569
17.2032
19.2054
21.1642
23.0443
24.7839
26.3231
27.6114
28.6698
29.6124
30.4529
31.3809
32.3566
33.3966
34.4814
35.6424
36.8385
38.0037
38.9525
39.371
39.3919
39.2993
39.0015
38.4435
37.5912
36.4617
35.0903
33.5272
31.8452
30.1122
28.3166
26.5416
24.728
22.9869
21.2523
19.6356
18.0752
16.6671
15.3335
14.1336
13.0005
11.986
11.0324
10.1751
9.37157
8.65211
7.98208
7.38029
6.82101
6.31897
5.85368
5.43397
5.04481
4.69284
4.3665
4.06963
3.79404
3.5423
3.30824
3.09273
2.89102
2.70303
2.52516
2.35669
2.19517
2.03974
1.88905
1.7423
1.59883
1.45772
1.31869
1.18077
1.04412
0.907817
0.772416
0.636707
0.501498
0.363223
0.224005
0.0772524
-5.39222
-4.94055
-4.56026
-4.49768
-4.28705
-4.16363
-3.78958
-3.39998
-2.79178
-2.09638
-1.24867
-0.250728
0.852758
2.14326
3.55369
5.22713
6.99964
8.98057
10.9138
12.9732
15.0537
17.2007
19.2048
21.1715
23.0598
24.8023
26.3383
27.6198
28.6719
29.6103
30.4461
31.3792
32.3636
33.3991
34.4825
35.6452
36.8483
38.0235
38.9943
39.4008
39.4037
39.3073
39.0062
38.4465
37.593
36.4627
35.0907
33.5273
31.8431
30.1067
28.3061
26.5235
24.7037
22.9567
21.22
19.6017
18.0423
16.634
15.3011
14.1007
12.9679
11.953
11.0001
10.1433
9.3414
8.62342
7.95548
7.35552
6.79835
6.29806
5.8346
5.41645
5.02888
4.67825
4.35327
4.05762
3.78326
3.53262
3.29963
3.08508
2.88428
2.69712
2.52
2.3522
2.19127
2.03637
1.88616
1.73987
1.59684
1.45613
1.31744
1.1798
1.04336
0.907269
0.772082
0.636658
0.501434
0.363218
0.223784
0.0760179
-5.42833
-4.91007
-4.55424
-4.50752
-4.29256
-4.1668
-3.79451
-3.40734
-2.80085
-2.1068
-1.26057
-0.262994
0.840068
2.1317
3.54418
5.21818
6.99252
8.97552
10.9101
12.9678
15.0512
17.1971
19.2044
21.1804
23.0748
24.8184
26.3514
27.6269
28.6741
29.6088
30.4412
31.3754
32.3685
33.4029
34.4831
35.6416
36.8435
38.0198
39.0019
39.4047
39.408
39.3084
39.0013
38.4393
37.5851
36.4531
35.0774
33.5095
31.8193
30.0763
28.2681
26.4772
24.6512
22.8999
21.1626
19.5454
17.9892
16.5833
15.2529
14.054
12.923
11.9093
10.9583
10.1034
9.30417
8.58871
7.92364
7.32629
6.77178
6.27378
5.81255
5.39634
5.01063
4.66164
4.33824
4.04401
3.77104
3.52166
3.28985
3.07638
2.87657
2.6903
2.51398
2.34688
2.18657
2.03223
1.88255
1.7368
1.59429
1.45404
1.31573
1.17838
1.04214
0.906192
0.771168
0.636022
0.500958
0.362803
0.223593
0.0738252
-5.44474
-4.88126
-4.55164
-4.51695
-4.29786
-4.16961
-3.79883
-3.41333
-2.80827
-2.11528
-1.27028
-0.273283
0.829265
2.12158
3.53647
5.2098
6.98476
8.96801
10.9049
12.9624
15.0487
17.192
19.2023
21.1875
23.0876
24.8311
26.3618
27.6321
28.6754
29.609
30.4385
31.3655
32.359
33.3989
34.4774
35.628
36.8242
37.9993
38.9818
39.3973
39.4103
39.3093
38.9919
38.418
37.5564
36.4197
35.0396
33.4677
31.7725
30.0242
28.2092
26.4114
24.5802
22.8263
21.0899
19.4753
17.9232
16.5207
15.1936
13.997
12.8685
11.8568
10.9084
10.0561
9.26004
8.54769
7.88591
7.2916
6.74008
6.24472
5.78602
5.37207
4.98853
4.6415
4.31997
4.0275
3.75621
3.5084
3.27805
3.06593
2.86736
2.68219
2.50684
2.34059
2.18101
2.02737
1.87838
1.73334
1.59151
1.45189
1.31408
1.17714
1.04118
0.905437
0.770598
0.635749
0.500935
0.362909
0.223952
0.072623
-5.44674
-4.86602
-4.55629
-4.52668
-4.30328
-4.17229
-3.80278
-3.41856
-2.81502
-2.12337
-1.27975
-0.283912
0.817758
2.10934
3.52679
5.19938
6.974
8.95562
10.8948
12.954
15.0443
17.1846
19.1976
21.1922
23.0986
24.8428
26.3724
27.6391
28.6781
29.6086
30.4383
31.3542
32.3391
33.3843
34.463
35.6046
36.7928
37.9679
38.949
39.3793
39.4038
39.2963
38.9678
38.3817
37.5111
36.3675
34.9812
33.4041
31.7027
29.9486
28.1265
26.3223
24.4868
22.7317
20.9973
19.3868
17.84
16.4423
15.1197
13.9269
12.8021
11.7939
10.8492
10.0008
9.20885
8.50048
7.84267
7.25201
6.70395
6.21168
5.75587
5.34455
4.96349
4.61874
4.29938
4.00896
3.73962
3.49363
3.26499
3.05445
2.85734
2.67346
2.49921
2.33388
2.17509
2.02216
1.8739
1.72964
1.58858
1.44967
1.3124
1.17589
1.04027
0.90476
0.77011
0.635505
0.500917
0.363026
0.22434
0.0716341
-5.4351
-4.86913
-4.56828
-4.53609
-4.30819
-4.17465
-3.80645
-3.4237
-2.82201
-2.13227
-1.29053
-0.296621
0.803932
2.09371
3.51301
5.18558
6.95968
8.93874
10.8786
12.9406
15.036
17.1738
19.1888
21.1916
23.1039
24.8497
26.3806
27.6434
28.6765
29.6061
30.4383
31.343
32.3173
33.3643
34.4434
35.5773
36.7579
37.9358
38.9111
39.3482
39.3852
39.2706
38.9297
38.3294
37.4468
36.2942
34.9007
33.3184
31.6114
29.8522
28.024
26.2149
24.3766
22.6219
20.8907
19.2855
17.7448
16.3528
15.0356
13.8475
12.7275
11.7238
10.7839
9.94008
9.153
8.4492
7.79575
7.20908
6.66472
6.17577
5.72304
5.31453
4.93611
4.59381
4.27679
3.98859
3.72136
3.47734
3.25055
3.04176
2.84629
2.66388
2.4909
2.32662
2.1687
2.01658
1.86914
1.72573
1.58553
1.4474
1.31074
1.17469
1.03943
0.904235
0.769808
0.635393
0.500966
0.363199
0.22491
0.07078
-5.3923
-4.87219
-4.57889
-4.54295
-4.31258
-4.17752
-3.81108
-3.43036
-2.83095
-2.14371
-1.30427
-0.312852
0.786483
2.07381
3.49372
5.16686
6.94106
8.91738
10.8557
12.9204
15.0219
17.1588
19.1763
21.1872
23.1046
24.8545
26.3871
27.6443
28.6748
29.6086
30.4387
31.3311
32.2963
33.3434
34.4214
35.5484
36.7233
37.9063
38.8696
39.3046
39.3541
39.2312
38.8767
38.2604
37.3637
36.2005
34.7989
33.2107
31.4979
29.7338
27.9
26.0871
24.2472
22.4942
20.7674
19.1683
17.6345
16.2493
14.9383
13.7562
12.6422
11.6443
10.7103
9.87231
9.09095
8.39246
7.74399
7.1618
6.62156
6.13633
5.68702
5.28164
4.90614
4.56655
4.25212
3.96636
3.70144
3.45955
3.23477
3.02788
2.8342
2.65343
2.48188
2.31881
2.1619
2.01069
1.86413
1.72164
1.58234
1.44505
1.30907
1.17351
1.03864
0.903789
0.769609
0.635352
0.501074
0.363473
0.225677
0.0702097
-5.3427
-4.88259
-4.59288
-4.55084
-4.31806
-4.1816
-3.81683
-3.43841
-2.84146
-2.15713
-1.32034
-0.331997
0.765693
2.05074
3.47018
5.14331
6.91843
8.89217
10.8275
12.8938
15.0001
17.1377
19.1596
21.1781
23.1002
24.8552
26.3846
27.6407
28.6777
29.6119
30.4325
31.3131
32.2728
33.3164
34.3873
35.5046
36.6803
37.8716
38.8151
39.2433
39.3057
39.1747
38.8062
38.1732
37.2614
36.0868
34.6769
33.0833
31.3652
29.5971
27.7588
25.9436
24.1036
22.3538
20.6325
19.0405
17.5144
16.1364
14.8326
13.6573
12.5502
11.5591
10.6319
9.80038
9.02529
8.33256
7.6894
7.11198
6.57613
6.09484
5.64918
5.24714
4.87473
4.53801
4.2263
3.94311
3.68061
3.44093
3.21822
3.01329
2.82145
2.64237
2.47233
2.31059
2.15481
2.00463
1.85906
1.71753
1.57912
1.44263
1.30732
1.17232
1.03787
0.903362
0.76942
0.635304
0.501168
0.363742
0.226466
0.0699302
-5.2965
-4.8946
-4.60598
-4.55756
-4.32319
-4.186
-3.8234
-3.44802
-2.85403
-2.17323
-1.33956
-0.354808
0.740825
2.0232
3.4419
5.11416
6.89096
8.86168
10.7936
12.86
14.9701
17.1091
19.1398
21.1666
23.0929
24.854
26.3788
27.6414
28.6838
29.6075
30.4168
31.2866
32.2408
33.2725
34.3287
35.436
36.6215
37.8215
38.7389
39.1655
39.241
39.1019
38.7185
38.0678
37.1399
35.953
34.5343
32.9351
31.2115
29.4397
27.5976
25.7812
23.9424
22.1972
20.4825
18.8986
17.3809
16.0113
14.7155
13.5481
12.4491
11.4659
10.5464
9.72224
8.95412
8.26771
7.63034
7.05813
6.52706
6.05011
5.60847
5.2101
4.8411
4.50753
4.19877
3.91832
3.6584
3.4211
3.20061
2.99775
2.80785
2.63051
2.46204
2.30171
2.14722
1.99821
1.85377
1.71329
1.57583
1.44008
1.30539
1.17094
1.03697
0.902835
0.769143
0.635177
0.501194
0.363943
0.227218
0.0698672
-5.25851
-4.90625
-4.61881
-4.56461
-4.329
-4.19149
-3.83117
-3.45914
-2.86824
-2.19132
-1.36106
-0.380376
0.712789
1.99234
3.41032
5.08097
6.8592
8.82604
10.755
12.8203
14.9324
17.074
19.1156
21.1499
23.0803
24.8478
26.3703
27.6379
28.6787
29.5885
30.3923
31.256
32.1967
33.2025
34.2367
35.3363
36.5403
37.7456
38.6368
39.0686
39.1559
39.0092
38.611
37.943
36.9991
35.8002
34.3731
32.7689
31.0409
29.2663
27.4214
25.6052
23.769
22.0297
20.3228
18.7478
17.2394
15.8788
14.5919
13.4332
12.3431
11.3684
10.4573
9.64101
8.88024
8.20044
7.56908
7.00228
6.47619
6.00379
5.56635
5.17182
4.8064
4.47614
4.17049
3.89288
3.63559
3.40073
3.18255
2.98184
2.79393
2.61836
2.45145
2.29255
2.13942
1.9917
1.84848
1.70916
1.57267
1.43764
1.30349
1.16956
1.0361
0.902346
0.768861
0.63497
0.501034
0.363841
0.227761
0.0697257
-5.22768
-4.91637
-4.63174
-4.57205
-4.33515
-4.19759
-3.83983
-3.47173
-2.88438
-2.21189
-1.38551
-0.409286
0.680982
1.9572
3.37436
5.04351
6.82218
8.78443
10.7108
12.7749
14.8873
17.0339
19.0864
21.1283
23.0661
24.8384
26.3596
27.6262
28.6612
29.5602
30.3617
31.2208
32.1341
33.1041
34.1115
35.2057
36.4327
37.6389
38.5099
38.953
39.0506
38.897
38.4841
37.7987
36.8388
35.6277
34.1923
32.5833
30.851
29.0741
27.2271
25.4118
23.5794
21.847
20.1489
18.584
17.0859
15.7353
14.4584
13.3094
12.2292
11.2641
10.3622
9.55437
8.80156
8.12884
7.50391
6.94286
6.42209
5.95455
5.52162
5.1312
4.7696
4.44288
4.1406
3.86606
3.61157
3.37929
3.16358
2.96515
2.77935
2.60563
2.44033
2.28287
2.1312
1.98492
1.84303
1.70491
1.56941
1.4351
1.30148
1.16809
1.0352
0.901864
0.768563
0.634689
0.50071
0.363546
0.22817
0.0697149
-5.202
-4.92446
-4.64464
-4.57994
-4.34173
-4.20457
-3.84951
-3.48561
-2.90193
-2.23416
-1.41198
-0.440567
0.646336
1.91907
3.33515
5.00276
6.78071
8.73752
10.6609
12.7248
14.8363
16.9891
19.0506
21.0984
23.0491
24.8222
26.3394
27.601
28.6309
29.5267
30.3276
31.1792
32.0544
32.9798
33.9529
35.045
36.2972
37.5003
38.3588
38.8148
38.9216
38.7621
38.3354
37.6339
36.6591
35.4367
33.9941
32.3816
30.6461
28.8681
27.0202
25.2071
23.3795
21.655
19.9668
18.4127
16.9257
15.586
14.3199
13.1815
12.1118
11.1568
10.2646
9.46563
8.72105
8.05564
7.43731
6.88215
6.36681
5.90422
5.47592
5.08969
4.73199
4.40888
4.11005
3.83874
3.58718
3.35757
3.14443
2.94836
2.76467
2.5928
2.42914
2.27315
2.12296
1.97821
1.8377
1.70075
1.56624
1.43265
1.29958
1.16676
1.03448
0.901548
0.768382
0.634454
0.500275
0.363047
0.228067
0.070243
-5.1809
-4.93098
-4.65741
-4.58806
-4.34854
-4.2121
-3.86005
-3.50085
-2.92127
-2.25875
-1.4413
-0.475063
0.608131
1.87685
3.29144
4.95772
6.73424
8.68497
10.6051
12.6695
14.7799
16.9382
19.0097
21.0636
23.0298
24.7991
26.3098
27.5699
28.6
29.4934
30.2973
31.1299
31.9571
32.8296
33.7606
34.8562
36.1324
37.3301
38.1844
38.6537
38.769
38.6047
38.1652
37.4484
36.4592
35.2262
33.7766
32.161
30.4231
28.6446
26.7966
24.9867
23.1648
21.4492
19.7716
18.2292
16.7544
15.4267
14.1725
13.0457
11.9876
11.0434
10.1616
9.37213
8.63636
7.97871
7.36741
6.81845
6.30884
5.85145
5.42798
5.04617
4.69256
4.37322
4.07796
3.81002
3.56165
3.33495
3.12453
2.93097
2.7495
2.57955
2.41762
2.26324
2.11463
1.97143
1.83233
1.69655
1.56305
1.43021
1.2977
1.16547
1.03377
0.901252
0.768237
0.634279
0.499801
0.36257
0.226939
0.0719922
-5.16507
-4.93652
-4.66994
-4.59651
-4.35575
-4.22049
-3.87156
-3.51723
-2.94185
-2.28484
-1.47235
-0.511884
0.56728
1.83218
3.24443
4.90917
6.68382
8.62729
10.5444
12.6092
14.7181
16.8801
18.9611
21.0242
23.0043
24.7647
26.27
27.5318
28.5645
29.4587
30.2696
31.0711
31.842
32.6487
33.5347
34.641
35.9378
37.1292
37.9852
38.4668
38.5905
38.4229
37.9723
37.2421
36.2403
34.998
33.5429
31.9255
30.1864
28.409
26.5624
24.7569
22.9419
21.2359
19.5697
18.0397
16.5779
15.263
14.0215
12.907
11.861
10.9281
10.057
9.2773
8.55055
7.90085
7.29675
6.75414
6.25033
5.79819
5.37959
5.00223
4.65278
4.33723
4.04554
3.78093
3.53583
3.3122
3.10457
2.91353
2.73435
2.5664
2.40629
2.25364
2.10667
1.96499
1.82726
1.69269
1.56026
1.42816
1.29618
1.16443
1.03323
0.901079
0.76822
0.634231
0.499308
0.361985
0.22452
0.0746514
-5.15314
-4.94134
-4.68224
-4.60513
-4.3632
-4.22931
-3.88381
-3.53484
-2.96411
-2.31308
-1.50602
-0.551849
0.522902
1.78394
3.19307
4.85651
6.62863
8.56447
10.4786
12.543
14.6507
16.8151
18.9055
20.9851
22.9731
24.7231
26.228
27.4927
28.5279
29.4273
30.2394
30.9965
31.7026
32.4296
33.2751
34.3975
35.7103
36.8965
37.7592
38.2534
38.3859
38.2163
37.756
37.014
36.001
34.7503
33.2904
31.6717
29.9322
28.1566
26.3125
24.5125
22.7054
21.01
19.3559
17.8393
16.3913
15.0902
13.8627
12.7614
11.7284
10.8074
9.94771
9.1783
8.46106
7.81972
7.22322
6.68727
6.18958
5.74292
5.32937
4.95662
4.61154
4.29993
4.01191
3.75073
3.50906
3.28868
3.08394
2.89545
2.71871
2.55298
2.39489
2.24406
2.09882
1.95868
1.82237
1.68911
1.55783
1.42649
1.29494
1.1636
1.03277
0.900951
0.768277
0.634318
0.498904
0.361536
0.221554
0.0775137
-5.14423
-4.94597
-4.69448
-4.61421
-4.37114
-4.23899
-3.89702
-3.55348
-2.9875
-2.34261
-1.54134
-0.593781
0.476079
1.73362
3.13902
4.80071
6.56913
8.49707
10.4072
12.4699
14.577
16.7431
18.8428
20.9451
22.9328
24.6724
26.1793
27.4468
28.4851
29.3943
30.197
30.9015
31.5328
32.1699
32.9842
34.1254
35.4488
36.6323
37.5051
38.0126
38.1543
37.9844
37.5167
36.7653
35.7433
34.4861
33.0229
31.4044
29.6658
27.8934
26.0533
24.2603
22.4623
20.7783
19.1372
17.6344
16.2011
14.9146
13.7015
12.6141
11.5946
10.686
9.8378
9.0788
8.37117
7.73828
7.14946
6.62026
6.12874
5.68759
5.2791
4.91097
4.57033
4.26273
3.97835
3.72065
3.48242
3.26523
3.06335
2.87743
2.7032
2.53984
2.38388
2.23489
2.09139
1.95283
1.81798
1.68608
1.556
1.42543
1.29429
1.16329
1.03272
0.901145
0.768652
0.63472
0.498793
0.36124
0.219207
0.0797448
-5.13622
-4.94992
-4.70622
-4.6233
-4.37921
-4.24901
-3.91086
-3.57316
-3.01241
-2.37409
-1.5793
-0.638534
0.42601
1.67955
3.08115
4.741
6.5049
8.42504
10.3298
12.3912
14.4974
16.6655
18.7799
20.9046
22.8845
24.6169
26.1266
27.3978
28.4398
29.3578
30.135
30.7792
31.321
31.8672
32.6597
33.8201
35.1502
36.3352
37.221
37.7431
37.895
37.7261
37.253
36.4942
35.4649
34.2027
32.7372
31.1195
29.3826
27.6141
25.7791
23.9943
22.2066
20.5349
18.9077
17.4197
16.0021
14.731
13.5335
12.4608
11.4556
10.56
9.72401
8.97587
8.27823
7.65409
7.07327
6.55107
6.06598
5.63053
5.22727
4.86385
4.52779
4.22442
3.94389
3.68985
3.4552
3.24117
3.04224
2.85905
2.68745
2.52657
2.37287
2.22582
2.08411
1.94724
1.8139
1.68338
1.5545
1.42482
1.29417
1.16354
1.03318
0.901788
0.769474
0.635591
0.499173
0.361474
0.218097
0.0814469
-5.13115
-4.95399
-4.71773
-4.63273
-4.38778
-4.25989
-3.92564
-3.59377
-3.03832
-2.4068
-1.61872
-0.684997
0.374027
1.62309
3.02079
4.67815
6.43678
8.34794
10.2458
12.3066
14.4113
16.5818
18.716
20.8574
22.8228
24.5492
26.0625
27.3383
28.3851
29.3068
30.047
30.6261
31.064
31.5251
32.3036
33.4819
34.8166
36.0074
36.9074
37.4446
37.6083
37.4426
36.9664
36.2034
35.1693
33.904
32.4379
30.8225
29.0886
27.3255
25.4969
23.7216
21.9455
20.2872
18.6747
17.2023
15.801
14.546
13.3645
12.307
11.3164
10.4341
9.61046
8.87328
8.18562
7.57026
6.99744
6.48226
6.00356
5.57379
5.17576
4.81702
4.48541
4.18631
3.90976
3.65945
3.42832
3.21741
3.02149
2.84115
2.67217
2.51366
2.3622
2.21721
2.07739
1.9423
1.81049
1.68128
1.55361
1.42493
1.2949
1.16465
1.03448
0.903171
0.770974
0.637078
0.500114
0.362185
0.218032
0.0829287
-5.12812
-4.95775
-4.72859
-4.64192
-4.39637
-4.27092
-3.94088
-3.61526
-3.0656
-2.44136
-1.66047
-0.734064
0.319235
1.56276
2.95672
4.6119
6.36436
8.26543
10.1561
12.2172
14.3206
16.4954
18.6524
20.8016
22.7498
24.4744
25.9944
27.2737
28.3247
29.2378
29.9295
30.4338
30.756
31.1413
31.9114
33.1049
34.4445
35.6453
36.5595
37.1132
37.2911
37.1316
36.6548
35.8899
34.853
33.5864
32.1213
30.5091
28.779
27.0216
25.2005
23.4358
21.6725
20.0287
18.432
16.9763
15.5923
14.3544
13.1898
12.1483
11.1731
10.3045
9.49378
8.76795
8.09063
7.48427
6.91966
6.4117
5.93955
5.5156
5.12298
4.76911
4.44202
4.14719
3.87486
3.62841
3.40084
3.1932
3.0005
2.82323
2.65692
2.50073
2.35154
2.20877
2.07101
1.93785
1.80764
1.67972
1.55323
1.42564
1.29635
1.16651
1.03649
0.905189
0.773034
0.63907
0.501519
0.36342
0.218449
0.0845622
-5.12801
-4.96216
-4.73945
-4.65157
-4.40549
-4.2828
-3.95704
-3.63763
-3.0938
-2.47697
-1.70343
-0.784552
0.262711
1.50033
2.89027
4.54322
6.28774
8.17692
10.0607
12.1217
14.2236
16.4053
18.5839
20.7317
22.6624
24.389
25.9171
27.1959
28.2496
29.1428
29.7811
30.1985
30.4026
30.7217
31.4856
32.6913
34.0359
35.2488
36.1775
36.751
36.9456
36.7958
36.3214
35.5576
34.5207
33.255
31.7928
30.1857
28.4607
26.7103
24.8977
23.1448
21.3953
19.7669
18.1871
16.7488
15.383
14.1627
13.0155
11.9903
11.0307
10.1761
9.37825
8.66374
7.99672
7.39928
6.84275
6.34193
5.87627
5.45813
5.07086
4.72182
4.39926
4.10852
3.84041
3.59787
3.37374
3.1694
2.98001
2.80586
2.64227
2.48839
2.34145
2.20095
2.06534
1.9342
1.80568
1.67901
1.55364
1.42714
1.29863
1.16922
1.03928
0.907941
0.77573
0.64158
0.503371
0.365082
0.219001
0.0866965
-5.12803
-4.96651
-4.74974
-4.66096
-4.41455
-4.29472
-3.97353
-3.66076
-3.12319
-2.5142
-1.74846
-0.837299
0.203287
1.43453
2.82045
4.4714
6.20684
8.08393
9.96089
12.0222
14.1231
16.3145
18.5115
20.6506
22.5684
24.3024
25.8376
27.1109
28.1628
29.0209
29.5983
29.9132
30.0008
30.2618
31.02
32.2347
33.5837
34.8105
35.7574
36.3547
36.5686
36.4315
35.9628
35.2024
34.168
32.9054
31.4479
29.8471
28.1282
26.3854
24.5825
22.8421
21.1073
19.4954
17.9335
16.5139
15.1673
13.9654
12.8365
11.8282
10.8849
10.045
9.26045
8.55751
7.90104
7.3127
6.76437
6.27072
5.81165
5.39944
5.0178
4.67379
4.35581
4.06914
3.80531
3.56678
3.34622
3.14525
2.95932
2.78839
2.62773
2.47631
2.33172
2.19352
2.06015
1.93109
1.80436
1.67895
1.55464
1.42921
1.30152
1.17258
1.04269
0.911282
0.77891
0.644463
0.505518
0.367111
0.219224
0.0901933
-5.12858
-4.97124
-4.76002
-4.67076
-4.42415
-4.30752
-3.99094
-3.68472
-3.15339
-2.55232
-1.79449
-0.891269
0.142075
1.36707
2.7486
4.39679
6.12174
7.98569
9.85466
11.9165
14.0168
16.2201
18.4302
20.5556
22.4647
24.2075
25.7454
27.0106
28.0551
28.8676
29.3789
29.5817
29.5599
29.7686
30.5193
31.7376
33.0903
34.3338
35.3058
35.929
36.1643
36.043
35.5835
34.8295
33.8005
32.5434
31.0924
29.4999
27.7887
26.055
24.2629
22.5362
20.8171
19.2224
17.6794
16.2791
14.9525
13.7696
12.6592
11.6681
10.7411
9.9158
9.14461
8.45316
7.80708
7.22776
6.68748
6.20084
5.7481
5.34145
4.9654
4.62669
4.31325
4.03059
3.77086
3.53621
3.31929
3.12172
2.93921
2.77148
2.61381
2.46498
2.32276
2.18686
2.05574
1.92876
1.8038
1.67968
1.55639
1.43198
1.30515
1.17673
1.04688
0.915427
0.782797
0.647934
0.508096
0.369587
0.218728
0.0958847
-5.12999
-4.9758
-4.76957
-4.68003
-4.43353
-4.3202
-4.00851
-3.70926
-3.18459
-2.59183
-1.84236
-0.947353
0.0780443
1.29654
2.67422
4.31987
6.03268
7.88273
9.74396
11.8072
13.9088
16.1254
18.3427
20.4522
22.3579
24.1103
25.6465
26.9028
27.9293
28.6841
29.1162
29.1997
29.0753
29.2354
29.975
31.1915
32.5481
33.8151
34.8167
35.4672
35.7276
35.6255
35.1786
34.4339
33.4131
32.1634
30.7202
29.1373
27.4354
25.7115
23.9316
22.2199
20.5175
18.941
17.4178
16.0381
14.7326
13.5697
12.4786
11.5052
10.595
9.78466
9.02714
8.34745
7.71194
7.14176
6.60971
6.13025
5.68405
5.28271
4.91184
4.57857
4.27004
3.99166
3.73601
3.50518
3.29207
3.09809
2.91906
2.75458
2.59999
2.45395
2.31419
2.18064
2.05182
1.92694
1.80377
1.681
1.55877
1.43534
1.30941
1.18157
1.05178
0.92031
0.787324
0.651907
0.510988
0.372301
0.217283
0.102888
-5.13387
-4.98092
-4.77913
-4.68965
-4.44345
-4.33371
-4.02694
-3.73453
-3.21648
-2.63212
-1.89109
-1.00452
0.0126165
1.22415
2.59845
4.2401
5.9382
7.77308
9.62717
11.6922
13.7958
16.0253
18.2433
20.336
22.2407
24.0004
25.5312
26.7785
27.776
28.467
28.8093
28.7754
28.5577
28.6698
29.3924
30.6019
31.9645
33.2623
34.2933
34.9755
35.2647
35.1851
34.7546
34.0226
33.0125
31.7728
30.3393
28.7675
27.0765
25.3637
23.5972
21.9019
20.2175
18.6598
17.1572
15.7986
14.5149
13.3725
12.301
11.3455
10.4521
9.65643
8.91229
8.24422
7.6191
7.05785
6.53375
6.06118
5.62143
5.22558
4.85956
4.53113
4.22752
3.95366
3.70205
3.47493
3.26554
3.0752
2.89962
2.73837
2.58681
2.44358
2.30634
2.17515
2.04863
1.92584
1.80445
1.68309
1.56198
1.43952
1.3145
1.18723
1.0576
0.92615
0.792728
0.656621
0.514461
0.375293
0.215871
0.10894
-5.13869
-4.98604
-4.78806
-4.69874
-4.45308
-4.34696
-4.04535
-3.76019
-3.24917
-2.67363
-1.94137
-1.06361
-0.0552087
1.14857
2.52087
4.15792
5.83959
7.6588
9.50809
11.5763
13.6827
15.9237
18.137
20.2136
22.1205
23.8862
25.4091
26.6449
27.599
28.2166
28.455
28.306
28.0005
28.0625
28.7613
29.9599
31.335
32.665
33.7269
34.4461
34.7691
34.7164
34.3058
33.5894
32.5922
31.3647
29.9434
28.3835
26.7047
25.0039
23.252
21.5741
19.9093
18.3719
16.8909
15.5543
14.2932
13.1722
12.1212
11.1841
10.3079
9.52729
8.79664
8.14025
7.52565
6.97343
6.45732
5.99156
5.55809
5.16796
4.80701
4.48308
4.18436
3.91522
3.66781
3.44449
3.23886
3.05221
2.88019
2.72224
2.57379
2.43343
2.29888
2.17015
2.04597
1.92527
1.80571
1.68584
1.56596
1.44444
1.32035
1.19361
1.0642
0.9328
0.798843
0.661877
0.518386
0.378338
0.215654
0.112248
-5.14426
-4.99191
-4.79726
-4.70834
-4.46338
-4.36112
-4.06462
-3.78652
-3.28246
-2.71584
-1.99243
-1.12369
-0.12438
1.07126
2.44234
4.07206
5.73556
7.53972
9.38464
11.4559
13.5645
15.8145
18.0176
20.0793
21.9893
23.7581
25.271
26.491
27.391
27.9268
28.0566
27.8017
27.4143
27.4215
28.0888
29.2744
30.668
32.0286
33.1276
33.8882
34.2492
34.2274
33.8402
33.1424
32.1605
30.9477
29.5404
27.9944
26.3293
24.6419
22.9057
21.2461
19.6018
18.0859
16.6275
15.3135
14.0752
12.9758
11.9454
11.0268
10.1677
9.40206
8.68459
8.03947
7.43493
6.89137
6.38289
5.92378
5.4963
5.11172
4.75589
4.43637
4.14226
3.8777
3.63449
3.41495
3.21299
3.02996
2.86149
2.70683
2.56147
2.42398
2.29214
2.16597
2.0441
1.92544
1.80769
1.68938
1.57081
1.45025
1.32712
1.20087
1.07174
0.940359
0.805825
0.667867
0.523084
0.382043
0.217496
0.113465
-5.14831
-4.99726
-4.80564
-4.71724
-4.47329
-4.37488
-4.0837
-3.81305
-3.31633
-2.75896
-2.04495
-1.18557
-0.19606
0.991981
2.3623
3.98293
5.6278
7.41905
9.26061
11.3353
13.4468
15.7029
17.8921
19.9421
21.8569
23.6263
25.1271
26.3228
27.1566
27.5965
27.613
27.2577
26.7893
26.7355
27.3629
28.5368
29.9528
31.3432
32.4876
33.2937
33.6979
33.7104
33.3502
32.674
31.7104
30.5141
29.1219
27.5915
25.942
24.2692
22.5502
20.9098
19.2873
17.7943
16.3599
15.0696
13.855
12.7777
11.7684
10.8687
10.0272
9.27678
8.57272
7.93888
7.34428
6.8092
6.30819
5.85562
5.43405
5.05485
4.70427
4.38941
4.09985
3.83979
3.60085
3.38521
3.18702
3.00766
2.84284
2.69159
2.54941
2.41487
2.28585
2.16236
2.04286
1.92621
1.81031
1.69363
1.57644
1.4569
1.33471
1.20897
1.08009
0.94859
0.813467
0.67449
0.52847
0.38644
0.220469
0.114306
-5.15415
-5.00335
-4.81423
-4.7266
-4.48383
-4.38953
-4.10362
-3.84021
-3.35076
-2.80269
-2.09822
-1.24832
-0.26936
0.912257
2.2807
3.88936
5.51429
7.29288
9.13211
11.2091
13.3233
15.5819
17.7536
19.7942
21.7137
23.4797
24.9661
26.1288
26.8894
27.222
27.1289
26.6837
26.1376
26.0153
26.5936
27.7564
29.199
30.6225
31.8167
32.6738
33.1252
33.1746
32.845
32.1933
31.2513
30.0733
28.6973
27.1847
25.5522
23.8956
22.1954
20.5754
18.9755
17.5061
16.0967
14.8307
13.64
12.5849
11.5965
10.7156
9.89135
9.1558
8.46488
7.84207
7.25693
6.72985
6.23596
5.78962
5.37372
4.99956
4.65388
4.34365
4.05855
3.80285
3.56811
3.35633
3.16189
2.98616
2.82497
2.67712
2.53811
2.40652
2.28032
2.15952
2.04241
1.92774
1.81367
1.69866
1.58288
1.46445
1.34315
1.21792
1.08931
0.957737
0.822105
0.682153
0.534816
0.391828
0.223732
0.116408
-5.16054
-5.00898
-4.82181
-4.73514
-4.49383
-4.40363
-4.12322
-3.86744
-3.38564
-2.84722
-2.15265
-1.31265
-0.345248
0.831116
2.19756
3.79334
5.3979
7.16465
9.00366
11.0827
13.2007
15.4575
17.6106
19.6453
21.5695
23.3293
24.7982
25.9154
26.5928
26.8052
26.6044
26.0737
25.4491
25.2489
25.7702
26.9228
28.3938
29.8563
31.1046
32.0196
32.5218
32.6126
32.3174
31.693
30.7748
29.6166
28.2593
26.765
25.151
23.5122
21.8321
20.2344
18.6582
17.2136
15.8303
14.5899
13.4241
12.3917
11.4248
10.5628
9.75586
9.0351
8.35732
7.74559
7.16991
6.65064
6.16367
5.72343
5.31313
4.94417
4.6031
4.29738
4.01685
3.76555
3.53507
3.32724
3.13668
2.96469
2.80724
2.66289
2.52716
2.39859
2.2753
2.15721
2.0426
1.93
1.81779
1.70448
1.5901
1.47282
1.35237
1.22767
1.09943
0.967811
0.831543
0.69052
0.541665
0.397618
0.226302
0.119638
-5.16895
-5.01556
-4.82985
-4.74426
-4.50453
-4.41865
-4.14368
-3.8953
-3.42105
-2.89242
-2.20778
-1.37781
-0.422616
0.749652
2.11242
3.69258
5.27563
7.03168
8.87095
10.9502
13.0714
15.3219
17.4556
19.4862
21.4127
23.1632
24.611
25.6732
26.2589
26.346
26.0456
25.4381
24.7364
24.449
24.9077
26.0505
27.5491
29.0561
30.3654
31.3431
31.8989
32.0361
31.7783
31.1844
30.2916
29.1551
27.8182
26.3432
24.7495
23.1299
21.4708
19.8969
18.3453
16.9262
15.5698
14.3552
13.2147
12.2051
11.2594
10.4162
9.62594
8.91928
8.25389
7.65273
7.08612
6.57434
6.09385
5.65933
5.25414
4.89039
4.55369
4.25227
3.97619
3.72918
3.50286
3.29897
3.11229
2.94403
2.7903
2.64944
2.51698
2.39141
2.27102
2.15561
2.04353
1.93305
1.82267
1.71104
1.59804
1.48195
1.36239
1.23837
1.11065
0.978944
0.841824
0.699711
0.549284
0.404165
0.228853
0.123806
-5.17613
-5.02171
-4.83709
-4.75253
-4.5146
-4.43295
-4.1636
-3.92302
-3.45668
-2.93818
-2.26391
-1.44455
-0.50191
0.667778
2.02562
3.5886
5.15129
6.89903
8.73908
10.8184
12.9432
15.1836
17.2987
19.3273
21.2541
22.9933
24.4137
25.4103
25.8907
25.8483
25.4524
24.7705
23.9877
23.6036
23.9954
25.1283
26.6542
28.2116
29.5886
30.6335
31.2474
31.4359
31.2182
30.6573
29.7919
28.6794
27.3646
25.9102
24.3385
22.7398
21.1027
19.5539
18.0287
16.6362
15.3076
14.1197
13.0053
12.019
11.0949
10.2707
9.4973
8.80465
8.15142
7.56037
7.00253
6.49803
6.02388
5.59495
5.19482
4.83588
4.50375
4.20669
3.93507
3.69236
3.47029
3.27047
3.08781
2.92341
2.77351
2.63625
2.50717
2.38469
2.26729
2.15463
2.04514
1.93686
1.82837
1.71839
1.60677
1.49193
1.37333
1.25001
1.1227