/*--------------------------------*- C++ -*----------------------------------*\
| =========                 |                                                 |
| \\      /  F ield         | OpenFOAM: The Open Source CFD Toolbox           |
|  \\    /   O peration     | Version:  4.1                                   |
|   \\  /    A nd           | Web:      www.OpenFOAM.org                      |
|    \\/     M anipulation  |                                                 |
\*---------------------------------------------------------------------------*/
FoamFile
{
    version     2.0;
    format      ascii;
    class       surfaceScalarField;
    location    "21";
    object      phi;
}
// * * * * * * * * * * * * * * * * * * * * * * * * * * * * * * * * * * * * * //

dimensions      [0 3 -1 0 0 0 0];

internalField   nonuniform List<scalar> 
52920
(
2126.47
-89.0622
2212
-86.3717
2299.98
-87.8976
2385.98
-86.7975
2473.41
-86.0817
2557.73
-85.206
2643.28
-84.4507
2725.16
-82.9688
2807.69
-81.2281
2886.43
-79.1206
2964.5
-76.5086
3039.21
-73.7951
3112.24
-70.6698
3179.88
-67.7139
3244.69
-64.4022
3306.95
-61.3645
3365.11
-58.1775
3421.87
-55.5561
3474.73
-53.0175
3526.87
-51.238
3576.25
-49.7597
3626.21
-49.4574
3675.42
-49.5909
3726
-50.5072
3777.99
-52.1657
3832.34
-54.6759
3889.56
-57.6697
3950.74
-61.1408
4014.94
-64.7298
4083.61
-68.5322
4153.91
-71.2922
4226.27
-71.8489
4296.2
-70.2693
4364.84
-68.9136
4432.35
-67.5659
4496.32
-64.7111
4554.14
-58.2541
4605.17
-51.5798
4658.46
-54.0261
4726.26
-67.8541
4804.21
-78.5935
4887.47
-83.9711
4976.61
-89.9515
5073.24
-97.4187
5178.01
-105.375
5290.78
-113.193
5410.7
-120.272
5535.27
-126.063
5665.08
-130.811
5797.95
-134.029
5932.52
-135.888
6068.35
-136.645
6203.15
-136.261
6337.97
-135.354
6470.45
-133.742
6602.19
-132.022
6730.95
-129.901
6858.72
-127.868
6983.39
-125.598
7106.96
-123.487
7227.5
-121.285
7346.97
-119.31
7463.77
-117.333
7579.57
-115.586
7693.05
-113.882
7805.65
-112.392
7916.31
-110.946
8026.18
-109.675
8134.4
-108.446
8241.93
-107.359
8348.07
-106.308
8453.59
-105.37
8557.92
-104.467
8661.71
-103.659
8764.51
-102.883
8866.81
-102.186
8968.27
-101.521
9069.29
-100.922
9169.61
-100.354
9269.53
-99.8399
9368.87
-99.3539
9467.86
-98.9135
9566.36
-98.4986
9664.54
-98.121
9762.32
-97.7666
9859.82
-97.4422
9956.98
-97.1386
10053.9
-96.8591
10150.5
-96.5985
10246.9
-96.3582
10343.1
-96.1356
10439
-95.9297
10534.8
-95.7413
10630.4
-95.5617
10725.8
-95.4127
10821
-95.1993
10916.3
-95.234
11010.8
-94.4982
11108.5
-97.7095
-92.4086
2257.01
-185.042
2351.86
-182.09
2449.73
-185.632
2546.1
-183.966
2644.16
-182.676
2739.53
-181.513
2836.55
-180.35
2930.11
-177.77
3024.81
-174.731
3115.7
-170.606
3206.32
-165.726
3293.45
-159.955
3379.28
-154.013
3459.34
-148.005
3537.01
-141.793
3612.15
-135.665
3683.49
-129.646
3753.36
-124.28
3819.64
-119.567
3885.33
-116.132
3948.63
-113.546
4012.6
-112.937
4076.13
-113.57
4141.33
-115.548
4208.22
-119.229
4277.71
-124.292
4350.14
-130.439
4426.66
-137.3
4506.38
-144.702
4590.51
-152.429
4676.22
-157.841
4763.74
-158.852
4848.9
-155.813
4932.71
-152.902
5015
-149.971
5092.89
-143.133
5163.33
-129.115
5226.21
-115.07
5291.75
-120.289
5372.32
-148.478
5462.67
-169.577
5557.42
-179.682
5657.08
-190.672
5763.18
-204.462
5876.18
-219.127
5995.72
-233.243
6120.78
-245.654
6248.8
-255.826
6380.23
-263.276
6512.84
-267.95
6645.37
-269.795
6777.3
-269.477
6906.6
-267.078
7034.19
-263.527
7158
-258.902
7279.53
-253.883
7396.8
-248.427
7511.69
-242.922
7622.32
-237.246
7730.56
-231.707
7834.71
-226.276
7936.62
-221.11
8034.86
-216.186
8131.03
-211.564
8223.92
-207.264
8314.96
-203.236
8403.15
-199.5
8489.65
-195.987
8573.66
-192.745
8656.13
-189.679
8736.43
-186.837
8815.34
-184.139
8892.34
-181.645
8968.06
-179.272
9042.11
-177.073
9115.01
-174.979
9186.42
-173.043
9256.78
-171.196
9325.83
-169.484
9393.91
-167.851
9460.84
-166.336
9526.87
-164.889
9591.88
-163.543
9656.07
-162.257
9719.34
-161.058
9781.85
-159.91
9843.55
-158.837
9904.53
-157.809
9964.78
-156.846
10024.4
-155.924
10083.3
-155.058
10141.6
-154.232
10199.4
-153.458
10256.5
-152.721
10313.2
-152.033
10369.4
-151.363
10424.9
-150.74
10480.4
-149.996
10532.7
-150.027
-150.231
2400.74
-288.547
2506.05
-288.213
2614.41
-293.94
2721.41
-291.759
2829.82
-289.807
2935.47
-288.005
3042.19
-285.992
3145.24
-281.816
3248.77
-276.934
3348.19
-270.296
3446.75
-262.676
3541.47
-253.829
3634.38
-244.672
3721.44
-235.072
3805.71
-225.604
3887.15
-216.206
3964.55
-207.013
4040.14
-198.681
4111.92
-191.468
4182.67
-185.975
4250.68
-181.879
4318.71
-180.473
4385.64
-180.856
4453.3
-183.166
4521.57
-187.695
4591.12
-194.213
4662.07
-201.912
4735.26
-210.584
4809.66
-219.771
4886.45
-229.127
4963.35
-235.76
5040.72
-235.755
5114.22
-229.741
5184.69
-223.753
5253.14
-218.533
5319.1
-209.936
5380.88
-191.359
5435.99
-170.768
5489.71
-174.91
5552.65
-211.58
5620.68
-238.316
5689.46
-249.198
5759.41
-261.466
5831.49
-277.338
5905.53
-293.765
5981.01
-309.11
6057.08
-321.993
6131.54
-331.887
6205.19
-337.992
6276.39
-340.355
6344.34
-339.218
6409.21
-335.183
6469.36
-328.91
6526.41
-321.13
6578.53
-312.501
6627.78
-303.408
6672.27
-294.28
6714.36
-285.078
6752.16
-276.173
6787.96
-267.385
6819.95
-259.201
6850.33
-251.277
6877.51
-244.06
6903.39
-237.158
6926.57
-230.982
6948.71
-225.098
6968.66
-219.842
6987.77
-214.83
7005.07
-210.364
7021.71
-206.093
7036.91
-202.271
7051.59
-198.612
7065.11
-195.342
7078.23
-192.211
7090.43
-189.406
7102.35
-186.728
7113.55
-184.33
7124.54
-182.047
7135
-179.998
7145.33
-178.055
7155.29
-176.312
7165.17
-174.667
7174.82
-173.19
7184.47
-171.804
7193.99
-170.561
7203.56
-169.403
7213.12
-168.365
7222.78
-167.405
7232.52
-166.551
7242.42
-165.772
7252.49
-165.086
7262.78
-164.477
7273.3
-163.95
7284.14
-163.517
7295.25
-163.114
7306.89
-162.97
7318.43
-162.254
7331.84
-163.386
7338.85
-157.022
-166.404
2527.99
-395.741
2638.38
-399.306
2750.06
-405.524
2858.85
-401.256
2967.29
-396.957
3071.4
-392.952
3174.8
-388.382
3273.11
-381.266
3370.29
-373.01
3462.11
-362.694
3551.72
-350.949
3636.41
-337.66
3718.18
-324.114
3793.24
-310.321
3864.57
-296.61
3932.19
-283.032
3994.95
-269.798
4055.01
-257.627
4110.32
-246.977
4163.53
-238.383
4212.73
-231.573
4260.48
-227.7
4305.31
-226.239
4348.84
-226.506
4390.63
-229.862
4431.11
-234.785
4470.16
-241.482
4508.31
-248.395
4544.19
-256.052
4579.48
-264.298
4613.16
-270.422
4646.64
-268.88
4674.27
-258.028
4695.78
-245.621
4713.8
-236.907
4732.53
-229.143
4754.22
-213.407
4772.38
-189.371
4782.63
-185.817
4793.86
-222.852
4804.29
-249.681
4811.29
-257.533
4815.98
-267.394
4819.22
-281.591
4820.1
-295.431
4818.06
-307.503
4812.77
-316.96
4802.63
-324.188
4789.99
-326.875
4774.47
-326.817
4756.73
-323.697
4738.62
-318.56
4719.32
-312.198
4701.94
-304.805
4684.68
-297.585
4670.55
-289.945
4657.07
-283.008
4647.28
-275.69
4638.38
-269.099
4633.12
-262.231
4628.64
-256.251
4627.55
-250.134
4627.25
-244.891
4629.93
-239.654
4633.33
-235.255
4639.33
-230.902
4646.08
-227.228
4655.09
-223.623
4664.79
-220.586
4676.48
-217.605
4688.87
-215.066
4703.02
-212.592
4717.85
-210.49
4734.22
-208.455
4751.3
-206.721
4769.75
-205.066
4788.9
-203.668
4809.29
-202.354
4830.41
-201.254
4852.67
-200.241
4875.67
-199.414
4899.74
-198.673
4924.57
-198.09
4950.41
-197.594
4977.05
-197.235
5004.64
-196.958
5033.05
-196.797
5062.39
-196.713
5092.57
-196.733
5123.65
-196.83
5155.59
-197.02
5188.43
-197.288
5222.13
-197.642
5256.73
-198.095
5292.23
-198.585
5328.6
-199.32
5365.93
-199.562
5403.74
-201.187
5444.14
-197.418
-203.182
2605
-495.945
2705.81
-500.812
2804.59
-504.281
2898.17
-495.596
2989.22
-486.805
3073.87
-478.428
3155.73
-469.157
3230.58
-457.094
3302.46
-443.501
3367.29
-427.75
3428.39
-410.318
3483.2
-391.59
3533.91
-372.402
3576.77
-353.142
3614.9
-334.189
3648.49
-315.563
3676.3
-297.532
3700.68
-280.601
3719.29
-265.727
3734.89
-252.875
3745.22
-242.331
3752.85
-234.745
3755.91
-229.821
3755.97
-226.604
3752.36
-226.591
3745.49
-228.567
3735.42
-232.253
3722.67
-235.929
3705.24
-239.71
3685.03
-244.03
3662.53
-249.596
3642.43
-248.109
3617.71
-234.041
3584.23
-212.812
3542.62
-195.356
3500.6
-188.496
3468.24
-181.689
3438.3
-160.436
3396.97
-146.462
3354.26
-180.683
3309.51
-206.511
3259.51
-208.781
3206.11
-215.536
3151.41
-228.439
3094.3
-239.487
3035.5
-249.515
2977.59
-259.722
2921.95
-272.068
2875.52
-282.893
2840.31
-294.235
2818.26
-304.825
2811.83
-313.928
2818.18
-321.905
2839.68
-327.484
2871.11
-331.769
2914.27
-333.722
2963.31
-334.405
3020.4
-333.002
3080.06
-330.589
3144.65
-326.72
3209.45
-322.48
3277.04
-317.489
3343.72
-312.567
3411.81
-307.402
3478.39
-302.568
3545.57
-297.745
3611.11
-293.286
3676.75
-288.946
3740.73
-284.964
3804.53
-281.137
3866.8
-277.621
3928.74
-274.277
3989.26
-271.225
4049.37
-268.353
4108.26
-265.745
4166.71
-263.322
4224.1
-261.147
4281.07
-259.156
4337.16
-257.388
4392.87
-255.797
4447.86
-254.411
4502.51
-253.192
4556.59
-252.158
4610.4
-251.28
4663.76
-250.568
4716.9
-249.995
4769.71
-249.568
4822.35
-249.267
4874.76
-249.098
4927.04
-249.047
4979.19
-249.118
5031.25
-249.301
5083.25
-249.6
5135.22
-250.021
5187.21
-250.534
5239.16
-251.226
5291.41
-251.782
5343.02
-252.773
5398.06
-252.444
-253.704
2582.46
-574.705
2659.85
-578.894
2732.5
-576.872
2798.06
-561.905
2859.14
-546.536
2911.58
-531.768
2959.08
-515.521
2997.48
-496.779
3031.36
-476.113
3056.78
-453.843
3077.75
-429.682
3091.91
-404.75
3101.93
-379.606
3103.87
-355.277
3101.31
-331.195
3094.56
-307.767
3082.18
-285.126
3066.86
-263.774
3045.7
-244.807
3021.86
-227.953
2992.52
-213.774
2960.71
-202.296
2924.07
-194.176
2884.5
-186.967
2841.18
-184.095
2794.77
-182.55
2746.03
-184.628
2696.43
-186.022
2643.15
-187.339
2587.12
-188.044
2528.22
-192.761
2476.74
-196.187
2427.02
-185.651
2370.07
-156.672
2298.52
-124.384
2217.7
-108.517
2145.75
-109.967
2078.6
-94.0527
1999.59
-68.99
1934.25
-115.853
1874.91
-149.278
1802.39
-138.945
1721.06
-136.713
1645.2
-154.747
1583.81
-179.609
1546.5
-212.972
1541.72
-255.667
1570.22
-305.444
1635.44
-351.335
1729.48
-391.84
1843.82
-423.087
1972.58
-445.182
2106.03
-459.315
2243.53
-466.689
2377.76
-469.223
2510.6
-467.654
2636.69
-463.304
2759.41
-456.424
2874.59
-448.008
2985.87
-438.337
3089.91
-428.32
3190.3
-418.013
3284.43
-408.016
3375.34
-398.275
3460.94
-389.172
3543.8
-380.516
3622.28
-372.505
3698.42
-364.966
3770.9
-358.031
3841.39
-351.53
3908.86
-345.543
3974.64
-339.953
4037.88
-334.832
4099.68
-330.077
4159.39
-325.736
4217.87
-321.737
4274.62
-318.12
4330.33
-314.819
4384.64
-311.858
4438.06
-309.185
4490.35
-306.82
4541.9
-304.718
4592.55
-302.89
4642.59
-301.299
4691.91
-299.951
4740.75
-298.81
4789.02
-297.88
4836.9
-297.135
4884.36
-296.577
4931.51
-296.189
4978.35
-295.971
5024.97
-295.91
5071.38
-296.01
5117.65
-296.271
5163.81
-296.687
5209.89
-297.282
5256.09
-297.977
5302.11
-298.78
5349.58
-299.912
-299.672
2457.29
-628.843
2506.8
-629.102
2547.91
-617.948
2579.08
-593.968
2603.42
-569.536
2617
-546.32
2624.73
-521.946
2623.06
-496.284
2617.98
-469.251
2605.83
-441.912
2591.59
-413.144
2572.82
-384.777
2552.61
-356.082
2526.08
-328.671
2497.14
-301.428
2465.83
-274.888
2429.99
-249.138
2392.62
-224.245
2349.74
-202.102
2305.14
-181.569
2255.12
-164.368
2203.56
-149.784
2147.57
-138.983
2089.77
-129.294
2029.29
-124.115
1966.9
-121.453
1904.29
-123.577
1844.59
-126.997
1785.24
-130.178
1726.27
-129.148
1662.9
-132.976
1609.18
-141.234
1562.41
-140.443
1513.12
-108.943
1447.59
-59.0388
1362.85
-27.2862
1275.79
-24.6728
1182.82
-4.29358
1076.03
31.4177
1007.17
-49.7065
947.401
-97.7106
860.071
-59.4595
776.354
-58.7263
756.527
-139.183
813.153
-238.844
930.328
-331.742
1086.1
-412.936
1259.18
-483.09
1442.34
-537.602
1625.69
-578.088
1803.87
-604.624
1976.12
-619.251
2138.12
-624.579
2293.07
-622.76
2437.24
-615.927
2574.41
-605.376
2701.28
-592.281
2821.99
-577.292
2933.58
-561.2
3039.93
-544.551
3138.41
-528.053
3232.63
-511.959
3320.4
-496.657
3404.67
-482.206
3483.65
-468.787
3559.78
-456.307
3631.61
-444.786
3701.08
-434.12
3766.99
-424.294
3830.94
-415.208
3891.97
-406.827
3951.36
-399.088
4008.31
-391.969
4063.88
-385.419
4117.44
-379.416
4169.83
-373.924
4220.57
-368.926
4270.32
-364.39
4318.73
-360.293
4366.32
-356.607
4412.82
-353.314
4458.63
-350.39
4503.59
-347.817
4547.99
-345.57
4591.71
-343.631
4634.99
-341.975
4677.74
-340.586
4720.15
-339.443
4762.16
-338.539
4803.91
-337.858
4845.38
-337.392
4886.66
-337.128
4927.76
-337.068
4968.75
-337.213
5009.67
-337.565
5050.56
-338.129
5091.58
-338.962
5132.61
-339.774
5174.56
-341.849
-341.071
2265.42
-655.981
2281.74
-646.204
2285.48
-621.649
2278.15
-587.557
2265.41
-555.146
2244.67
-526.716
2222.81
-498.6
2196.46
-471.595
2172.65
-443.761
2146.71
-416.812
2123.71
-387.979
2099.82
-359.477
2077.71
-330.052
2050.58
-301.855
2022.27
-272.56
1992.15
-243.219
1956.98
-213.967
1920.09
-185.159
1876.34
-158.776
1830.26
-133.977
1777.33
-112.766
1722.5
-94.3176
1662.45
-80.651
1600.9
-68.1692
1537.22
-61.9192
1472.29
-57.9153
1408.14
-61.6299
1349.33
-68.2362
1294.49
-77.2508
1245.11
-80.3037
1191.46
-83.5716
1145.79
-94.8776
1104.13
-100.958
1060.74
-67.0792
1005.44
-4.22855
931.101
45.24
833.932
72.5326
712.34
115.295
595.571
143.625
473.663
68.0282
300.663
61.731
240.481
-5.80649
355.767
-177.789
516.747
-302.478
698.635
-421.873
891.322
-524.985
1087.28
-609.677
1279.36
-679.11
1468.4
-729.426
1650.81
-763.434
1824.7
-781.893
1991.22
-787.925
2147.37
-784.186
2296.49
-773.438
2435.33
-757.684
2567.44
-738.547
2689.71
-717.142
2806.01
-694.316
2913.49
-670.817
3015.87
-647.332
3110.58
-624.513
3201.08
-602.673
3285.24
-582.126
3365.92
-562.936
3441.35
-545.22
3513.91
-528.851
3582.16
-513.803
3648.02
-499.928
3710.3
-487.186
3770.57
-475.431
3827.87
-464.616
3883.47
-454.64
3936.58
-445.48
3988.25
-437.051
4037.86
-429.333
4086.23
-422.264
4132.89
-415.832
4178.5
-409.978
4222.71
-404.686
4266.02
-399.904
4308.19
-395.624
4349.61
-391.799
4390.1
-388.417
4429.98
-385.437
4469.12
-382.843
4507.74
-380.596
4545.79
-378.682
4583.42
-377.07
4620.6
-375.755
4657.46
-374.71
4693.98
-373.932
4730.25
-373.399
4766.29
-373.116
4802.17
-373.08
4837.92
-373.312
4873.6
-373.801
4909.36
-374.707
4945.13
-375.543
4981.62
-378.341
-377.324
2019.74
-652.964
2000.76
-628.012
1971.96
-592.82
1939.69
-556.432
1911.71
-525.479
1884.66
-500.902
1865.07
-477.318
1847.13
-455.128
1836.9
-431.219
1827.09
-407.195
1821.84
-379.776
1815.52
-351.56
1810.3
-320.608
1797.95
-289.393
1782.55
-256.089
1763.24
-221.848
1736.33
-186.857
1705.71
-151.752
1665.69
-118.948
1621.52
-87.4519
1568.3
-60.2699
1511.78
-36.5809
1448.52
-18.3284
1383.15
-3.09914
1315.59
5.06776
1246.73
8.82505
1178.79
3.9793
1116.68
-7.47546
1059.88
-23.9678
1013.08
-33.9328
964.914
-41.1311
923.664
-51.7209
879.066
-58.3926
829.013
-19.0719
772.318
52.4244
693.422
118.177
573.248
189.496
411.736
271.013
267.298
275.767
141.552
187.585
118.833
61.9392
196.855
-90.8328
337.683
-323.674
506.393
-474.94
692.219
-610.04
885.827
-720.18
1080.86
-806.206
1271.36
-873.127
1458.24
-918.865
1638.67
-946.152
1810.74
-956.782
1975.52
-954.163
2130.01
-941.482
2277.33
-921.65
2414.28
-896.859
2544.25
-868.911
2664.24
-838.987
2778
-808.12
2882.84
-777.078
2982.37
-746.634
3074.16
-717.408
3161.58
-689.751
3242.58
-663.911
3319.99
-639.942
3392.07
-617.876
3461.17
-597.581
3525.91
-578.949
3588.16
-561.827
3646.75
-546.097
3703.24
-531.625
3756.7
-518.303
3808.38
-506.039
3857.49
-494.759
3905.09
-484.393
3950.54
-474.881
3994.68
-466.174
4037.02
-458.225
4078.23
-450.988
4117.96
-444.42
4156.72
-438.477
4194.25
-433.125
4230.94
-428.33
4266.63
-424.058
4301.62
-420.272
4335.78
-416.942
4369.34
-414.03
4402.24
-411.511
4434.63
-409.356
4466.49
-407.55
4497.94
-406.067
4528.97
-404.899
4559.66
-404.022
4590.04
-403.439
4620.16
-403.151
4650.08
-403.185
4679.86
-403.53
4709.62
-404.422
4739.33
-405.217
4769.58
-408.572
-407.665
1740.69
-622.228
1706.13
-594.379
1676.91
-563.571
1656.4
-537.085
1648.75
-515.821
1646.23
-499.713
1653.07
-482.384
1660.7
-464.686
1674.38
-442.978
1685.55
-419.285
1698.37
-390.214
1706.98
-358.514
1713.92
-323.147
1710.96
-286.869
1702.78
-247.379
1688.75
-206.041
1665.3
-163.471
1636.7
-120.742
1597.16
-80.0347
1552.27
-40.9895
1497.04
-6.73223
1437.71
23.1101
1370.94
46.3035
1301.4
65.3234
1228.9
75.6976
1154.13
81.1106
1079.57
75.4862
1010.14
61.1487
945.776
37.5095
893.864
16.6986
844.577
2.04264
804.131
-10.1688
753.506
-10.2573
692.632
40.2081
625.995
119.698
532.328
210.274
383.518
339.202
192.762
459.904
54.9382
406.521
-79.1705
316.626
-34.2579
4.57342
145.712
-271.684
311.808
-491.278
494.305
-658.659
684.955
-801.352
879.544
-915.215
1074.21
-1001.63
1263.95
-1065.96
1449.31
-1106.63
1627.86
-1127.18
1797.79
-1129.71
1960.18
-1118.48
2112.22
-1096.69
2256.87
-1067.75
2391.09
-1033.84
2518.15
-997.008
2635.18
-958.517
2745.85
-919.535
2847.56
-880.882
2943.87
-843.4
3032.44
-807.704
3116.57
-774.147
3194.28
-742.939
3268.33
-714.1
3337.04
-687.617
3402.73
-663.304
3464.01
-641.024
3522.76
-620.564
3577.8
-601.794
3630.7
-584.518
3680.5
-568.631
3728.47
-553.991
3773.81
-540.53
3817.56
-528.138
3859.1
-516.763
3899.26
-506.322
3937.54
-496.781
3974.61
-488.062
4010.11
-480.131
4044.55
-472.921
4077.67
-466.406
4109.87
-460.53
4140.96
-455.266
4171.24
-450.557
4200.6
-446.381
4229.24
-442.683
4257.12
-439.442
4284.37
-436.617
4310.98
-434.196
4337.06
-432.146
4362.59
-430.457
4387.67
-429.102
4412.31
-428.085
4436.56
-427.406
4460.48
-427.105
4484.12
-427.159
4507.59
-427.891
4530.87
-428.491
4554.43
-432.136
-431.609
1488.54
-613.658
1487.14
-593.826
1492.41
-568.815
1503.65
-549.675
1523.89
-534.254
1544.76
-521.9
1570.82
-506.659
1593.69
-489.046
1619.3
-466.113
1639.54
-439.6
1659.15
-406.711
1672.69
-370.378
1683.17
-329.271
1682.6
-286.134
1675.98
-239.559
1662.85
-190.717
1639.73
-140.063
1611.02
-89.0191
1570.76
-39.8643
1524.87
7.53818
1468.59
49.0514
1407.56
85.5058
1338.15
115.084
1264.83
138.51
1187.65
152.629
1107.25
159.403
1026.58
153.877
950.325
135.736
878.746
105.061
820.21
74.4515
766.158
49.3295
723.222
34.8636
666.247
44.6706
595.817
108.45
519.326
195.788
402.705
319.738
213.721
524.088
23.3913
644.038
-75.0732
495.162
-75.7126
312.392
-12.7299
-68.5275
137.555
-427.361
307.656
-665.589
490.623
-844.938
680.573
-993.542
873.839
-1110.12
1066.66
-1195.99
1254.44
-1256.71
1437.37
-1291.81
1613.39
-1305.1
1780.68
-1299.49
1940.4
-1279.41
2089.77
-1248.56
2231.67
-1210.37
2363.11
-1167.28
2487.32
-1121.47
2601.46
-1074.33
2709.18
-1027.18
2807.93
-980.91
2901.25
-936.397
2986.82
-894.268
3067.94
-854.85
3142.63
-818.328
3213.65
-784.666
3279.32
-753.803
3341.95
-725.511
3400.16
-699.6
3455.8
-675.824
3507.72
-654
3557.46
-633.924
3604.07
-615.443
3648.8
-598.413
3690.85
-582.725
3731.27
-568.275
3769.41
-554.98
3806.11
-542.762
3840.86
-531.558
3874.33
-521.3
3906.14
-511.928
3936.82
-503.381
3966.07
-495.614
3994.31
-488.575
4021.33
-482.222
4047.45
-476.499
4072.52
-471.368
4096.76
-466.779
4120.1
-462.699
4142.7
-459.088
4164.52
-455.926
4185.65
-453.179
4206.1
-450.829
4225.92
-448.848
4245.14
-447.237
4263.8
-445.999
4281.93
-445.179
4299.57
-444.745
4316.83
-445.098
4333.65
-445.274
4350.32
-448.775
-448.922
1378.77
-625.528
1396.67
-612.651
1419.27
-591.383
1444.84
-576.465
1476.63
-564.016
1506.53
-553.095
1539.47
-537.813
1567.42
-518.913
1596.62
-493.435
1619.34
-463.199
1640.52
-425.565
1655.01
-383.175
1665.97
-335.797
1665.53
-286.164
1658.84
-232.375
1645.53
-175.518
1622.09
-116.682
1592.93
-57.3718
1552.06
0.310116
1505.79
55.2997
1449.07
104.106
1386.86
147.848
1315.83
184.02
1240.27
212.658
1160.14
230.856
1076.03
240.606
990.986
235.646
909.394
215.958
831.745
179.476
766.385
138.032
705.588
103.621
656.086
85.5869
591.719
106.604
517.01
182.426
428.602
286.626
257.964
489.632
29.6457
753.698
-131.697
804.707
-207.369
564.962
-130.857
232.42
-16.0867
-185.072
129.668
-573.665
301.253
-838.288
484.091
-1028.86
673.291
-1183.47
865.194
-1302.62
1056.12
-1387.79
1241.85
-1445.08
1422.35
-1474.52
1595.84
-1480.78
1760.55
-1466.98
1917.64
-1438.25
2064.38
-1398.3
2203.58
-1350.95
2332.32
-1298.68
2453.75
-1243.91
2565.11
-1188.15
2670.01
-1132.83
2765.96
-1078.94
2856.47
-1027.38
2939.26
-978.793
3017.6
-933.488
3089.54
-891.613
3157.83
-853.091
3220.78
-817.818
3280.71
-785.509
3336.22
-755.942
3389.18
-728.814
3438.42
-703.924
3485.48
-681.011
3529.4
-659.917
3571.43
-640.454
3610.75
-622.517
3648.42
-605.959
3683.78
-590.707
3717.66
-576.652
3749.54
-563.738
3780.09
-551.868
3808.92
-540.991
3836.55
-531.024
3862.68
-521.929
3887.72
-513.634
3911.47
-506.099
3934.21
-499.253
3955.81
-493.06
3976.48
-487.456
3996.12
-482.411
4014.9
-477.871
4032.75
-473.816
4049.76
-470.206
4065.93
-467.016
4081.28
-464.212
4095.83
-461.798
4109.6
-459.772
4122.61
-458.192
4134.87
-457.005
4146.48
-456.706
4157.39
-456.182
4167.55
-458.938
-459.961
1315
-651.934
1346.01
-644.436
1380.09
-625.455
1414.54
-612.277
1452.77
-600.533
1487.2
-588.801
1523.05
-571.909
1552.75
-550.01
1582.78
-520.978
1605.76
-486.136
1626.77
-443.423
1640.85
-395.55
1651.26
-341.831
1650.21
-284.876
1642.91
-223.741
1629.06
-159.342
1605.1
-92.3206
1575.35
-24.4207
1534.1
41.6254
1487.55
104.546
1430.38
161.081
1367.43
212.282
1295.62
255.574
1218.8
289.633
1136.88
312.871
1050.42
325.375
962.235
321.941
876.443
300.153
793.757
258.224
722.752
208.173
655.762
164.141
597.362
146.199
526.467
175.898
450.317
256.269
318.886
416.813
70.7147
731.578
-159.452
980.06
-264.526
904.242
-299.664
591.698
-182.632
110.897
-31.5981
-341.89
120.862
-731.143
293.08
-1014.53
475.777
-1214.8
664.201
-1374.22
854.642
-1494.85
1043.59
-1578.34
1227.2
-1631.29
1405.25
-1654.63
1576.25
-1653.4
1738.39
-1631.36
1892.91
-1593.77
2037.06
-1544.73
2173.63
-1488.08
2299.72
-1426.6
2418.46
-1362.78
2527.15
-1298.36
2629.36
-1234.86
2722.66
-1173.38
2810.53
-1114.84
2890.74
-1059.89
2966.53
-1008.79
3035.97
-961.675
3101.79
-918.4
3162.33
-878.82
3219.88
-842.593
3273.06
-809.454
3323.73
-779.059
3370.71
-751.157
3415.54
-725.471
3457.24
-701.802
3497.09
-679.953
3534.23
-659.781
3569.73
-641.145
3602.91
-623.938
3634.61
-608.06
3664.3
-593.426
3692.64
-579.947
3719.23
-567.546
3744.6
-556.15
3768.43
-545.696
3791.14
-536.121
3812.5
-527.364
3832.79
-519.356
3851.88
-512.043
3869.96
-505.363
3886.92
-499.27
3902.91
-493.71
3917.84
-488.65
3931.8
-484.048
3944.75
-479.871
3956.71
-476.079
3967.66
-472.677
3977.64
-469.671
3986.64
-467.126
3994.67
-464.969
4001.82
-463.796
4008.06
-462.375
4013.06
-463.907
-465.891
1285.68
-688.13
1324.29
-683.862
1363.94
-665.066
1401.8
-651.303
1441.78
-638.568
1476.91
-625.137
1512.65
-605.886
1541.81
-581.036
1570.97
-548.31
1592.99
-508.985
1612.96
-461.108
1626.05
-406.912
1635.54
-346.845
1633.61
-283.412
1625.53
-215.149
1611.03
-142.809
1586.41
-67.6778
1556.04
8.50655
1514.43
82.5692
1467.36
152.981
1409.81
217.047
1346.44
275.684
1274.34
325.708
1196.95
365.564
1114.12
393.846
1026.4
410.072
936.04
409.014
847.089
387.466
760.463
341.573
684.721
281.987
610.949
231.484
543.45
214.517
473.372
244.331
382.178
348.69
166.089
636.276
-137.467
1035.49
-325.707
1169.52
-368.369
946.018
-327.056
544.989
-201.167
-15.9559
-47.1234
-496.41
110.329
-889.377
283.266
-1188.66
465.915
-1398.67
653.541
-1562.79
842.488
-1684.63
1029.45
-1766.33
1210.94
-1815.16
1386.6
-1832.4
1555.17
-1823.94
1714.83
-1793.67
1866.82
-1747.39
2008.45
-1689.24
2142.44
-1623.39
2265.94
-1552.7
2382.07
-1479.91
2488.17
-1406.88
2587.79
-1335.25
2678.56
-1266.22
2763.93
-1200.72
2841.71
-1139.41
2915.12
-1082.53
2982.25
-1030.17
3045.82
-982.149
3104.19
-938.269
3159.62
-898.138
3210.76
-861.448
3259.44
-827.802
3304.49
-796.924
3347.45
-768.485
3387.34
-742.273
3425.4
-718.053
3460.81
-695.68
3494.61
-674.977
3526.12
-655.842
3556.18
-638.146
3584.24
-621.813
3610.99
-606.725
3636.01
-592.815
3659.82
-579.984
3682.1
-568.177
3703.26
-557.305
3723.07
-547.314
3741.8
-538.11
3759.3
-529.64
3775.74
-521.825
3791.02
-514.619
3805.25
-507.951
3818.34
-501.787
3830.36
-496.079
3841.25
-490.794
3851.05
-485.889
3859.74
-481.379
3867.35
-477.277
3873.88
-473.668
3879.37
-470.451
3883.89
-468.316
3887.45
-465.94
3889.61
-466.069
-468.696
1273.99
-727.984
1314.48
-725.017
1355.17
-705.762
1393.22
-690.714
1432.7
-676.466
1467.04
-660.711
1501.69
-638.85
1529.71
-610.379
1557.69
-573.782
1578.62
-529.782
1597.55
-476.848
1609.68
-417.328
1618.32
-351.042
1615.57
-280.385
1606.78
-204.876
1591.66
-125.238
1566.29
-41.769
1535.26
42.8005
1493.06
125.037
1445.26
203.543
1387.19
275.215
1323.32
341.211
1251.02
398.111
1173.33
443.769
1090.13
477.479
1001.78
497.272
910.095
499.244
819.035
477.197
729.601
427.364
649.511
361.187
567.368
307.63
496.95
287.063
430.675
309.411
277.949
498.836
-33.304
945.316
-330.584
1327.83
-453.704
1288.85
-441.755
928.139
-341.129
434.44
-211.553
-148.565
-61.5172
-651.26
98.4519
-1054
272.19
-1366.25
454.785
-1584.39
641.582
-1751.89
829.029
-1873.89
1014.03
-1952.99
1193.45
-1996.86
1366.8
-2007.65
1533.01
-1991.54
1690.25
-1952.95
1839.79
-1897.76
1978.93
-1830.47
2110.38
-1755.27
2231.35
-1675.33
2344.91
-1593.49
2448.48
-1511.83
2545.6
-1432.09
2633.92
-1355.57
2716.89
-1283.2
2792.35
-1215.66
2863.5
-1153.13
2928.47
-1095.68
2989.94
-1043.06
3046.29
-995.03
3099.8
-951.136
3149.08
-911.022
3195.99
-874.253
3239.34
-840.499
3280.67
-809.414
3318.99
-780.744
3355.56
-754.246
3389.53
-729.74
3421.95
-707.056
3452.15
-686.059
3480.95
-666.627
3507.82
-648.657
3533.42
-632.042
3557.36
-616.684
3580.14
-602.494
3601.45
-589.389
3621.67
-577.284
3640.57
-566.101
3658.43
-555.748
3675.06
-546.148
3690.65
-537.223
3705.07
-528.915
3718.44
-521.15
3730.66
-513.888
3741.8
-507.091
3751.84
-500.723
3760.8
-494.748
3768.7
-489.188
3775.57
-484.067
3781.46
-479.47
3786.37
-475.29
3790.33
-472.207
3793.41
-468.965
3795.04
-467.664
-470.131
1267.07
-768.493
1307.4
-766.035
1347.59
-745.904
1384.78
-729.028
1423.11
-712.921
1456.24
-694.969
1489.64
-670.489
1516.49
-639.068
1543.37
-598.84
1563.31
-550.496
1581.33
-492.568
1592.64
-426.872
1600.53
-354.373
1597.05
-277.331
1587.62
-194.863
1571.89
-107.288
1545.77
-15.5124
1513.96
77.1693
1470.96
167.45
1422.22
253.617
1363.3
332.694
1298.68
405.88
1225.87
469.203
1147.78
520.536
1064.32
559.232
975.547
583.185
883.02
588.651
790.479
568.072
699.182
515.42
613.818
444.384
524.447
390.477
462.272
349.784
380.122
391.83
124.417
756.765
-244.109
1316.3
-483.251
1567.26
-541.807
1348.21
-491.658
876.394
-365.323
302.125
-228.617
-284.645
-76.8949
-803.766
85.361
-1217.43
259.983
-1542.32
442.566
-1768.43
628.547
-1939.07
814.526
-2060.96
997.634
-2137.31
1175.04
-2176.47
1346.15
-2180.83
1510.09
-2157.29
1664.97
-2110.37
1812.09
-2046.42
1948.78
-1969.96
2077.73
-1885.5
2196.18
-1796.32
2307.22
-1705.51
2408.29
-1615.29
2502.94
-1527.51
2588.86
-1443.54
2669.49
-1364.35
2742.7
-1290.6
2811.67
-1222.45
2874.54
-1159.93
2934.01
-1102.73
2988.45
-1050.58
3040.14
-1002.95
3087.68
-959.452
3132.94
-919.595
3174.72
-883.021
3214.56
-849.331
3251.47
-818.261
3286.7
-789.53
3319.41
-762.958
3350.64
-738.343
3379.73
-715.557
3407.51
-694.446
3433.43
-674.915
3458.17
-656.83
3481.33
-640.1
3503.41
-624.606
3524.08
-610.27
3543.75
-596.982
3562.16
-584.664
3579.59
-573.204
3595.86
-562.526
3611.16
-552.541
3625.36
-543.193
3638.6
-534.403
3650.8
-526.134
3662.05
-518.358
3672.34
-511.04
3681.72
-504.143
3690.21
-497.689
3697.84
-491.698
3704.6
-486.231
3710.51
-481.193
3715.39
-477.078
3719.45
-473.03
3721.74
-469.956
-471.106
1261.36
-808.852
1300.61
-805.857
1339.58
-784.903
1375.47
-766.292
1412.44
-748.401
1444.37
-728.108
1476.65
-701.089
1502.5
-666.193
1528.45
-622.236
1547.56
-569.393
1564.78
-506.524
1575.34
-435.677
1582.53
-357.03
1578.33
-272.767
1568.32
-183.2
1551.89
-88.2371
1525.05
12.0025
1492.41
113.083
1448.53
211.774
1398.76
306.235
1338.8
392.998
1273.14
473.386
1199.44
543.302
1120.6
600.245
1036.74
643.868
947.471
671.881
854.365
680.789
761.036
660.454
668.395
604.876
576.494
535.7
487.349
474.521
436.106
403.494
286.602
540.252
-72.2161
1112.74
-430.702
1672.04
-594.423
1726.27
-601.099
1350.76
-524.469
792.836
-392.381
158.693
-248.024
-431.968
-93.0684
-963.251
71.4947
-1386.48
246.964
-1721.58
429.511
-1954.05
614.672
-2126.54
799.212
-2247.36
980.478
-2320.27
1155.93
-2353.95
1324.89
-2351.56
1486.61
-2320.18
1639.17
-2264.82
1783.92
-2191.84
1918.18
-2106.14
2044.64
-2012.26
2160.58
-1913.79
2269.1
-1813.93
2367.69
-1715.14
2459.9
-1619.35
2543.44
-1528.01
2621.76
-1442.11
2692.75
-1362.29
2759.58
-1288.67
2820.41
-1221.24
2877.93
-1159.64
2930.51
-1103.52
2980.43
-1052.32
3026.3
-1005.58
3069.97
-962.773
3110.24
-923.491
3148.67
-887.32
3184.23
-853.95
3218.21
-823.099
3249.74
-794.552
3279.89
-768.117
3307.97
-743.633
3334.82
-720.955
3359.92
-699.956
3383.92
-680.515
3406.42
-662.51
3427.94
-645.824
3448.14
-630.354
3467.43
-615.999
3485.57
-602.657
3502.83
-590.225
3519.06
-578.611
3534.46
-567.732
3548.94
-557.523
3562.63
-547.913
3575.49
-538.858
3587.62
-530.335
3599
-522.299
3609.67
-514.696
3619.61
-507.529
3628.8
-500.795
3637.16
-494.499
3644.65
-488.601
3650.89
-483.241
3656.26
-478.335
3659.28
-472.939
-471.99
1254.89
-848.384
1292.84
-844.4
1330.43
-822.427
1365.08
-802.029
1400.9
-782.404
1431.87
-760.133
1463.23
-730.659
1488.22
-693.003
1513.31
-645.498
1531.58
-588.376
1548
-520.588
1557.78
-443.652
1564.26
-358.831
1559.33
-268.224
1548.77
-171.952
1531.6
-68.6112
1504.04
39.8172
1470.58
149.091
1425.85
256.005
1375.07
358.328
1314.01
452.755
1247.13
540.369
1172.24
616.716
1092.33
678.973
1007.76
726.91
917.753
759.281
824.02
771.654
730.269
752.643
635.613
696.324
537.45
631.528
459.498
546.382
400.071
464.657
141.894
800.095
-279.886
1536.24
-576.131
1969.72
-672.538
1822.59
-644.591
1323.4
-547.205
693.596
-417.863
24.8961
-268.196
-581.077
-109.955
-1122.69
56.9618
-1554.93
233.268
-1899.61
415.778
-2138.27
600.133
-2312.37
783.28
-2431.86
962.775
-2501.17
1136.33
-2529.59
1303.19
-2520.45
1462.73
-2481.43
1613.03
-2417.58
1755.41
-2335.68
1887.25
-2240.7
2011.21
-2137.46