/*--------------------------------*- C++ -*----------------------------------*\
| =========                 |                                                 |
| \\      /  F ield         | OpenFOAM: The Open Source CFD Toolbox           |
|  \\    /   O peration     | Version:  4.1                                   |
|   \\  /    A nd           | Web:      www.OpenFOAM.org                      |
|    \\/     M anipulation  |                                                 |
\*---------------------------------------------------------------------------*/
FoamFile
{
    version     2.0;
    format      ascii;
    class       volVectorField;
    location    "4";
    object      U;
}
// * * * * * * * * * * * * * * * * * * * * * * * * * * * * * * * * * * * * * //

dimensions      [0 1 -1 0 0 0 0];

internalField   nonuniform List<vector> 
26785
(
(4.29229e-16 -0.00685008 13.6562)
(4.19108e-16 -0.0054762 13.7745)
(3.93756e-16 -0.0050429 13.8859)
(5.96595e-16 -0.00395152 13.9742)
(5.16869e-16 -0.0023821 14.0396)
(6.27228e-16 -0.00109759 14.0784)
(6.69316e-16 0.000178774 14.0898)
(7.004e-16 0.00103922 14.0818)
(6.0738e-16 0.00184068 14.0587)
(5.76489e-16 0.00214003 14.0357)
(6.43178e-16 0.00202381 14.0147)
(6.42266e-16 0.00151649 14.0053)
(6.201e-16 0.00096284 14.0076)
(6.04255e-16 0.000604637 14.0162)
(5.94592e-16 0.000393282 14.0267)
(5.91038e-16 0.000332524 14.0394)
(5.88872e-16 0.000459307 14.0527)
(5.78636e-16 0.000741296 14.0662)
(5.35995e-16 0.0010874 14.0788)
(9.01292e-16 0.00135345 14.0912)
(6.10108e-16 0.00148971 14.1027)
(4.92633e-16 0.0014292 14.1164)
(7.76724e-16 0.00108446 14.134)
(5.89617e-16 0.000673318 14.1561)
(8.34302e-16 0.000357887 14.1828)
(4.35168e-16 0.000351578 14.2125)
(4.36636e-16 0.000473688 14.243)
(4.43479e-16 0.000286429 14.2757)
(5.00329e-16 -0.00027439 14.3122)
(1.13824e-16 -0.000975513 14.3549)
(3.97196e-16 -0.0014654 14.4037)
(3.94644e-16 -0.00162627 14.4547)
(4.33845e-16 -0.00153642 14.5046)
(4.81463e-16 -0.00141812 14.5531)
(4.16726e-16 -0.00157717 14.6013)
(4.01286e-16 -0.00222655 14.6528)
(3.70935e-16 -0.00300686 14.7091)
(3.60797e-16 -0.00371235 14.77)
(3.76803e-16 -0.00424185 14.8353)
(2.8372e-16 -0.00468457 14.904)
(1.05228e-16 -0.00491067 14.974)
(5.64513e-16 -0.00486854 15.0427)
(4.69411e-16 -0.00471819 15.108)
(2.16073e-16 -0.00467647 15.1703)
(5.8213e-16 -0.00490677 15.2318)
(4.48872e-16 -0.00545497 15.2955)
(4.63553e-16 -0.00603902 15.3635)
(4.55685e-16 -0.00612129 15.4306)
(4.69871e-16 -0.00613533 15.495)
(4.75535e-16 -0.00571785 15.5566)
(5.14584e-16 -0.00532957 15.6137)
(5.36064e-16 -0.00512986 15.6677)
(5.5832e-16 -0.00539587 15.7207)
(5.69273e-16 -0.00576778 15.7747)
(5.89918e-16 -0.00596955 15.8287)
(6.4069e-16 -0.00584732 15.8819)
(5.51073e-16 -0.00545025 15.9327)
(5.56313e-16 -0.0049408 15.9802)
(6.49825e-16 -0.00437932 16.0232)
(5.54947e-16 -0.00395197 16.0619)
(5.60703e-16 -0.00355247 16.0969)
(6.48479e-16 -0.00324493 16.1285)
(6.45029e-16 -0.00294244 16.1573)
(5.3504e-16 -0.00276989 16.1837)
(7.1249e-16 -0.00265711 16.2083)
(7.11728e-16 -0.00264339 16.2316)
(7.30726e-16 -0.00260242 16.2541)
(7.37649e-16 -0.00257353 16.2758)
(7.57351e-16 -0.00251517 16.2966)
(8.1829e-16 -0.00251539 16.3167)
(7.77373e-16 -0.00253952 16.3362)
(7.26454e-16 -0.00261496 16.3554)
(7.6971e-16 -0.00269387 16.3745)
(8.15458e-16 -0.00281152 16.3933)
(9.18878e-16 -0.00295531 16.412)
(8.81135e-16 -0.00313668 16.4308)
(6.92125e-16 -0.00332721 16.4499)
(8.44404e-16 -0.00352526 16.4691)
(8.67485e-16 -0.0037085 16.4886)
(8.90656e-16 -0.00387404 16.5082)
(8.69356e-16 -0.00401809 16.5279)
(1.05862e-15 -0.00414497 16.5476)
(1.01728e-15 -0.00425558 16.5672)
(9.73442e-16 -0.00435085 16.5867)
(8.39261e-16 -0.00443499 16.6061)
(9.78725e-16 -0.00450257 16.6255)
(1.02446e-15 -0.00455471 16.6447)
(9.93705e-16 -0.00459019 16.6638)
(1.16544e-15 -0.00462623 16.6827)
(1.11458e-15 -0.00466564 16.7016)
(1.0706e-15 -0.0047193 16.7205)
(1.07836e-15 -0.0047804 16.7395)
(1.09199e-15 -0.00486328 16.7586)
(1.09924e-15 -0.00495132 16.7779)
(1.09634e-15 -0.00506538 16.7975)
(1.20221e-15 -0.00512313 16.8173)
(1.17869e-15 -0.00533455 16.8372)
(1.15231e-15 -0.00490768 16.857)
(1.16382e-15 -0.00722548 16.8765)
(1.19024e-15 -0.00404156 16.9072)
(6.32995e-16 -0.0164062 14.7379)
(2.60375e-16 -0.0164638 14.9132)
(4.77742e-16 -0.0155542 15.0854)
(6.5134e-16 -0.0113297 15.2274)
(7.32297e-16 -0.0061464 15.3403)
(8.53209e-16 -0.00111119 15.421)
(6.32345e-16 0.00282768 15.4707)
(5.12054e-16 0.00581768 15.4993)
(9.87805e-16 0.00781126 15.5127)
(6.91841e-16 0.00851132 15.5288)
(7.05696e-16 0.0075275 15.5491)
(6.88942e-16 0.00596477 15.5844)
(6.96528e-16 0.00403147 15.6338)
(6.65086e-16 0.00305471 15.691)
(8.60353e-16 0.00257595 15.7513)
(7.98512e-16 0.00252 15.814)
(5.38393e-16 0.00268447 15.8767)
(7.0184e-16 0.0030839 15.9388)
(7.99659e-16 0.00346307 15.9996)
(4.40557e-16 0.00372715 16.0599)
(9.21023e-16 0.00367135 16.1195)
(4.15512e-16 0.00325215 16.1818)
(1.04283e-15 0.00209486 16.2483)
(9.21139e-16 0.000740012 16.3194)
(9.04013e-16 -0.000379258 16.3943)
(1.25495e-15 -0.000675769 16.4705)
(9.10265e-16 -0.000674318 16.5455)
(9.35395e-16 -0.00158713 16.6207)
(9.68343e-16 -0.00347575 16.698)
(1.39946e-15 -0.00566235 16.7793)
(8.07309e-16 -0.0069931 16.8637)
(1.05301e-15 -0.00742608 16.9471)
(1.06611e-15 -0.00735 17.0259)
(1.1187e-15 -0.00712815 17.0995)
(1.14047e-15 -0.00750451 17.1691)
(1.15879e-15 -0.00901676 17.2384)
(1.16628e-15 -0.0110572 17.3091)
(1.20004e-15 -0.0129445 17.3804)
(1.24133e-15 -0.0144489 17.4524)
(1.29228e-15 -0.0156391 17.5241)
(1.27454e-15 -0.0161242 17.5941)
(1.36866e-15 -0.0158998 17.6597)
(1.39283e-15 -0.0153905 17.719)
(1.26723e-15 -0.0152124 17.7725)
(1.68501e-15 -0.0158259 17.8221)
(1.68284e-15 -0.0172305 17.8705)
(1.35044e-15 -0.018489 17.9199)
(1.64257e-15 -0.0185402 17.9655)
(1.61452e-15 -0.018101 18.006)
(1.76958e-15 -0.0167834 18.0413)
(1.93028e-15 -0.0155778 18.0701)
(1.55833e-15 -0.0148968 18.0938)
(1.684e-15 -0.0152601 18.1143)
(1.37142e-15 -0.0159929 18.1338)
(1.75802e-15 -0.0163835 18.1515)
(1.82386e-15 -0.0159747 18.167)
(1.70299e-15 -0.0149101 18.1791)
(1.72423e-15 -0.013461 18.1872)
(1.97762e-15 -0.0118563 18.1904)
(1.85453e-15 -0.010496 18.1888)
(1.808e-15 -0.0092457 18.1831)
(1.71384e-15 -0.00817089 18.1735)
(1.95498e-15 -0.00714788 18.1604)
(1.8082e-15 -0.0063963 18.1439)
(1.92785e-15 -0.00586705 18.1245)
(1.96435e-15 -0.00558054 18.1028)
(1.98707e-15 -0.00529017 18.0793)
(2.00349e-15 -0.00500201 18.0538)
(2.27187e-15 -0.00467102 18.0263)
(2.03268e-15 -0.00445005 17.9968)
(2.00026e-15 -0.00431958 17.9656)
(2.11712e-15 -0.00428725 17.9327)
(2.04382e-15 -0.00426457 17.8983)
(2.18992e-15 -0.00429257 17.8625)
(2.15387e-15 -0.00438574 17.8252)
(1.94235e-15 -0.00456187 17.7867)
(2.02694e-15 -0.00478525 17.747)
(2.20434e-15 -0.00503743 17.7063)
(2.18059e-15 -0.00528138 17.6646)
(2.03334e-15 -0.00550328 17.6219)
(2.10226e-15 -0.00570594 17.5781)
(2.31772e-15 -0.00590174 17.5333)
(2.37055e-15 -0.00610111 17.4874)
(2.28238e-15 -0.00630571 17.4405)
(2.08363e-15 -0.00652216 17.3925)
(2.19508e-15 -0.00673975 17.3436)
(2.46e-15 -0.00696203 17.2936)
(2.44995e-15 -0.00719899 17.2427)
(2.28487e-15 -0.00748513 17.1909)
(2.10864e-15 -0.00783473 17.1382)
(2.28882e-15 -0.00825032 17.0849)
(2.31329e-15 -0.00871636 17.0311)
(2.29683e-15 -0.00925081 16.9768)
(2.39922e-15 -0.00981967 16.9223)
(2.34137e-15 -0.0104282 16.8675)
(2.31026e-15 -0.0109459 16.8123)
(2.28225e-15 -0.0115665 16.7575)
(2.37764e-15 -0.0111866 16.6991)
(2.34716e-15 -0.0148997 16.6505)
(2.33878e-15 -0.0111019 16.5672)
(7.3207e-16 -0.0246985 16.0756)
(1.38893e-15 -0.0271182 16.2998)
(6.7751e-16 -0.0257248 16.5216)
(5.79159e-16 -0.017972 16.7109)
(1.13183e-15 -0.00952501 16.8698)
(9.23821e-16 -0.000676787 16.9952)
(1.17252e-15 0.00556209 17.0903)
(7.67887e-16 0.0108544 17.1645)
(7.45768e-16 0.0136282 17.2237)
(8.07122e-16 0.014714 17.2841)
(8.3627e-16 0.012675 17.3477)
(8.65603e-16 0.00981667 17.4237)
(9.02071e-16 0.00641723 17.5106)
(9.4661e-16 0.0047426 17.6019)
(9.54694e-16 0.00371303 17.6922)
(1.16752e-15 0.00349198 17.7802)
(8.38141e-16 0.00357197 17.8636)
(1.34779e-15 0.00408937 17.9418)
(9.40465e-16 0.00454091 18.014)
(1.27144e-15 0.00490955 18.081)
(1.28856e-15 0.00482076 18.142)
(8.26036e-16 0.00408292 18.1997)
(1.18046e-15 0.00218933 18.2549)
(1.5974e-15 -4.11049e-05 18.3075)
(1.4572e-15 -0.00169715 18.3565)
(1.49068e-15 -0.00201172 18.3994)
(1.99118e-15 -0.00191741 18.4335)
(1.62995e-15 -0.00318122 18.4601)
(1.66983e-15 -0.00583139 18.4804)
(1.71054e-15 -0.00878792 18.4962)
(1.75691e-15 -0.0103614 18.5071)
(1.6684e-15 -0.0105698 18.5094)
(1.82901e-15 -0.00995129 18.5006)
(2.00274e-15 -0.00913191 18.4806)
(2.08708e-15 -0.00925219 18.4511)
(2.0499e-15 -0.0110631 18.4161)
(2.10014e-15 -0.0138885 18.3772)
(2.13847e-15 -0.0164144 18.3348)
(2.1701e-15 -0.0184131 18.2894)
(2.20687e-15 -0.0198492 18.2402)
(2.23336e-15 -0.0201254 18.1855)
(2.25516e-15 -0.0194623 18.1229)
(2.29169e-15 -0.0183342 18.051)
(2.32386e-15 -0.0176076 17.9697)
(2.34503e-15 -0.0181514 17.8804)
(2.35717e-15 -0.0199501 17.7866)
(2.37708e-15 -0.0214949 17.6916)
(2.39901e-15 -0.021604 17.5913)
(2.42062e-15 -0.0206489 17.4855)
(2.43239e-15 -0.0187419 17.3753)
(2.43905e-15 -0.0167382 17.2595)
(2.43892e-15 -0.0153713 17.1381)
(2.43937e-15 -0.0154766 17.012)
(2.44982e-15 -0.0164737 16.8839)
(2.48088e-15 -0.0172079 16.7555)
(2.37571e-15 -0.0168905 16.6285)
(2.29744e-15 -0.0156464 16.5027)
(2.46427e-15 -0.0136463 16.3775)
(2.54394e-15 -0.0113773 16.2514)
(2.59123e-15 -0.00931692 16.1245)
(2.40146e-15 -0.00748646 15.997)
(2.4209e-15 -0.00576292 15.8692)
(2.41834e-15 -0.00412829 15.7406)
(2.36367e-15 -0.0027381 15.6105)
(2.23586e-15 -0.00178835 15.4788)
(2.39726e-15 -0.00121439 15.3458)
(2.4059e-15 -0.000796475 15.2124)
(2.44456e-15 -0.000310996 15.0787)
(2.41446e-15 0.000216319 14.9443)
(2.37387e-15 0.000690064 14.8088)
(2.35427e-15 0.000985741 14.6721)
(2.36508e-15 0.00118029 14.534)
(2.37207e-15 0.00133315 14.3945)
(2.37148e-15 0.00149492 14.2533)
(2.38521e-15 0.00156276 14.1103)
(2.35724e-15 0.00153838 13.9654)
(2.34005e-15 0.00140569 13.8188)
(2.35213e-15 0.00123602 13.6706)
(2.33284e-15 0.00104949 13.521)
(2.30365e-15 0.000900899 13.3701)
(2.29815e-15 0.000781681 13.2178)
(2.31809e-15 0.000700601 13.0641)
(2.25426e-15 0.000628779 12.9088)
(2.03652e-15 0.000551863 12.7518)
(2.13407e-15 0.000460199 12.5933)
(2.10339e-15 0.000380576 12.4331)
(2.05171e-15 0.000322702 12.2715)
(2.00146e-15 0.000226611 12.1081)
(1.92764e-15 7.44762e-05 11.9431)
(2.01677e-15 -0.000172206 11.7762)
(1.84108e-15 -0.000481055 11.6076)
(1.77726e-15 -0.000860343 11.4373)
(1.98328e-15 -0.00129075 11.2657)
(1.59225e-15 -0.00180099 11.0926)
(1.51542e-15 -0.00222668 10.9188)
(1.45294e-15 -0.00269064 10.7428)
(1.44185e-15 -0.00263282 10.5698)
(1.24666e-15 -0.00320018 10.3847)
(1.18609e-15 -0.00157709 10.2448)
(1.08127e-15 -0.00314396 9.9519)
(9.55245e-16 -0.0307206 17.4325)
(1.32541e-15 -0.0371393 17.6865)
(1.43561e-15 -0.0354432 17.9365)
(1.17303e-15 -0.0243241 18.1482)
(1.1408e-15 -0.0125368 18.3231)
(1.43431e-15 -9.04796e-05 18.459)
(9.95531e-16 0.00840035 18.5601)
(8.40168e-16 0.015651 18.6352)
(1.35279e-15 0.0192468 18.6902)
(1.34314e-15 0.0206932 18.7393)
(1.3529e-15 0.0177155 18.7843)
(1.37616e-15 0.0136723 18.8327)
(1.46279e-15 0.00907767 18.8829)
(1.36225e-15 0.00678991 18.9283)
(1.47782e-15 0.00542914 18.9638)
(1.52908e-15 0.00528039 18.9884)
(1.66771e-15 0.00557949 19.0004)
(1.49575e-15 0.00650739 18.9993)
(1.85572e-15 0.00747209 18.9841)
(1.85856e-15 0.00839584 18.9548)
(1.99968e-15 0.00878046 18.9103)
(1.89214e-15 0.00819771 18.8522)
(1.87233e-15 0.0061688 18.7813)
(2.04009e-15 0.00380105 18.6975)
(2.09537e-15 0.00234259 18.6008)
(2.15521e-15 0.00267445 18.49)
(2.21893e-15 0.00359452 18.3629)
(2.25953e-15 0.00285224 18.2202)
(2.29087e-15 0.000389749 18.0634)
(2.29603e-15 -0.00250657 17.8946)
(2.10935e-15 -0.00376528 17.7151)
(2.17864e-15 -0.00312632 17.5219)
(2.52119e-15 -0.00146929 17.314)
(2.58396e-15 0.000266586 17.093)
(2.49744e-15 0.000474786 16.8617)
(2.72554e-15 -0.00171975 16.6252)
(3.07045e-15 -0.0054378 16.3851)
(2.55778e-15 -0.0087526 16.1428)
(2.93337e-15 -0.0114817 15.9001)
(2.58719e-15 -0.0132191 15.6563)
(2.54206e-15 -0.0133154 15.4084)
(2.07229e-15 -0.0121314 15.153)
(2.59933e-15 -0.0102089 14.8889)
(2.94195e-15 -0.00856728 14.6146)
(2.38656e-15 -0.00864627 14.3296)
(2.21607e-15 -0.0106352 14.0386)
(1.93521e-15 -0.0125554 13.7473)
(2.82797e-15 -0.0131335 13.4512)
(2.321e-15 -0.0121452 13.1509)
(1.77038e-15 -0.0104433 12.8511)
(2.09567e-15 -0.00803717 12.5525)
(1.43301e-15 -0.00619687 12.2551)
(1.8023e-15 -0.00624622 11.9572)
(1.94768e-15 -0.00816127 11.6622)
(1.88639e-15 -0.0104556 11.3759)
(1.75623e-15 -0.0119246 11.1056)
(1.10735e-15 -0.0124697 10.8524)
(1.64792e-15 -0.0117701 10.616)
(1.63466e-15 -0.0106854 10.393)
(1.68089e-15 -0.00965985 10.1832)
(1.51017e-15 -0.00908407 9.98606)
(1.26043e-15 -0.00821691 9.80205)
(1.3169e-15 -0.00723562 9.62967)
(1.31704e-15 -0.00596475 9.46694)
(1.44379e-15 -0.00513184 9.31007)
(1.63342e-15 -0.00449811 9.15746)
(4.83748e-16 -0.00420712 9.00934)
(1.24916e-15 -0.00358977 8.86675)
(1.34965e-15 -0.00286956 8.7292)
(1.27392e-15 -0.00190084 8.59581)
(1.01606e-15 -0.00109781 8.46545)
(1.3344e-15 -3.9164e-05 8.33722)
(1.24017e-15 0.00118385 8.21019)
(8.26177e-16 0.00272884 8.08316)
(1.28563e-15 0.00419537 7.95486)
(5.89201e-16 0.00564612 7.82458)
(1.10166e-15 0.00693006 7.69237)
(5.92654e-16 0.00819969 7.55843)
(6.3472e-16 0.00937176 7.42356)
(7.10047e-16 0.0106517 7.28824)
(5.93261e-16 0.0120427 7.15246)
(5.11724e-16 0.0135522 7.01572)
(3.09337e-16 0.0150779 6.87811)
(6.84503e-16 0.0166612 6.73936)
(3.3402e-16 0.0182665 6.59896)
(6.45534e-17 0.019713 6.45665)
(-1.39281e-16 0.0210847 6.3141)
(-3.30111e-16 0.0226083 6.17104)
(-5.97965e-16 0.0243846 6.02614)
(-6.48085e-18 0.0261067 5.87791)
(-5.1806e-16 0.0276623 5.72627)
(-6.93661e-16 0.0289473 5.57199)
(-3.62322e-16 0.0305254 5.41517)
(-8.42105e-16 0.0322803 5.25207)
(-9.68271e-16 0.0343279 5.08228)
(-1.51079e-15 0.035413 4.90449)
(-1.45856e-15 0.0380213 4.72606)
(-1.31239e-15 0.0338902 4.53198)
(-1.4926e-15 0.0523875 4.38766)
(-1.68202e-15 0.0337445 4.11034)
(1.31334e-15 -0.0337941 18.6152)
(1.72734e-15 -0.0457877 18.8465)
(1.56641e-15 -0.0440732 19.0544)
(1.2023e-15 -0.0300823 19.2113)
(1.65205e-15 -0.0151273 19.3222)
(1.96595e-15 0.000592395 19.3885)
(2.01429e-15 0.0113294 19.4148)
(1.77918e-15 0.0203632 19.4105)
(1.71418e-15 0.0249017 19.3801)
(1.71626e-15 0.0267973 19.3365)
(1.86867e-15 0.0231784 19.279)
(1.85162e-15 0.0182402 19.2142)
(1.9341e-15 0.0127698 19.1401)
(1.88431e-15 0.0100827 19.0509)
(2.01373e-15 0.00871381 18.9422)
(2.17825e-15 0.00889214 18.8145)
(2.20615e-15 0.00970098 18.6675)
(2.31368e-15 0.0113649 18.5014)
(2.33785e-15 0.0132863 18.3153)
(2.38355e-15 0.0152302 18.109)
(2.44115e-15 0.0166768 17.8813)
(2.1703e-15 0.0169674 17.634)
(2.39582e-15 0.0156236 17.3685)
(2.50256e-15 0.0138785 17.0861)
(2.545e-15 0.0131837 16.7887)
(2.57798e-15 0.0147489 16.4777)
(3.00355e-15 0.0173044 16.1513)
(2.7237e-15 0.0179872 15.8088)
(2.38767e-15 0.016531 15.4514)
(2.52172e-15 0.0142666 15.0833)
(2.53239e-15 0.0137904 14.7081)
(2.53432e-15 0.0157432 14.3228)
(2.51236e-15 0.0185676 13.9266)
(2.75015e-15 0.0210085 13.5232)
(2.12358e-15 0.021036 13.1174)
(2.21387e-15 0.0180899 12.7162)
(2.13742e-15 0.0131947 12.3186)
(2.08532e-15 0.00872327 11.925)
(2.02422e-15 0.00460853 11.5392)
(1.95698e-15 0.00204913 11.1621)
(1.87128e-15 0.00203992 10.7875)
(1.74994e-15 0.00411976 10.4079)
(9.48074e-16 0.00756718 10.0198)
(1.38676e-15 0.011447 9.6189)
(1.19837e-15 0.0131783 9.2015)
(1.02539e-15 0.0116999 8.77613)
(8.40968e-16 0.00976627 8.35489)
(6.44683e-16 0.00849075 7.93136)
(4.8327e-16 0.00968146 7.50477)
(2.46208e-16 0.0102204 7.08597)
(1.05146e-16 0.0116773 6.68172)
(-8.61471e-16 0.0121268 6.29894)
(-8.73495e-17 0.010513 5.93545)
(-8.16703e-17 0.00516946 5.59584)
(4.58987e-17 -0.00259446 5.289)
(7.89378e-16 -0.0107611 5.02946)
(-1.59729e-16 -0.0182594 4.8169)
(-1.07291e-16 -0.0234308 4.6472)
(-3.68704e-16 -0.0279535 4.50869)
(-4.07453e-16 -0.031841 4.39722)
(-4.30765e-16 -0.0361969 4.30908)
(-6.10829e-16 -0.0394925 4.24386)
(-2.11067e-16 -0.0423094 4.20034)
(-2.86448e-16 -0.0429176 4.17582)
(-3.52459e-16 -0.0425689 4.16119)
(-2.45411e-16 -0.0415151 4.14975)
(-1.93565e-16 -0.0413033 4.14037)
(-3.72447e-16 -0.0407862 4.13488)
(-5.2137e-16 -0.0401865 4.13393)
(-6.84302e-16 -0.0385904 4.13654)
(3.31119e-17 -0.0367777 4.13959)
(2.22662e-16 -0.034414 4.14129)
(1.4528e-16 -0.0318667 4.14297)
(-6.27193e-16 -0.0283835 4.1452)
(-2.12342e-16 -0.0243406 4.14582)
(-1.82754e-16 -0.0198863 4.14212)
(4.48037e-16 -0.0157148 4.13307)
(-8.4909e-16 -0.0118845 4.11895)
(-1.21952e-15 -0.0086546 4.10117)
(-1.19524e-15 -0.00561821 4.08127)
(-1.48184e-15 -0.0025659 4.06129)
(-1.15513e-15 0.000695307 4.04202)
(-7.54233e-16 0.00412104 4.02333)
(-5.34423e-16 0.00780218 4.00451)
(-1.74665e-15 0.0116763 3.98573)
(-1.86729e-15 0.0154348 3.96588)
(-2.07678e-15 0.0190945 3.94307)
(-2.14096e-15 0.0230613 3.91721)
(-1.67672e-15 0.0277255 3.88907)
(-1.61495e-15 0.0328404 3.85739)
(-2.89714e-15 0.0380961 3.82052)
(-2.60514e-15 0.043295 3.77548)
(-2.01325e-15 0.0488583 3.72249)
(-2.66918e-15 0.0546121 3.66498)
(-2.5189e-15 0.060277 3.60575)
(-2.34728e-15 0.0645524 3.54528)
(-2.94379e-15 0.0685404 3.48266)
(-2.49483e-15 0.067679 3.42266)
(-2.16035e-15 0.0825185 3.36303)
(-2.80009e-15 0.0610122 3.29197)
(1.69949e-15 -0.0374232 19.3795)
(2.02126e-15 -0.0533828 19.4486)
(2.14935e-15 -0.0508006 19.4973)
(1.92044e-15 -0.0342506 19.5059)
(1.96498e-15 -0.0166313 19.4744)
(2.12275e-15 0.00146823 19.4022)
(2.18734e-15 0.0138986 19.2899)
(2.16887e-15 0.0239788 19.1447)
(2.02394e-15 0.0291783 18.9689)
(2.17612e-15 0.0313811 18.7727)
(2.42223e-15 0.0274004 18.5526)
(2.36568e-15 0.0218451 18.3146)
(2.39905e-15 0.0159672 18.0584)
(2.44468e-15 0.0133269 17.7809)
(2.488e-15 0.0124604 17.4802)
(2.55576e-15 0.0132744 17.16)
(2.54228e-15 0.0148621 16.8229)
(2.74965e-15 0.0174517 16.4713)
(2.66097e-15 0.020622 16.1054)
(2.29198e-15 0.0239261 15.7253)
(2.13157e-15 0.0269968 15.3298)
(2.55377e-15 0.0287895 14.9212)
(2.25958e-15 0.0288121 14.5016)
(2.21493e-15 0.0282384 14.0733)
(2.50917e-15 0.0286135 13.6403)
(2.63213e-15 0.0318079 13.2072)
(2.4643e-15 0.0367328 12.7704)
(2.37691e-15 0.0396581 12.326)
(2.14477e-15 0.0397591 11.8736)
(1.91291e-15 0.0381876 11.4215)
(2.26204e-15 0.0385835 10.9769)
(2.26722e-15 0.042307 10.5338)
(1.76606e-15 0.0468805 10.0884)
(1.60803e-15 0.0503523 9.64394)
(1.48112e-15 0.0500313 9.20697)
(1.43475e-15 0.0465134 8.78728)
(1.42863e-15 0.0411587 8.37839)
(1.37573e-15 0.036511 7.97624)
(1.20652e-15 0.0311867 7.58666)
(1.34534e-15 0.0278691 7.21366)
(1.92312e-15 0.0291693 6.84619)
(-2.51476e-16 0.034461 6.46847)
(-1.45279e-16 0.0419969 6.07304)
(-8.49563e-16 0.051128 5.65342)
(-1.34991e-15 0.0568994 5.20469)
(-1.28652e-15 0.0558867 4.74693)
(-1.54178e-15 0.0536762 4.30953)
(-1.68641e-15 0.0513792 3.88153)
(-1.7711e-15 0.0545722 3.46078)
(-1.72797e-15 0.0519194 3.06973)
(-1.2273e-15 0.047495 2.7226)
(-6.16067e-16 0.0388952 2.43407)
(-3.2368e-16 0.0275762 2.20417)
(-3.25481e-16 0.0104477 2.03482)
(-3.60253e-16 -0.0106253 1.92373)
(-4.28698e-16 -0.0324462 1.87109)
(-4.13295e-16 -0.0520724 1.86555)
(-3.11328e-16 -0.0650709 1.89418)
(-5.95824e-16 -0.0742938 1.93607)
(-7.31872e-16 -0.0811893 1.98214)
(-6.9083e-16 -0.0886411 2.032)
(-2.26037e-16 -0.0946801 2.08829)
(-8.07262e-16 -0.100024 2.15013)
(-6.76118e-16 -0.101675 2.21748)
(-1.43209e-15 -0.100505 2.2883)
(-1.66224e-15 -0.097368 2.35836)
(-2.34351e-16 -0.0952649 2.42432)
(6.36786e-16 -0.0934831 2.48664)
(-1.01439e-15 -0.0920016 2.54722)
(-9.2154e-16 -0.0890859 2.60699)
(-2.61317e-16 -0.0852579 2.6646)
(-4.20661e-16 -0.0808856 2.71756)
(-7.45809e-16 -0.0768227 2.76579)
(-2.08702e-16 -0.071858 2.80967)
(-1.28624e-16 -0.0657328 2.84916)
(-4.18272e-16 -0.0586429 2.8834)
(-6.00042e-16 -0.0516247 2.91154)
(-8.63928e-16 -0.0451439 2.93278)
(-1.20461e-15 -0.0397316 2.9473)
(-8.45893e-16 -0.0353003 2.95571)
(-7.03264e-16 -0.0315913 2.95939)
(-4.4144e-16 -0.0279919 2.95957)
(6.02519e-16 -0.0241964 2.95759)
(-1.43595e-15 -0.0201058 2.95423)
(-1.7447e-15 -0.0156331 2.95023)
(4.32998e-16 -0.0107159 2.94568)
(-5.60821e-16 -0.00546549 2.94083)
(-8.30574e-16 0.000109241 2.93508)
(-1.23848e-15 0.00643117 2.92875)
(-1.20316e-15 0.0137673 2.92206)
(-1.21623e-15 0.0220755 2.91477)
(-2.24215e-15 0.0307367 2.90611)
(-1.42931e-15 0.0392503 2.8957)
(-1.18103e-15 0.0470817 2.88313)
(-2.18119e-15 0.0544681 2.86815)
(-2.32332e-15 0.0609476 2.8515)
(-1.84504e-15 0.066398 2.83174)
(-1.58285e-15 0.0690153 2.81211)
(-1.97147e-15 0.0824647 2.79118)
(-1.81816e-15 0.0647788 2.76694)
(2.17012e-15 -0.0376792 19.2494)
(2.13414e-15 -0.0593169 19.1578)
(2.02926e-15 -0.057338 19.0453)
(2.10341e-15 -0.0399093 18.8907)
(2.40933e-15 -0.0208915 18.6888)
(2.08216e-15 -0.00151519 18.4395)
(2.44611e-15 0.012054 18.1431)
(2.43693e-15 0.0226157 17.8099)
(2.41507e-15 0.0285059 17.4431)
(2.68251e-15 0.0313644 17.0546)
(2.73101e-15 0.0278154 16.6395)
(2.6046e-15 0.0223295 16.2071)
(2.59132e-15 0.0166359 15.7625)
(2.60244e-15 0.0143318 15.3082)
(2.54677e-15 0.0141372 14.8451)
(2.75215e-15 0.0154902 14.3793)
(2.70439e-15 0.0175972 13.9158)
(2.14896e-15 0.0207355 13.4586)
(2.31998e-15 0.0249512 13.0078)
(2.09529e-15 0.0295759 12.5619)
(2.55347e-15 0.0344757 12.1172)
(2.20974e-15 0.0380924 11.6756)
(2.20418e-15 0.0398568 11.2375)
(2.24976e-15 0.0407612 10.8045)
(1.97713e-15 0.0422057 10.3805)
(1.95362e-15 0.0470014 9.97328)
(2.57924e-15 0.0548804 9.5757)
(2.60652e-15 0.0609361 9.17894)
(1.02572e-15 0.0630473 8.77973)
(1.74431e-15 0.0616509 8.39121)
(1.1972e-15 0.062432 8.02556)
(1.06417e-15 0.0684318 7.67443)
(9.83417e-16 0.0759868 7.32769)
(9.58131e-16 0.0821112 6.98203)
(8.00061e-16 0.0829316 6.64127)
(-5.76449e-16 0.0808764 6.31834)
(6.7221e-16 0.0773543 6.00181)
(5.96852e-16 0.0746565 5.69116)
(3.33874e-16 0.0677016 5.39668)
(4.91544e-16 0.0619433 5.12768)
(1.99297e-15 0.0655706 4.86546)
(-6.99333e-16 0.0782516 4.58399)
(-1.6335e-15 0.0965612 4.26438)
(-2.20946e-15 0.120374 3.87746)
(-2.53386e-15 0.134675 3.41355)
(-2.83531e-15 0.132415 2.95537)
(-3.25333e-15 0.125005 2.57043)
(-2.92265e-15 0.115654 2.23499)
(8.82947e-16 0.11303 1.93935)
(1.24337e-15 0.0987306 1.69768)
(-2.69315e-15 0.0806348 1.50567)
(2.32525e-15 0.0573174 1.36283)
(9.99231e-16 0.0314325 1.26711)
(-3.06987e-16 0.000719414 1.21897)
(-5.48943e-16 -0.0317438 1.21281)
(-6.59902e-16 -0.0624037 1.2424)
(-8.35827e-16 -0.0881866 1.2955)
(-3.84408e-16 -0.103011 1.36317)
(-1.52621e-15 -0.110409 1.43048)
(-9.25975e-16 -0.114645 1.49061)
(-1.04123e-15 -0.120512 1.54389)
(-1.10595e-15 -0.125934 1.59551)
(-1.10074e-15 -0.131048 1.64709)
(-1.96427e-15 -0.133066 1.69908)
(-1.04853e-15 -0.132203 1.75154)
(3.70064e-16 -0.128609 1.80439)
(2.14831e-17 -0.125356 1.85584)
(2.55129e-16 -0.1227 1.90496)
(-1.54682e-15 -0.120893 1.95292)
(-8.54324e-16 -0.117856 2.00132)
(-2.00815e-15 -0.113336 2.05045)
(-1.19307e-16 -0.107535 2.09891)
(-4.05381e-16 -0.101625 2.14575)
(-6.5384e-16 -0.0948019 2.18983)
(-7.99123e-16 -0.0868582 2.23126)
(-1.1966e-15 -0.0777863 2.26976)
(8.42045e-16 -0.0683872 2.30473)
(-1.61343e-15 -0.0592167 2.33541)
(-7.15826e-16 -0.0509538 2.36142)
(6.4449e-16 -0.0437017 2.38201)
(-5.07648e-16 -0.0375014 2.39765)
(8.54656e-17 -0.0320195 2.40913)
(1.15685e-15 -0.0269826 2.41751)
(1.60876e-16 -0.0221464 2.42348)
(4.2501e-16 -0.0173337 2.42777)
(9.97058e-16 -0.0123847 2.43078)
(1.25888e-15 -0.00710254 2.43249)
(1.21895e-15 -0.00157768 2.43263)
(1.25153e-15 0.0044136 2.4318)
(1.55556e-15 0.0111424 2.43056)
(1.64708e-16 0.0187966 2.42915)
(7.58338e-16 0.0271198 2.42752)
(1.27354e-15 0.0357392 2.42539)
(5.16089e-16 0.0441601 2.42166)
(3.24255e-16 0.0521276 2.41682)
(-3.43423e-16 0.059134 2.41206)
(3.04932e-16 0.0648268 2.40529)
(-6.61352e-16 0.0681734 2.40125)
(-1.92497e-16 0.0800012 2.3916)
(-4.81963e-16 0.062323 2.40094)
(2.59153e-15 -0.0379283 18.5546)
(2.46193e-15 -0.0666907 18.2517)
(2.25083e-15 -0.0661591 17.8958)
(2.5476e-15 -0.0489252 17.4835)
(2.51552e-15 -0.0290072 17.0199)
(2.43923e-15 -0.00905039 16.5149)
(2.44352e-15 0.00529642 15.9769)
(2.61698e-15 0.0156152 15.4232)
(2.37342e-15 0.0218995 14.8608)
(2.46057e-15 0.0253014 14.3026)
(2.41121e-15 0.0223932 13.7398)
(2.43473e-15 0.0166773 13.1834)
(2.44415e-15 0.0106169 12.6436)
(2.42373e-15 0.00782329 12.1257)
(2.48523e-15 0.00762318 11.6289)
(2.14621e-15 0.00885819 11.1566)
(2.13788e-15 0.0108623 10.7112)
(2.14589e-15 0.0139344 10.295)
(2.16107e-15 0.0188583 9.90591)
(2.09268e-15 0.0248382 9.53789)
(1.99476e-15 0.0319487 9.18271)
(1.91733e-15 0.03784 8.83982)
(1.23809e-15 0.0420024 8.50719)
(1.38968e-15 0.0449416 8.18377)
(1.76851e-15 0.0476164 7.87209)
(1.35926e-15 0.0540561 7.58207)
(1.82308e-15 0.0653756 7.30424)
(9.91323e-16 0.0753698 7.02716)
(1.44449e-15 0.0799075 6.74514)
(9.45371e-16 0.0777908 6.47322)
(1.00395e-15 0.0784181 6.22976)
(8.42853e-16 0.0874141 6.0072)
(5.93555e-16 0.0985529 5.78633)
(4.91266e-16 0.107546 5.5535)
(2.98892e-16 0.109633 5.31894)
(3.96138e-16 0.108869 5.11342)
(5.10443e-16 0.106754 4.91196)
(4.36249e-16 0.105297 4.69223)
(1.76948e-17 0.0994247 4.43879)
(1.03721e-16 0.0961524 4.14415)
(-6.41554e-16 0.104852 3.82188)
(-3.01404e-15 0.125231 3.49474)
(-5.73683e-15 0.156302 3.15967)
(-5.07339e-15 0.200213 2.78652)
(-4.28126e-15 0.224451 2.40377)
(-4.46265e-15 0.206004 2.10867)
(-4.18133e-15 0.180599 1.88352)
(-3.58799e-15 0.158698 1.68804)
(-2.42599e-15 0.145667 1.50911)
(-1.5191e-15 0.124349 1.35741)
(-2.09837e-15 0.100054 1.22767)
(-3.58157e-15 0.0705924 1.12065)
(-8.42645e-16 0.0361937 1.04248)
(-1.61995e-15 -0.00380759 1.00155)
(-1.32459e-15 -0.0446476 0.998037)
(-9.50249e-16 -0.0816012 1.02751)
(-1.47301e-15 -0.111658 1.07786)
(-2.82211e-16 -0.12737 1.13849)
(-1.40402e-15 -0.133124 1.19417)
(-1.28772e-15 -0.135168 1.24016)
(-1.49425e-15 -0.139756 1.27829)
(-1.97707e-15 -0.145118 1.31419)
(-1.97381e-15 -0.15053 1.34961)
(-1.86112e-15 -0.152975 1.38504)
(-1.51071e-15 -0.152806 1.42121)
(-1.19065e-15 -0.150169 1.45954)
(-1.68401e-16 -0.147434 1.49899)
(-7.23644e-16 -0.145057 1.53814)
(-1.9256e-15 -0.143715 1.57706)
(-1.42054e-15 -0.141582 1.61671)
(-1.62809e-15 -0.138048 1.65837)
(-8.29777e-16 -0.132965 1.70224)
(-1.34513e-15 -0.127146 1.74737)
(-1.0708e-15 -0.120048 1.79148)
(-1.91985e-15 -0.111653 1.83414)
(-9.01675e-16 -0.101982 1.87483)
(-1.32401e-15 -0.0917461 1.91318)
(-1.86307e-15 -0.0815073 1.94864)
(-6.82992e-16 -0.0718573 1.98045)
(6.14279e-17 -0.0630958 2.00783)
(-9.40793e-16 -0.0554491 2.03116)
(-7.11561e-16 -0.0486411 2.05058)
(1.25717e-15 -0.0424001 2.06657)
(-4.68039e-16 -0.036546 2.07951)
(-9.48924e-16 -0.0308643 2.08999)
(6.35767e-16 -0.0249324 2.09818)
(1.05201e-15 -0.01871 2.1042)
(8.43496e-16 -0.0122395 2.1084)
(1.12761e-15 -0.00547677 2.11134)
(2.69724e-16 0.00187849 2.11327)
(1.06998e-15 0.010077 2.11457)
(2.06611e-15 0.0188847 2.11557)
(9.73501e-16 0.0280294 2.11583)
(-3.87067e-16 0.0369019 2.11623)
(-6.79569e-18 0.045052 2.11721)
(-6.49513e-16 0.0521403 2.11911)
(-1.64676e-16 0.0577987 2.12068)
(-5.37331e-16 0.0611236 2.12776)
(-4.05342e-16 0.0712768 2.12717)
(-6.88717e-16 0.051768 2.16365)
(2.9933e-15 -0.0387598 17.2369)
(2.54844e-15 -0.0725036 16.5698)
(2.82372e-15 -0.073082 15.8215)
(2.69641e-15 -0.0581971 15.0546)
(2.32746e-15 -0.0396654 14.2939)
(2.43377e-15 -0.0218544 13.5524)
(2.69404e-15 -0.00905273 12.8381)
(2.19505e-15 -0.00148972 12.1657)
(2.25508e-15 0.00359093 11.537)
(2.23554e-15 0.00658983 10.9568)
(2.12295e-15 0.00406485 10.4039)
(2.12953e-15 -0.00233751 9.88414)
(2.13615e-15 -0.00944857 9.40805)
(2.06224e-15 -0.0134461 8.97943)
(2.00853e-15 -0.0138723 8.59173)
(1.96781e-15 -0.0126901 8.24264)
(1.70625e-15 -0.0106252 7.92942)
(2.19619e-15 -0.00744288 7.65202)
(2.47169e-15 -0.00145973 7.40556)
(1.40554e-15 0.00655297 7.18102)
(1.49585e-15 0.0169201 6.96653)
(1.54316e-15 0.0260374 6.75998)
(6.73424e-16 0.0336603 6.55859)
(2.66913e-15 0.0395874 6.35903)
(7.81593e-16 0.0438177 6.16261)
(1.48807e-15 0.0522558 5.98426)
(-9.24675e-17 0.0678975 5.81507)
(-3.36977e-16 0.0826325 5.64042)
(1.28873e-15 0.0904516 5.44749)
(8.92804e-16 0.0874142 5.25706)
(2.08698e-15 0.0854525 5.11938)
(5.70461e-16 0.0950689 5.01752)
(9.48415e-16 0.112692 4.88642)
(-9.56393e-16 0.130087 4.68903)
(-1.1767e-15 0.133651 4.45791)
(-2.4539e-15 0.130776 4.2627)
(3.58106e-16 0.130812 4.06385)
(-1.92166e-16 0.14023 3.85507)
(-8.638e-16 0.147822 3.62512)
(-6.176e-16 0.150589 3.35962)
(-1.00205e-15 0.159489 3.0929)
(-2.33048e-15 0.181013 2.84443)
(1.09765e-15 0.219121 2.58475)
(-5.12669e-15 0.272193 2.25164)
(-5.26907e-15 0.286819 1.96581)
(-5.14369e-15 0.247907 1.73521)
(-3.9347e-15 0.210021 1.56714)
(-2.68931e-15 0.184195 1.42141)
(-1.88603e-15 0.168545 1.2838)
(-1.89946e-15 0.145685 1.16134)
(-2.21936e-15 0.119358 1.04621)
(-2.83147e-15 0.0860485 0.940653)
(-2.4544e-15 0.0433871 0.860033)
(-2.04982e-15 -0.00686579 0.818861)
(-1.65839e-15 -0.0570043 0.817238)
(-9.69266e-16 -0.101105 0.84855)
(-1.03479e-15 -0.135642 0.898508)
(-1.12633e-15 -0.151094 0.953509)
(-2.78644e-15 -0.154071 0.997503)
(-2.67253e-15 -0.153814 1.02852)
(-1.70651e-15 -0.157485 1.05153)
(-2.5261e-15 -0.162816 1.0732)
(-2.73206e-15 -0.168254 1.09453)
(-2.53339e-15 -0.171076 1.11623)
(-3.12311e-15 -0.171726 1.14019)
(-2.59351e-15 -0.170131 1.16814)
(-1.4772e-15 -0.167937 1.19905)
(-2.44725e-16 -0.165733 1.23197)
(-1.68328e-15 -0.164442 1.26597)
(-1.63376e-15 -0.162736 1.30082)
(-1.0422e-15 -0.160025 1.33884)
(-3.34425e-15 -0.155758 1.38073)
(-2.4497e-15 -0.150162 1.42508)
(-2.70247e-15 -0.142821 1.46992)
(-1.16828e-15 -0.133858 1.51469)
(-4.13478e-17 -0.123423 1.55819)
(-3.12647e-15 -0.112278 1.59994)
(-1.34906e-15 -0.100885 1.6392)
(-2.91694e-15 -0.0898005 1.67519)
(-2.14318e-15 -0.0795593 1.7074)
(6.29875e-17 -0.0704551 1.73623)
(8.16627e-16 -0.0622055 1.76152)
(1.1187e-16 -0.0546179 1.78346)
(-5.65161e-16 -0.0475482 1.80229)
(-2.14924e-15 -0.0406533 1.81847)
(-1.10045e-15 -0.0335727 1.83181)
(-6.75781e-16 -0.0264283 1.84262)