/*--------------------------------*- C++ -*----------------------------------*\
| =========                 |                                                 |
| \\      /  F ield         | OpenFOAM: The Open Source CFD Toolbox           |
|  \\    /   O peration     | Version:  4.1                                   |
|   \\  /    A nd           | Web:      www.OpenFOAM.org                      |
|    \\/     M anipulation  |                                                 |
\*---------------------------------------------------------------------------*/
FoamFile
{
    version     2.0;
    format      ascii;
    class       volScalarField;
    location    "30";
    object      p;
}
// * * * * * * * * * * * * * * * * * * * * * * * * * * * * * * * * * * * * * //

dimensions      [0 2 -2 0 0 0 0];

internalField   nonuniform List<scalar> 
26785
(
42.6692
44.3304
46.7281
43.9478
43.2652
38.9652
28.11
26.8243
7.27839
34.3852
54.7034
68.6034
67.7469
72.8958
81.2401
78.5573
76.8573
71.7916
65.393
82.5797
111.602
130.599
143.108
143.313
129.165
108.953
86.345
66.6859
34.3446
3.89222
-21.2816
-38.6924
-38.9947
-37.7327
-29.9882
-25.5867
-45.5285
-18.3276
26.636
58.1948
79.5149
108.739
140.424
149.407
146.313
135.858
117.023
88.0774
42.1577
-5.03871
-45.3815
-63.4601
-58.1755
-28.4152
22.134
79.9579
143.768
198.596
246.248
278.375
301.242
313.068
319.522
320.457
318.62
313.709
307.348
299.724
291.756
283.599
275.662
267.914
260.534
253.281
246.297
239.356
232.781
226.447
220.682
215.137
210.057
205.028
200.313
195.62
191.285
186.924
182.708
178.227
173.488
167.989
161.575
153.695
144.057
132.258
118.148
101.68
82.7107
61.7845
37.1143
16.2347
42.7519
44.664
46.8447
43.282
42.1668
38.6411
28.3386
32.0682
8.93212
30.4139
52.6036
68.4433
67.7322
72.9191
81.7654
79.3374
77.2172
71.4294
65.6096
82.816
111.294
130.165
142.608
142.375
127.752
107.381
85.2179
65.3794
33.7933
5.46569
-19.6308
-38.3578
-39.1914
-37.1766
-31.3917
-30.565
-43.6466
-15.427
28.4628
59.9713
81.1873
107.692
137.972
148.612
146.327
135.464
116.517
87.2217
40.797
-6.23536
-46.7802
-65.0316
-59.5913
-29.869
20.6027
78.2032
142.019
196.787
244.436
276.509
299.498
311.482
318.229
319.346
317.678
312.902
306.687
299.181
291.32
283.245
275.382
267.689
260.359
253.134
246.165
239.218
232.638
226.304
220.555
215.018
209.961
204.936
200.219
195.526
191.195
186.827
182.629
178.17
173.46
167.996
161.619
153.749
144.087
132.237
118.067
101.549
82.5529
61.6378
37.0109
16.2329
42.6223
45.1624
47.4978
43.1076
40.9229
38.7231
29.7295
39.5213
17.1988
30.0896
50.3012
67.4183
68.3566
74.1162
82.3543
79.8721
77.1874
70.3604
66.3177
83.3536
110.524
129.63
142.104
141.166
125.894
104.853
83.1898
62.5387
33.3404
6.64697
-18.9553
-38.9957
-39.2444
-35.7032
-33.2113
-39.2262
-41.7799
-12.0546
32.9149
62.1808
81.3298
106.942
135.123
147.613
145.918
135.495
116.714
86.558
39.7664
-7.19935
-48.2399
-67.0005
-61.8634
-32.4021
17.8317
75.1692
139.092
193.876
241.583
273.69
296.909
309.205
316.295
317.678
316.277
311.708
305.698
298.359
290.646
282.689
274.931
267.321
260.057
252.867
245.901
238.924
232.32
225.977
220.242
214.722
209.693
204.677
199.963
195.277
190.957
186.589
182.415
177.984
173.309
167.885
161.539
153.648
143.91
131.948
117.665
101.063
82.038
61.1623
36.6923
16.0593
41.805
45.4618
47.9279
42.9136
40.1688
40.7752
33.3893
40.3023
25.9501
31.5661
46.9504
65.4173
68.9721
75.2831
82.9263
79.8462
76.7982
69.1347
67.1081
83.733
109.652
128.934
141.45
139.735
123.565
101.969
80.6027
58.6309
32.4202
7.38026
-19.2495
-38.2417
-38.4992
-33.8411
-36.0067
-49.1036
-40.9292
-7.05744
39.6276
64.0909
80.3476
105.376
131.609
145.73
145.672
136.015
116.717
85.6068
38.3207
-8.77357
-50.6519
-70.2862
-65.8541
-36.8837
13.0744
70.2667
134.443
189.447
237.438
269.736
293.35
306.045
313.558
315.261
314.177
309.879
304.141
297.042
289.548
281.777
274.183
266.707
259.552
252.425
245.476
238.47
231.849
225.507
219.807
214.329
209.352
204.346
199.644
194.962
190.642
186.267
182.102
177.679
173.024
167.622
161.262
153.283
143.392
131.251
116.809
100.107
81.0763
60.3022
36.1154
15.7221
40.9934
45.6765
48.0695
42.7098
39.905
42.5479
37.5123
40.3303
34.0426
33.2096
43.5368
63.3655
69.2526
76.1817
83.188
79.3317
75.9667
68.3931
68.3556
83.8943
108.714
127.979
140.509
138.223
120.98
99.0466
77.5001
53.3644
30.0479
7.29119
-20.7381
-36.1683
-37.5759
-31.6931
-38.7719
-55.2466
-39.9986
-3.87705
42.9276
63.9493
77.99
102.543
127.751
142.751
145.042
136.231
116.166
84.0059
36.5156
-10.7198
-53.6266
-74.3097
-70.8774
-42.4746
7.06784
64.1836
128.789
184.156
232.5
265.11
289.194
302.322
310.284
312.349
311.636
307.676
302.278
295.481
288.263
280.722
273.328
266.015
258.989
251.935
244.992
237.941
231.281
224.93
219.265
213.833
208.898
203.885
199.174
194.471
190.119
185.716
181.539
177.105
172.461
167.065
160.652
152.535
142.443
130.091
115.479
98.6933
79.6992
59.0931
35.2942
15.2353
40.3833
46.0461
48.0763
42.5925
39.6856
43.5313
41.2781
41.492
42.7613
35.6445
41.8141
62.0179
69.857
77.3258
83.7048
78.7359
74.8154
67.7429
69.0608
83.6479
107.402
126.452
139.02
136.475
118.105
95.7421
74.1957
47.9375
26.9918
7.16843
-19.3668
-34.0047
-36.1185
-28.4497
-39.4121
-57.5102
-38.938
-3.48697
40.9908
61.9788
74.656
98.5446
122.891
138.608
143.699
135.921
114.891
81.7155
34.2121
-13.126
-57.2537
-79.2734
-77.1814
-49.5489
-0.463192
56.6079
121.758
177.679
226.531
259.572
284.228
297.845
306.318
308.806
308.53
304.982
299.996
293.568
286.681
279.416
272.26
265.139
258.27
251.299
244.367
237.255
230.554
224.2
218.598
213.224
208.33
203.291
198.546
193.789
189.375
184.917
180.708
176.253
171.612
166.193
159.665
151.341
140.992
128.399
113.619
96.7803
77.8832
57.5321
34.2347
14.6412
39.8148
46.2764
47.9287
42.4683
39.4742
43.6687
43.0466
40.9645
49.0164
37.1365
41.0934
60.9211
70.4974
78.1588
83.8047
77.4834
72.8729
65.8658
68.7024
82.7962
105.623
124.469
137.064
134.406
115.188
92.1517
70.5316
42.5627
23.2105
5.30832
-18.6801
-33.5561
-35.0815
-24.7715
-38.1714
-57.6404
-39.0973
-5.7248
35.5309
57.9805
70.375
93.5979
117.409
134.045
141.875
135.115
112.93
79.0274
31.7665
-15.7222
-61.101
-84.6409
-84.1062
-57.3751
-8.84973
48.2513
114.054
170.631
220.084
253.65
278.907
293.026
302.018
304.959
305.155
302.066
297.535
291.513
284.987
278.02
271.12
264.209
257.51
250.631
243.692
236.495
229.734
223.371
217.825
212.489
207.594
202.491
197.673
192.835
188.344
183.822
179.589
175.123
170.488
165.014
158.323
149.751
139.127
126.3
111.38
94.5342
75.7929
55.7646
33.0469
13.9946
39.6551
46.215
47.8746
42.4675
39.3453
43.3649
42.9885
43.9262
52.8694
38.3006
41.3578
60.2284
71.3761
79.0057
84.0463
76.0336
70.7118
63.0267
67.6147
81.3354
103.389
121.918
134.559
131.84
112.102
88.3937
66.4474
37.9827
19.5447
4.04611
-18.376
-33.561
-33.9048
-22.1877
-35.9851
-55.5805
-38.8566
-7.42277
29.2004
52.5031
65.7121
88.0387
111.159
129.09
139.382
133.402
110.075
75.8092
28.9997
-18.5892
-65.2714
-90.6435
-91.8945
-66.212
-18.3645
38.7819
105.355
162.712
212.886
247.066
272.993
287.66
297.203
300.639
301.357
298.79
294.773
289.212
283.091
276.456
269.842
263.164
256.669
249.892
242.946
235.641
228.816
222.452
216.964
211.654
206.73
201.547
196.639
191.718
187.152
182.574
178.312
173.829
169.159
163.559
156.624
147.745
136.819
123.763
108.735
91.9341
73.4173
53.7908
31.7368
13.3135
39.7733
45.9806
47.8819
42.3393
39.0404
42.735
42.0434
46.4378
54.9972
38.9008
41.8752
59.521
71.7217
79.2984
83.4893
74.195
68.3767
59.1689
65.4158
79.2322
100.732
119.021
131.677
128.852
108.944
84.7189
61.9742
33.5077
15.2801
1.63646
-19.1165
-34.8899
-32.9929
-20.8372
-34.3078
-53.2267
-39.1246
-9.48343
23.2275
46.3684
60.4617
81.8363
104.598
124.111
136.253
130.713
106.515
72.2504
26.0713
-21.531
-69.4313
-96.7429
-99.9327
-75.3473
-28.2921
28.897
96.3522
154.584
205.536
240.356
266.935
282.149
292.24
296.186
297.455
295.446
291.976
286.896
281.193
274.893
268.566
262.125
255.838
249.16
242.167
234.712
227.795
221.42
215.969
210.657
205.68
200.419
195.431
190.44
185.805
181.189
176.89
172.373
167.625
161.84
154.617
145.416
134.204
120.958
105.872
89.1721
70.9334
51.757
30.4083
12.6322
40.1753
46.1506
48.4085
42.313
38.6385
42.0189
40.789
47.6302
56.1478
39.1676
42.5913
59.2615
72.0548
79.9117
82.7518
72.6937
66.28
54.3693
62.5506
76.4475
97.5385
115.701
128.376
125.578
105.626
80.9332
57.2257
28.9205
11.2521
-0.778968
-20.4792
-36.5566
-32.2688
-19.6745
-33.3194
-49.8223
-38.6913
-11.5528
18.447
40.2231
54.9179
75.2963
97.9594
118.688
132.067
126.736
102.062
68.1729
22.7664
-24.5988
-73.6581
-103.08
-108.318
-84.9922
-38.8596
18.3525
86.7199
145.907
197.737
233.251
260.51
276.294
286.946
291.434
293.295
291.89
289
284.429
279.159
273.202
267.171
260.974
254.922
248.341
241.277
233.642
226.635
220.264
214.867
209.565
204.554
199.25
194.221
189.181
184.474
179.803
175.421
170.813
165.905
159.853
152.282
142.736
131.247
117.845
102.752
86.2078
68.3068
49.6378
29.0419
11.9483
40.4971
46.2342
48.7727
42.2757
38.3219
40.8495
39.5468
47.8281
56.5476
39.0124
43.1385
59.2977
71.9298
79.7188
82.7734
71.5828
64.2537
48.9468
58.7983
73.0661
93.9096
112.023
124.624
121.96
102.154
77.1193
52.4403
23.8652
6.94873
-3.49125
-22.8929
-39.063
-33.3292
-19.5604
-33.4533
-46.6438
-38.1672
-13.8823
14.0301
33.9981
49.1756
68.731
91.5323
113.133
127.12
121.858
97.0676
63.8045
19.3032
-27.624
-77.6907
-109.238
-116.494
-94.5186
-49.4545
7.79315
77.1718
137.34
190.038
226.231
254.138
270.472
281.671
286.705
289.169
288.378
286.071
282
277.149
271.515
265.762
259.801
253.977
247.467
240.27
232.41
225.295
218.933
213.593
208.31
203.291
197.976
192.935
187.853
183.072
178.323
173.831
169.094
163.978
157.623
149.698
139.832
128.114
114.612
99.5634
83.2217
65.6935
47.5543
27.7175
11.2841
40.3028
45.783
48.9555
42.3392
38.3205
39.3659
38.7037
47.3644
56.601
38.4839
43.5834
60.0254
72.4846
79.7552
82.7141
69.9836
61.0714
43.8066
54.6022
68.9932
89.5923
107.575
120.28
117.965
98.376
73.0713
47.7124
18.6403
3.08557
-5.80617
-25.405
-41.8402
-35.6185
-20.6842
-33.3905
-42.1795
-36.4921
-15.541
10.4873
28.4368
43.701
62.4822
85.2386
107.086
121.15
115.866
91.3109
58.901
15.4653
-30.6072
-81.5326
-115.321
-124.473
-103.953
-60.1664
-2.98584
67.4
128.598
182.197
219.068
247.61
264.487
276.215
281.804
284.882
284.716
282.993
279.424
274.99
269.669
264.192
258.468
252.89
246.434
239.074
230.979
223.786
217.481
212.254
207.034
202.048
196.747
191.701
186.557
181.677
176.805
172.16
167.242
161.856
155.149
146.849
136.673
124.756
111.197
96.2392
80.1449
63.0314
45.4568
26.3958
10.631
40.5025
45.5642
49.0473
42.1604
38.0604
38.4219
37.4951
45.9153
56.2438
37.4094
43.5881
60.5699
73.4268
80.252
81.2803
67.6977
57.8361
39.5709
49.971
64.4139
84.8445
102.663
115.504
113.469
94.2269
68.8491
43.1074
13.3118
-0.920853
-8.5602
-28.715
-45.565
-39.465
-24.185
-34.5394
-38.2307
-34.8579
-17.0286
7.26347
23.5093
38.4346
56.6412
79.2761
100.909
114.676
109.319
85.2439
53.7529
11.5006
-33.4367
-85.0946
-121.053
-131.899
-112.897
-70.4711
-13.3973
57.9998
120.195
174.65
212.155
241.269
258.64
270.869
277
280.683
281.13
279.979
276.894
272.85
267.814
262.585
257.082
251.724
245.266
237.672
229.327
222.087
215.88
210.798
205.661
200.72
195.421
190.358
185.13
180.145
175.134
170.332
165.221
159.551
152.495
143.847
133.406
121.345
107.778
92.9526
77.1353
60.4526
43.4451
25.1408
10.0078
41.6134
46.2297
49.6204
42.3513
37.9528
37.7367
35.6071
44.7917
55.6603
36.3462
43.2347
61.0315
75.0022
80.7954
80.0112
64.7093
54.3025
35.8211
45.0655
59.2715
79.5117
97.0225
110.22
108.547
89.6578
64.4264
38.523
8.22021
-4.64908
-11.5065
-32.1601
-49.3119
-43.678
-28.6494
-36.26
-34.3723
-32.5593
-17.4668
5.14206
19.9177
33.7234
51.334
73.4222
94.3284
107.459
101.968
78.5595
48.1353
7.19097
-36.2832
-88.2449
-126.397
-138.633
-121.288
-80.4484
-23.5352
48.7805
111.946
167.215
205.311
234.937
252.756
265.444
272.103
276.378
277.429
276.839
274.231
270.564
265.791
260.803
255.516
250.377
243.88
236.037
227.48
220.288
214.262
209.372
204.329
199.427
194.109
189.002
183.666
178.559
173.391
168.41
163.073
157.08
149.655
140.66
129.976
117.806
104.268
89.6114
74.1037
57.8797
41.4588
23.9087
9.40072
43.0775
46.9945
50.2104
42.5823
37.709
36.7748
35.02
44.9005
54.7502
35.1947
42.7638
61.3357
76.2417
81.9141
79.067
61.5807
51.6557
32.77
39.861
53.7649
73.9991
91.2213
104.698
103.248
84.6831
59.8858
34.0151
3.53527
-8.4024
-15.0132
-36.2362
-53.5739
-48.6932
-34.1632
-39.3804
-32.2294
-30.5951
-17.9702
3.16367
16.8354
29.4218
46.5044
67.7511
87.762
100.087
94.4242
71.6777
42.3913
2.73062
-39.1107
-90.75
-131.166
-144.664
-129.001
-89.9109
-33.061
40.1322
104.209
160.2
198.801
228.855
247.063
260.181
267.351
272.204
273.84
273.797
271.642
268.313
263.761
258.974
253.874
248.895
242.279
234.15
225.434
218.365
212.565
207.859
202.882
197.988
192.63
187.468
182.025
176.806
171.499
166.353
160.794
154.485
146.71
137.409
126.531
114.298
100.829
86.3683
71.1871
55.4267
39.585
22.7563
8.82737
44.3969
47.4771
50.9173
43.1715
37.6944
36.0608
34.6221
44.7587
53.6433
34.4222
42.5765
61.7742
77.0373
82.237
78.0025
58.8385
48.3093
30.2419
34.6274
47.8142
67.7686
84.8179
98.7692
97.6866
79.3867
55.1437
29.4482
-0.783442
-12.0033
-18.7526
-40.31
-57.4872
-53.4144
-39.5402
-43.083
-30.8422
-27.7414
-17.4061
2.07143
14.5245
25.8543
42.2688
62.1936
81.0215
92.2983
86.4375
64.28
36.3677
-2.12853
-42.1243
-92.6523
-135.25
-150.041
-135.736
-98.5828
-41.9677
31.984
96.9059
153.524
192.536
222.922
241.456
254.948
262.598
267.998
270.196
270.675
268.949
265.928
261.567
256.968
252.047
247.209
240.427
232.054
223.305
216.457
210.916
206.384
201.44
196.526
191.113
185.881
180.329
174.99
169.543
164.22
158.415
151.763
143.633
134.035
122.987
110.724
97.3561
83.1212
68.2935
53.0192
37.7672
21.6482
8.27872
44.7047
47.2862
51.1452
43.6065
37.495
35.1424
33.7916
43.9614
52.4039
33.9094
42.4299
61.8218
77.2811
81.8598
78.4713
57.3644
44.0697
27.9488
29.6489
42.0003
61.3305
78.3721
92.7969
91.9476
73.8102
50.1643
25.0384
-4.84596
-15.6645
-22.7111
-44.6832
-61.6236
-58.3763
-45.2655
-48.262
-30.7425
-24.726
-16.7533
0.986565
12.3035
22.7592
38.4173
56.8933
74.4893
84.6041
78.5389
56.8338
30.4985
-7.16756
-45.4235
-94.3791
-138.111
-154.746
-141.831
-106.329
-50.1126
24.5443
90.2027
147.32
186.642
217.277
236.084
249.93
258.041
263.969
266.708
267.686
266.356
263.589
259.36
254.894
250.109
245.329
238.317
229.735
221.057
214.47
209.17
204.762
199.819
194.868
189.4
184.107
178.465
173.03
167.469
161.99
155.946
148.967
140.51
130.659
119.484
107.23
93.9944
80.0079
65.5478
50.7617
36.0886
20.6377
7.78509
44.4159
46.899
51.3388
44.1934
37.4665
34.3494
33.1519
42.8153
50.9956
33.68
42.4437
61.8113
77.5118
82.4905
75.9182
57.8167
41.7507
25.1897
24.5653
35.905
54.6741
71.4714
86.49
86.0214
68.0336
44.8314
20.5209
-9.08472
-19.3633
-26.7068
-48.8655
-65.2363
-62.5237
-50.179
-52.713
-30.3199
-20.7103
-15.0237
0.824973
10.8003
20.3879
35.0975
51.9165
68.0609
76.7969
70.5261
49.1042
24.4062
-12.3599
-49.0634
-96.1972
-139.819
-158.332
-146.913
-112.739
-57.2954
17.9377
84.1948
141.65
181.153
211.915
230.923
245.049
253.577
259.987
263.226
264.667
263.69
261.129
256.993
252.636
247.977
243.221
235.999
227.309
218.8
212.512
207.429
203.118
198.158
193.163
187.641
182.282
176.557
171.028
165.357
159.709
153.402
146.074
137.287
127.196
115.921
103.707
90.6396
76.9365
62.8752
48.6001
34.5102
19.702
7.35906
44.2423
46.3329
51.2095
44.4598
37.1475
33.3946
32.2576
41.3583
49.3928
33.5166
42.5628
61.7317
77.4485
83.3491
66.154
59.3221
38.7813
21.6586
19.543
29.6879
47.9384
64.6779
80.2063
80.0102
62.1805
39.2111
15.8082
-13.1662
-23.2428
-30.7801
-53.1366
-68.956
-66.6357
-55.0266
-56.6387
-30.2118
-16.9808
-13.3944
0.771715
9.39951
18.2729
32.0769
47.315
62.0602
69.3519
62.8993
41.5544
18.1747
-17.5703
-52.9873
-98.4215
-141.354
-161.368
-151.34
-118.052
-63.5501
12.1242
78.8168
136.464
176.045
206.865
226.03
240.422
249.346
256.219
259.931
261.804
261.131
258.7
254.577
250.259
245.667
240.865
233.477
224.737
216.433
210.418
205.513
201.265
196.292
191.259
185.7
180.289
174.511
168.922
163.171
157.368
150.801
143.14
134.051
123.762
112.428
100.295
87.4288
74.0376
60.3959
46.6347
33.1128
18.8861
7.04389
43.8799
45.8859
50.989
44.7972
36.9374
32.6374
31.3808
39.7661
47.7359
33.5411
42.7961
61.9617
77.1744
81.2593
68.5895
58.6768
34.6196
17.3715
14.1611
23.2051
40.7516
57.333
73.5352
73.8702
56.2324
33.4189
10.6928
-17.0607
-27.3068
-34.9241
-57.0694
-72.0739
-69.8662
-58.8376
-59.0777
-29.775
-13.0048
-11.0099
1.60284
8.64744
16.6772
29.5845
43.158
56.3608
62.1385
55.4223
34.2288
11.6167
-22.5902
-57.1044
-100.942
-142.792
-163.709
-154.69
-121.849
-68.4672
7.45302
74.3583
131.979
171.481
202.218
221.453
236.022
245.284
252.558
256.687
258.941
258.514
256.152
251.987
247.684
243.133
238.292
230.819
222.112
214.033
208.287
203.544
199.359
194.379
189.311
183.724
178.263
172.451
166.815
160.985
155
148.135
140.116
130.727
120.259
108.904
96.896
84.2795
71.2474
58.0633
44.8346
31.8697
18.172
6.84815
43.229
45.2646
50.4276
44.8384
36.4777
31.6863
30.308
38.0574
45.9584
33.4959
42.9424
61.7796
76.2707
78.4562
70.6525
55.8438
31.517
12.9098
8.69447
16.8582
33.6214
50.1072
66.8809
67.715
50.0992
27.5676
5.57635
-20.5365
-31.3918
-39.2248
-60.8985
-75.2104
-73.1269
-62.4948
-60.889
-29.7656
-9.81883
-8.74481
2.45375
7.87376
15.1734
27.2793
39.3181
51.0316
55.4341
48.3031
27.3954
5.20273
-27.1428
-61.1589
-103.916
-144.484
-165.477
-157.369
-125.015
-72.369
3.62204
70.5205
127.957
167.283
197.886
217.154
231.887
241.463
249.117
253.627
256.221
255.972
253.582
249.28
244.906
240.37
235.483
227.96
219.307
211.444
205.941
201.361
197.234
192.27
187.181
181.594
176.117
170.31
164.664
158.773
152.601
145.425
137.061
127.404
116.805
105.482
93.6512
81.3291
68.6919
55.9861
43.2814
30.8386
17.5873
6.7761
42.5706
44.7202
49.8535
44.9175
36.2322
30.9586
29.2176
36.3692
44.1931
33.3481
43.1177
61.6395
75.183
76.4262
68.0789
52.6046
28.5751
8.89686
2.69471
10.0469
26.0535
42.7487
60.0029
61.4665
43.762
21.5703
0.34985
-24.1917
-35.4875
-43.4559
-64.395
-77.7366
-75.6659
-65.0597
-61.181
-29.1065
-6.58341
-5.49893
3.97698
7.57803
14.1123
25.3976
35.9226
45.9862
49.1844
41.3683
21.0723
-0.998954
-31.3361
-64.6084
-106.878
-145.732
-165.852
-158.465
-126.783
-74.6768
1.18426
67.7818
124.767
163.737
194.05
213.254
228.048
237.856
245.806
250.62
253.496
253.368
250.863
246.379
241.911
237.43
232.531
224.97
216.397
208.759
203.513
199.11
195.055
190.125
185.027
179.46
173.995
168.215
162.567
156.594
150.176
142.638
133.908
124
113.314
102.083
90.4965
78.5287
66.3335
54.1295
41.9398
29.976
17.1075
6.7785
41.7987
43.8693
49.049
44.6873
35.768
29.9833
27.861
34.5204
42.3485
32.8838
43.1514
61.3351
74.0142
74.2532
64.2513
51.1162
26.0106
4.88977
-3.21339
3.03105
18.2264
35.6896
53.3285
55.3
37.4238
15.5618
-4.73353
-27.907
-39.5573
-47.6858
-67.8402
-80.2697
-78.2439
-67.5294
-61.0448
-28.469
-4.21155
-2.35224
5.31295
7.135
13.09
23.5962
32.8011
41.2892
43.6336
34.8758
15.4701
-6.75271
-35.5341
-67.9977
-109.799
-146.501
-165.242
-158.618
-128.149
-75.9616
-0.466613
65.6004
121.986
160.518
190.506
209.615
224.457
234.463
242.675
247.741
250.846
250.763
248.014
243.273
238.701
234.308
229.38
221.75
213.25
205.846
200.853
196.65
192.676
187.809
182.738
177.224
171.818
166.103
160.476
154.411
147.716
139.799
130.73
120.624
109.921
98.8539
87.5734
76.0036
64.2694
52.5585
40.8409
29.2939
16.7335
6.80516
41.0245
43.0727
48.5305
44.4167
35.4809
29.1304
26.4894
32.78
40.4689
32.1122
43.0823
61.5906
73.1596
72.3495
62.3805
50.3143
22.6162
1.49097
-9.153
-4.63374
9.94254
28.1936
46.3967
49.0729
31.1689
9.56559
-9.8827
-31.7291
-43.4618
-51.8374
-71.1916
-82.2369
-80.1647
-69.1902
-60.0767
-27.19
-2.02675
0.944309
6.89624
7.12343
12.5712
22.1562
30.2032
36.9906
38.8752
29.1346
10.5835
-11.5634
-39.4765
-71.0321
-111.729
-146.101
-162.89
-157.002
-127.738
-75.5186
-0.612013
64.6207
120.117
158.022
187.515
206.423
221.204
231.308
239.669
244.883
248.167
248.069
244.967
239.954
235.343
231.055
226.079
218.376
209.985
202.843
198.127
194.145
190.273
185.488
180.475
175.044
169.727
164.098
158.474
152.258
145.203
136.864
127.464
117.213
106.571
95.7504
84.8452
73.716
62.4537
51.215
39.9183
28.7224
16.4256
6.7994
39.9705
42.0969
47.7654
43.8068
34.8804
27.9486
24.8704
30.8901
38.2245
30.9282
42.8569
61.7004
72.3277
70.4127
61.3416
48.3357
18.4313
-2.61281
-15.3845
-12.1331
1.65301
20.6627
39.5848
42.8433
25.1202
3.76198
-14.8749
-35.3988
-47.3796
-55.8315
-74.5689
-84.3144
-82.2638
-70.972
-59.3356
-26.2447
-0.625952
3.28971
7.88308
6.99622
12.1585
20.7896
27.9096
33.1601
34.5419
24.2438
6.15802
-15.706
-43.2488
-73.5075
-113.023
-145.407
-160.004
-154.944
-126.418
-74.2266
-0.138629
64.0747
118.566
155.789
184.769
203.446
218.159
228.321
236.777
242.053
245.48
245.224
241.653
236.371
231.784
227.583
222.505
214.735
206.487
199.64
195.206
191.463
187.717
183.039
178.131
172.826
167.64
162.122
156.498
150.088
142.636
133.882
124.21
113.901
103.415
92.9135
82.4237
71.7401
60.9211
50.1023
39.1518
28.2453
16.1576
6.76482
38.996
41.4907
47.3807
43.312
34.382
26.8741
23.4331
29.0061
35.7423
29.2817
42.4406
61.6639
71.6118
69.2664
61.0949
46.0154
15.0748
-5.91211
-21.0834
-19.6635
-6.88228
13.0771
32.6654
36.4306
19.2225
-1.93949
-19.9171
-39.0625
-51.0384
-59.4229
-77.6258
-85.8839
-83.9809
-72.2004
-58.4122
-25.416
0.288696
5.00627
8.77638
7.29371
12.3049
19.7706
26.1852
29.8429
30.6745
20.0939
2.40671
-19.1521
-46.3046
-75.0953
-112.958
-143.448
-156.134
-151.551
-123.52
-71.2301
1.85536
64.7534
117.952
154.307
182.603
200.939
215.475
225.593
234.003
239.243
242.768
242.19
238.11
232.617
228.106
223.952
218.734
210.939
202.903
196.39
192.27
188.779
185.183
180.634
175.867
170.723
165.694
160.288
154.611
147.909
139.984
130.814
120.928
110.656
100.421
90.3067
80.2617
70.0142
59.5995
49.1438
38.4686
27.8033
15.8682
6.75422
37.8836
40.7966
46.7854
42.5217
33.572
25.531
21.7328
26.8121
32.8672
27.0851
41.5453
61.5715
71.1138
68.3599
60.625
44.3522
13.5458
-8.44049
-26.2993
-26.9627
-15.464
5.69594
25.9794
30.1205
13.491
-7.43667
-24.7722
-42.6937
-54.6843
-62.9145
-80.5973
-87.5568
-85.936
-73.6071
-57.99
-25.4021
0.185872
5.63054
9.0078
7.39452
12.6874
18.749
24.7261
26.88
27.1188
16.3678
-0.84737
-22.0392
-48.9994
-76.5109
-112.368
-141.066
-152.581
-148.053
-120.137
-67.5996
4.27179
65.7022
117.537
152.995
180.62
198.596
212.945
222.975
231.26
236.456
239.912
238.844
234.291
228.657
224.216
220.047
214.66
206.89
199.122
192.986
189.196
185.963
182.54
178.149
173.572
168.629
163.791
158.507
152.738
145.682
137.273
127.744
117.748
107.617
97.7129
88.0171
78.4033
68.547
58.4742
48.3157
37.846
27.3907
15.5106
6.85719
36.9915
40.3833
46.5988
41.9838
32.9091
24.3983
20.1627
24.4502
29.7001
24.3893
40.6085
61.7263
70.8337
67.4727
59.5119
42.6916
11.0784
-11.494
-31.1095
-33.8893
-24.1012
-1.77647
19.2036
23.9749
7.96026
-12.7681
-29.5687
-46.3086
-57.9909
-66.0983
-83.1611
-88.887
-87.4372
-74.611
-57.7137
-25.9436
-0.467233
5.66354
9.13134
7.67852
13.1767
18.5066
23.8875
24.838
24.2581
13.4368
-3.28476
-23.8079
-50.8299
-77.403
-110.805
-137.688
-148.206
-143.248
-115.083
-62.2555
8.17254
67.8325
118.031
152.413
179.212
196.728
210.797
220.633
228.663
233.784
236.983
235.352
230.396
224.645
220.225
215.982
210.428
202.748
195.319
189.595
186.161
183.192
179.962
175.753
171.406
166.7
162.07
156.879
150.914
143.398
134.475
124.645
114.639
104.749
95.2377
85.9768
76.7755
67.2673
57.4853
47.5735
37.2621
26.9981
15.042
7.10897
36.0201
39.7826
46.1329
41.2327
31.9617
23.0472
18.3221
21.6142
25.9869
21.2013
39.5123
61.8315
70.4759
66.1383
57.1354
40.7678
8.46557
-14.8072
-35.7776
-40.3808
-32.5379
-9.19209
12.5964
18.099
2.64917
-17.8335
-34.1468
-50.0422
-61.3531
-69.2601
-85.5868
-90.5126
-89.0214
-75.844
-58.0085
-27.3892
-1.9913
4.83478
8.77223
7.61203
13.2074
18.3847
23.221
23.3198
21.7203
11.1903
-5.41792
-25.2672
-52.2908
-78.3119
-109.215
-134.488
-143.996
-138.17
-109.459
-56.4621
12.2722
70.0493
118.588
151.895
177.907
194.96
208.746
218.323
226.107
230.994
233.764
231.595
226.302
220.445
216.019
211.656
205.954
198.426
191.386
186.107
183.034
180.328
177.312
173.319
169.25
164.826
160.425
155.299
149.061
141.035
131.648
121.621
111.713
102.139
93.0471
84.2023
75.3677
66.156
56.6164
46.9103
36.7287
26.6309
14.4852
7.42845
35.3432
39.521
46.0771
40.8667
31.1643
21.9306
16.7247
18.5929
21.8343
17.559
38.5505
62.0151
69.6661
64.5914
54.039
38.6354
5.80326
-18.4645
-40.5201
-46.6522
-40.4309
-16.6984
5.8816
12.4452
-2.48053
-22.68
-38.4736
-53.5794
-64.4308
-71.9926
-87.5424
-91.7236
-90.1091
-76.9009
-58.5829
-29.4511
-3.90562
3.64046
8.39434
7.66527
13.3904
18.6125
22.9027
22.4631
19.891
9.9095
-6.77903
-26.2108
-52.5552
-78.1266
-106.636
-130.102
-138.397
-131.329
-101.919
-49.0492
17.709
73.3347
119.983
152.06
177.154
193.655
207.076
216.331
223.825
228.244
230.482
227.817
222.209
216.224
211.769
207.263
201.436
194.116
187.513
182.707
179.997
177.547
174.758
171.021
167.269
163.164
158.984
153.833
147.174
138.564
128.749
118.619
108.905
99.7045
91.0531
82.611
74.1149
65.171
55.8506
46.3278
36.2667
26.2984
13.9181
7.64682
34.6453
39.1493
45.7404
40.3055
30.0716
20.6052
14.9056
15.1415
17.1117
13.4367
37.4175
62.1473
68.486
62.3304
50.3707
36.4656
3.24404
-22.2238
-45.2616
-52.8512
-47.7852
-24.0412
-0.65358
6.97861
-7.64994
-27.4739
-42.5251
-57.1501
-67.6531
-74.822
-89.3057
-92.921
-91.3504
-78.3101
-59.6683
-32.08
-6.3206
1.97548
7.57241
7.51795
13.3233
18.5202
22.4357
21.9265
18.508
8.91338
-7.77045
-27.0426
-52.22
-77.377
-104.145
-125.414
-132.375
-124.086
-93.9286
-41.5173
23.0375
76.4776
121.292
152.184
176.426
192.386
205.42
214.325
221.502
225.265
226.913
223.798
217.893
211.787
207.325
202.678
196.762
189.702
183.577
179.27
176.912
174.699
172.153
168.715
165.327
161.583
157.622
152.355
145.181
135.992
125.847
115.721
106.275
97.4778
89.2586
81.1912
72.999
64.2956
55.1725
45.8088
35.8651
25.972
13.4456
7.61274
34.2394
39.2421
45.9014
40.0987
29.1249
19.6017
13.4859
11.6735
12.0375
9.05244
36.2098
62.2288
67.1447
59.5871
47.2186
34.4998
0.721209
-25.8521
-49.9579
-58.2667
-54.323
-31.3155
-6.97119
1.76284
-12.8464
-32.1021
-46.2494
-60.2698
-70.3877
-77.4917
-90.6554
-93.804
-92.4198
-79.738
-61.1223
-35.1269
-8.74911
0.767868
6.55857
7.67101
13.5664
18.5985
22.2937
22.086
17.8287
8.39036
-7.79548
-26.9495
-50.6496
-75.0131
-100.311
-118.946
-124.355
-115.085
-84.2702
-32.6694
29.4552
80.4796
123.311
152.929
176.208
191.544
204.167
212.687
219.408
222.467
223.48
219.855
213.619
207.387
202.917
198.132
192.151
185.389
179.791
175.997
173.977
171.975
169.675
166.581
163.6
160.241
156.437
150.874
143.036
133.257
122.859
112.829
103.721
95.361
87.5869
79.8925
71.994
63.5157
54.5731
45.3469
35.5229
25.6741
13.1727
7.29875
33.7599
39.1221
45.833
39.5105
27.8603
18.5216
11.8837
7.87261
6.56055
4.4458
34.5591
62.0996
65.5025
55.9009
44.2597
32.5852
-1.19212
-29.4178
-54.6326
-63.1584
-60.6324
-38.5613
-12.765
-3.33938
-18.07
-36.4885
-49.7892
-63.4496
-73.2177
-80.1189
-92.021
-94.9583
-93.781
-81.4848
-63.0052
-38.7457
-11.5983
-0.203638
5.21214
7.6156
13.593
18.4787
22.0832
22.4343
17.4311
7.79899
-7.4676
-26.5528
-49.0441
-72.0434
-95.8466
-112.151
-116.065
-106.072
-74.6919
-24.1045
35.4892
84.1002
125.059
153.527
175.93
190.646
202.869
210.933
217.031
219.471
219.893
215.7
209.103
202.807
198.371
193.457
187.439
181.019
176.007
172.736
171.04
169.216
167.177
164.476
161.955
159.005
155.28
149.258
140.696
130.394
119.851
110.002
101.281
93.3757
86.0411
78.7065
71.0755
62.7908
53.9986
44.8873
35.1953
25.3886
13.1288
6.7919
33.5411
38.8473
46.3035
39.0997
26.8523
17.9653
10.4966
3.80674
0.775968
-0.453323
32.8887
62.1102
63.3449
50.9039
41.6247
30.7672
-2.94784
-32.8302
-58.9986
-67.2459
-66.3848
-45.5202
-18.1887
-8.24311
-23.0288
-40.3821
-52.8104
-66.0632
-75.487
-82.2123
-93.1251
-96.0732
-95.0315
-83.2613
-65.1376
-42.7803
-15.2296
-1.21631
4.2583
7.91195
14.0146
18.8131
22.2798
23.197
17.8469
7.90877
-6.20566
-25.0315
-46.4924
-67.674
-89.6554
-103.867
-106.391
-95.7094
-63.791
-14.4991
42.4013
88.3921
127.341
154.641
176.072
190.134
201.965
209.516
214.8
216.7
216.567
211.714
204.72
198.393
193.97
188.925
182.885
176.838
172.468
169.729
168.328
166.656
164.883
162.62
160.589
158.018
154.162
147.443
138.077
127.307
116.714
107.137
98.8737
91.4652
84.5898
77.612
70.2231
62.0978
53.4301
44.4284
34.8962
25.1744
13.329
6.26044
33.6038
38.2609
45.9073
38.2818
25.6075
17.0224
8.56229
-0.711721
-5.49297
-6.20408
31.0864
61.8575
60.7618
45.3651
38.7791
28.9023
-4.25742
-36.2721
-62.701
-71.3228
-71.9287
-52.0813
-23.4952
-13.2568
-27.8618
-43.9876
-55.4706
-68.7413
-77.892
-84.1164
-94.2541
-97.4754
-96.4976
-85.279
-67.5002
-47.0338
-19.6799
-2.93816
3.33227
8.15486
14.3513
19.1371
22.4558
23.8332
18.5789
8.29345
-4.92079
-23.0711
-43.741
-63.1259
-83.2592
-95.7828
-96.9439
-85.6266
-53.2426
-5.44107
48.6912
92.1566
129.185
155.461
176.01
189.486
200.889
207.837
212.215
213.676
213.063
207.532
200.165
193.869
189.489
184.343
178.308
172.675
169.003
166.802
165.664
164.139
162.655
160.874
159.37
157.11
152.884
145.317
135.186
124.067
113.542
104.321
96.5596
89.6603
83.2286
76.5744
69.3801
61.3705
52.8053
43.9225
34.5922
25.0186
13.6967
5.85525
33.672
38.101
45.8453
37.8697
24.7666
16.2164
6.53592
-5.22992
-12.1385
-11.987
29.2167
61.3648
57.826
40.1076
36.4473
27.0903
-5.42648
-39.5234
-65.5017
-75.0855
-76.5751
-57.9675
-28.425
-18.1496
-32.3255
-47.1058
-57.3187
-70.8666
-79.663
-85.4591
-95.2052
-98.8543
-97.883
-87.2925
-69.9089
-51.2317
-24.5924
-5.24108
2.53709
8.73719
15.1221
20.0232
23.1394
24.7827
19.9287
9.55771
-3.03357
-19.9064
-39.6529
-57.3275
-75.331
-86.3707
-86.1239
-74.2244
-41.5483
4.44261
55.602
96.4415
131.452
156.649
176.204
189.25
200.254
206.514
209.876
210.896
209.807
203.575
195.877
189.615
185.242
180.027
174.029
168.836
165.901
164.233
163.311
161.932
160.76
159.487
158.485
156.304
151.346
142.774
131.922
120.58
110.258
101.5
94.3082
87.9448
81.9497
75.5841
68.5333
60.6004
52.1332
43.4051
34.3323
24.9776
14.196
5.69544
33.594