/*--------------------------------*- C++ -*----------------------------------*\
| =========                 |                                                 |
| \\      /  F ield         | OpenFOAM: The Open Source CFD Toolbox           |
|  \\    /   O peration     | Version:  4.1                                   |
|   \\  /    A nd           | Web:      www.OpenFOAM.org                      |
|    \\/     M anipulation  |                                                 |
\*---------------------------------------------------------------------------*/
FoamFile
{
    version     2.0;
    format      ascii;
    class       surfaceScalarField;
    location    "30";
    object      phi;
}
// * * * * * * * * * * * * * * * * * * * * * * * * * * * * * * * * * * * * * //

dimensions      [0 3 -1 0 0 0 0];

internalField   nonuniform List<scalar> 
52920
(
1708.21
67.9142
1742.06
-124.812
1816.16
-121.608
1752.4
-19.145
1650.82
-99.8031
1793.56
-573.52
3142.05
-1483.76
977.513
1213.23
-53.4547
1054.05
-1468.5
855.342
-1160.85
9.24
-1336.15
287.975
-1440.2
644.969
-1457.32
113.377
-1100.74
160.984
-755.771
-364.046
-385.777
-325.448
-439.403
437.706
-1141.97
969.677
-1768.29
810.234
-2035.72
387.871
-2087.6
303.641
-1631.01
-360.388
-167.126
-1097.81
1310.4
-1296.37
2595.62
-1036.55
3452.05
-701.018
4127.93
-552.455
4604.34
-374.971
5006.11
-252.072
5323.36
-183.847
5583.63
-187.685
5697.43
-91.8777
5455.35
295.603
5118.89
372.136
5115.84
73.2035
4890.81
281.621
4695.35
218.412
4427.62
228.9
3912.53
435.613
2979.42
811.601
1460.01
1303.92
-115.739
1346.19
169.599
-369.534
1683.11
-1529.87
2286.93
-730.478
1240.07
896.129
-540.477
1346.63
-3141.53
2297.63
-4553.85
1532.49
-6283.29
1366.23
-7096.31
1094
-8105.9
864.142
-8339.25
467.666
-8263.1
35.6868
-7807.93
-288.118
-7045.49
-620.679
-6163.8
-921.812
-4917.47
-1107.2
-3914.42
-1131.4
-2667.93
-1132.84
-1861.88
-958.923
-742.193
-1079.97
469.041
-1279.67
1736.37
-1247.39
2687.58
-990.24
3490.17
-818.47
4169.09
-702.193
4760.3
-619.676
5304.08
-551.828
5769.14
-493.395
6214.74
-440.276
6584.31
-390.84
6946.59
-343.588
7235.13
-298.067
7518.64
-254.064
7734
-214.123
7954.02
-183.786
8139.87
-172.482
8360.85
-176.298
8576.66
-189.435
8812.88
-183.985
8980.37
-131.307
9068.1
-28.3719
8999.64
115.842
8775.69
290.427
8409.52
428.646
7976.83
495.663
7613.22
421.336
7463.46
187.985
7653.95
-147.066
8159.11
-482.829
8950.61
-758.983
9912.17
-947.671
10994.8
-1060.45
12121.2
-1117.8
13274.8
-1141.2
14432.1
-1153.82
15569.1
-1134.18
-1192.05
1972.13
311.96
1893.43
-43.7217
1697.72
62.7233
1708.52
30.4826
890.987
522.945
-358.243
-398.148
2630.27
-5136.69
245.536
1137.17
110.252
723.485
-804.152
525.921
-614.504
-264.077
-866.548
167.386
-879.668
541.313
-1052.92
31.8661
-161.48
291.819
396.583
-490.307
229.315
-258.286
-329.332
1017.59
-1121.71
1400.47
-1839.71
1243.45
-2465.83
700.417
-2348.8
94.0029
-1406.12
-1276.03
156.913
-2322.2
1537.79
-2420.3
2719.83
-1880.42
3590.96
-1284.73
4254.92
-887.651
4709.84
-487.594
5106.35
-270.956
5433.64
-202.453
5694.43
-259.459
5796.73
-134.418
5579.89
492.521
5296.99
638.8
5187.12
368.585
4812.58
833.503
4488.59
656.682
4269.23
437.838
3858.19
696.915
3106.67
1304.11
2057.57
2012.57
207.827
2834.08
-235.781
-179.816
1005.52
-2833.95
993.798
-740.999
-476.545
2356.31
-2906.92
3607.31
-4264.49
3448.6
-5179.95
2596.39
-6501.4
2395.69
-7136.18
1991.55
-8011.39
1585.71
-8192.24
832.088
-8115.85
60.9008
-7609.24
-648.361
-6790.88
-1367.45
-5823.86
-1984.18
-4507.52
-2366.48
-3427.78
-2418.17
-2187.06
-2383.45
-969.546
-2412.78
488.215
-2582.96
1647.98
-2543.83
2631.07
-2267.94
3481.27
-1918.51
4255.35
-1646.36
4934.87
-1435.78
5535.32
-1272.14
6087.31
-1133.79
6562.86
-1013.1
7013.92
-904.26
7389.62
-801.1
7752.35
-704.245
8043.51
-611.09
8328.85
-523.368
8553.41
-444.448
8784.69
-384.625
8978.77
-351.393
9188.01
-337.117
9358.68
-321.72
9501.71
-260.807
9549.13
-124.021
9520.85
75.6297
9380.34
324.112
9178.08
578.162
8940.61
751.723
8736
782.578
8680.94
561.715
8854.45
89.8525
9326.54
-530.492
10060.9
-1145.28
11025.9
-1645.98
12123.9
-1989.92
13311.9
-2194.36
14525.6
-2297.29
15752.4
-2338.34
16967.9
-2353
18186.2
-2341.79
-2396.95
1887.2
554.141
1604.83
96.3893
1552.19
22.4929
1657.23
-172.319
1315.94
713.979
529.919
581.363
510.321
-4974.74
-560.858
993.909
114.712
166.959
-901.077
1077.48
-971.559
280.914
-1061.96
526.481
-975.803
1152.92
-817.385
122.24
806.593
-769.129
2022.94
-1672.26
280.55
1538.81
-428.192
2188.28
-1288.12
2649.42
-1866.46
2125.63
-2373.95
1514.8
-1887.14
-32.7014
-654.482
-2412.28
621.993
-3464.8
1740.45
-3498.99
2811.17
-2832.07
3652.38
-2067.62
4307.75
-1504.72
4775.39
-940.585
5178.92
-606.757
5498.75
-455.829
5747.91
-484.255
5885.63
-267.602
5769.99
657.868
5573.01
860.917
5349.4
618.874
4980.67
1211.45
4768.61
870.473
4705.53
476.041
4364.75
1016
3534.42
2109.24
2553.88
2914.64
1319.67
4004.52
-1836.91
3004.23
-3136.19
-1537.72
-2280.74
-1836.47
-3263.96
3175.46
-3937.7
4089.57
-4850.35
4183.24
-5582.69
3400.13
-6647.27
3181.45
-7137.23
2726.59
-7869.62
2195.15
-7974.96
1188.92
-7880.84
88.3564
-7307.2
-1046.69
-6400.41
-2120.71
-5356.5
-3036.85
-4006.73
-3572.55
-2834.91
-3652.6
-1396.07
-3680.12
-84.4556
-3746.19
1193.77
-3800.53
2211.6
-3571.45
3153.16
-3183.09
3983.15
-2758.05
4747.49
-2405.73
5426.12
-2118.49
6030.7
-1886.27
6585.71
-1685.98
7066.96
-1508.56
7520.59
-1346.26
7900.73
-1192.32
8264.59
-1046.22
8559.17
-908.161
8845.41
-780.273
9073.18
-667.899
9304.9
-583.612
9496.82
-531.652
9691.89
-495.06
9839.08
-450.177
9951.06
-335.067
9981.51
-132.414
9958.75
137.827
9855.16
456.176
9725.14
750.277
9572.66
940.443
9472.25
910.36
9548.45
506.881
9877.43
-236.122
10511.4
-1158.72
11393.8
-2037.53
12474.1
-2727.02
13655.4
-3182.14
14896.8
-3436.9
16143
-3550.67
17385.3
-3581.41
18604.7
-3576.8
19821.7
-3561.1
-3588.59
1243.1
1283.29
1100.32
198.773
1348.19
-313.647
1567.01
-406.24
1302.99
859.83
365.883
1131.1
1139.08
-6063.16
1168.9
-1586.06
308.095
636.029
-759.182
837.958
-963.634
307.364
-1109.75
423.213
-1215.97
1249.7
-1120.45
-54.9091
-426.368
-1177.99
-77.7367
-1838.39
-761.289
2219.53
-1118.56
2491.6
-1511.6
2792.91
-1864.76
2282.65
-2030
1500.26
-1392.6
-703.186
-338.702
-3404.47
833.16
-4439.62
1874.73
-4397.91
2882.64
-3626.24
3693.69
-2684.2
4336.9
-1910.2
4809.95
-1143.26
5205.28
-673.911
5497.93
-469.029
5726.76
-534.399
5885.29
-360.342
5868.33
637.037
5724.64
914.662
5414.56
947.82
5076.27
1573.71
4951.18
1006.34
5002.04
415.784
4752.94
1194.61
3911.62
2820.29
2893.69
3731.94
2008.9
4667.57
-223.721
5079.05
-3202.82
1332.35
-3507.31
-1655.77
-3298.7
2986.34
-4145.61
4824.69
-4984.13
4861.85
-5670.43
4207.17
-6631.36
3901.39
-7049.61
3375.66
-7687.75
2676.38
-7720.25
1380.29
-7592.4
25.8016
-6951.94
-1581.1
-5962.86
-3090.69
-4839.55
-4281.09
-3443.1
-4955.26
-2193.23
-5089.09
-741.553
-5141.33
531.383
-5146.24
1714.62
-5017.71
2681.02
-4624.4
3588.38
-4132.22
4393.36
-3631.6
5140.07
-3200.75
5808.63
-2836.28
6408.72
-2532.4
6959.98
-2266.34
7440.5
-2029.21
7891.47
-1811.56
8270.72
-1604.23
8632.7
-1409.24
8928.44
-1225.62
9215.01
-1055.12
9445.46
-904.298
9673.49
-785.121
9854.34
-697.752
10029.9
-626.103
10160.6
-543.809
10270.5
-383.324
10323.4
-132.261
10335.7
197.34
10270.9
590.233
10165.2
942.419
10024.8
1164.7
9967.27
1041.98
10147.5
403.332
10638.6
-662.328
11452.7
-1900.62
12492.2
-3021.61
13683.8
-3861.14
14932.7
-4391.93
16204.1
-4671.21
17454.6
-4779.14
18681.9
-4789.72
19873.5
-4758.73
21052.9
-4734.31
-4732.59
1819.57
1006.19
1592.11
265.902
1312.14
-119.165
1470.36
-660.531
1396.5
825.914
572.005
2151.41
-567.485
-4759.5
-911.598
-582.333
-125.818
60.8048
-726.61
1341.72
-736.26
920.842
-820.893
846.109
-1044.88
2358.32
-1258.04
545.718
-752.188
-1188.76
-312.962
-2308.93
-592.694
2541.1
-1141.9
3389.46
-1623.67
3667.49
-1899.99
2905.1
-1853.12
1867.6
-1080.71
-1166.35
-114.709
-4306.37
981.22
-5470.22
1966.23
-5391.5
2922.38
-4523.43
3699.63
-3456.02
4323.04
-2549.03
4798.98
-1665.16
5196.16
-1063.05
5476.61
-729.356
5702.03
-765.313
5859.03
-511.97
5880.73
680.679
5734.51
1107.16
5459.39
1260.67
5259
1787.19
5169.42
1097.72
5178.83
393.903
4977.99
1399.37
4246.17
3566.33
3206.4
4752.59
2369.33
5488.14
1216.28
6293
-1083.75
3674.37
-2641.8
-269.536
-3137.29
3381.41
-4073.49
5617.17
-4925.1
5568.75
-5600.32
4936.17
-6499.73
4545.56
-6863.18
3968.03
-7431.84
3125.87
-7409.18
1624.68
-7266.36
13.2673
-6573.85
-2086.89
-5522.07
-3980.84
-4341.96
-5446.5
-2910.73
-6239.71
-1609.4
-6411.42
-178.177
-6443.29
1033.65
-6343.45
2134.78
-6059.3
3062.17
-5549.14
3937.31
-4975.62
4716.67
-4408.6
5443.62
-3913.66
6098.15
-3487
6689.04
-3124.17
7231.94
-2801.92
7706.26
-2511.4
8149.8
-2240.75
8523.35
-1984.32
8880.02
-1742.46
9172.47
-1517.36
9455.3
-1308.93
9680.98
-1124.71
9895.27
-969.152
10058.6
-851.33
10221.6
-757.667
10358
-666.852
10495.5
-492.435
10589.3
-212.559
10630.6
184.243
10572.9
666.693
10446.7
1096.87
10305.4
1325.11
10332.9
1022.36
10691.6
48.3126
11404.1
-1387.6
12416.7
-2922.38
13596.8
-4223.25
14865.6
-5142.66
16142
-5687.47
17404.4
-5943.04
18623.1
-6010.1
19803.4
-5975.22
20938.5
-5900.68
22051.9
-5851.35
-5810.63
1879.78
759.045
1560.27
453.42
1341.36
-396.095
1519.45
-999.284
1446.51
764.344
679.976
2616.76
-566.749
-3687.15
-392.942
-1465.1
-279.549
-250.857
-697.959
843.087
-605.284
680.243
-628.546
732.811
-915.433
3006.91
-1272.63
1103.98
-783.627
-1490.88
-278.626
-2758.61
-698.515
3106.59
-1344.79
4063.26
-1780.12
4003.16
-1951.76
2979.38
-1732.34
1629.23
-912.466
-1928.74
4.60403
-5157.12
1063.66
-6370.9
2019.75
-6250.23
2939.41
-5293.5
3686.77
-4067.47
4290.77
-2990.19
4766.56
-1946.27
5153.61
-1176.72
5411.51
-725.413
5626.46
-780.103
5789.52
-549.266
5804.07
672.559
5648.89
1178.82
5493.6
1380.68
5396.9
1836.37
5219.76
1216.37
5117.18
451.387
5026.15
1440.65
4543.2
3983.78
3586.45
5601.52
2667.83
6265.03
1816.55
7041.79
346.594
5046.69
-1602.08
1577.56
-2921.19
4680.17
-3906.61
6484.95
-4784.86
6298.07
-5446.61
5692.99
-6312.9
5183.02
-6639.96
4511.42
-7158.24
3480.18
-7083.2
1707.73
-6906.41
-119.55
-6159.04
-2746.95
-5047.04
-5104.09
-3814.24
-6810.76
-2379.13
-7679.91
-1081.33
-7863.08
305.467
-7835.81
1459.23
-7589.16
2500.21
-7130.93
3386.41
-6512.2
4226
-5854.75
4976.94
-5221.57
5681.87
-4662.2
6320.21
-4171.11
6899.77
-3745.03
7431.94
-3361.56
7896.83
-3012.77
8329.62
-2687.23
8694.11
-2378.99
9041.99
-2091.43
9328.03
-1823.25
9602.56
-1572.21
9815.39
-1341.34
10009.9
-1137.4
10158.9
-983.617
10324.8
-879.285
10489.5
-791.351
10667.4
-608.534
10791.3
-281.021
10827.6
222.022
10750.5
819.338
10607.2
1330.98
10528.4
1482.55
10736
882.432
11332.1
-478.336
12261.2
-2260.67
13421.1
-4022.75
14674.3
-5433.46
15956.2
-6381.47
17206.5
-6910.34
18418
-7128.94
19573.1
-7151.16
20682.3
-7072.25
21743.2
-6955.97
22775.8
-6880.35
-6802.44
1332.92
571.736
1313.3
311.414
903.57
-733.483
1268.17
-1531.43
1407.14
517.801
849.621
3322.97
-607.798
-2095.04
-518.946
-744.874
-527.064
38.703
-760.843
1182.11
-549.046
1167.44
-403.361
921.561
-742.236
4470.04
-1363.24
2409.31
-923.704
-1357.35
-571.068
-3221.51
-893.767
3438.18
-1481.01
4895.76
-1872.36
4738.95
-2033.72
3474.67
-1753.21
1923.77
-825.125
-2606.4
107.098
-6051.31
1136.5
-7363.8
2064.51
-7207.17
2948.21
-6147.68
3668.25
-4806.69
4253.68
-3613.93
4727.45
-2491.23
5105.28
-1576.15
5347.29
-977.505
5540.55
-1001.56
5710.53
-733.282
5701.46
732.977
5530.99
1393.1
5471.4
1487.02
5476.08
1857.02
5288.72
1416.25
5060.49
683.269
4976.26
1542.74
4687.16
4294.22
3885.64
6401.34
2922.67
7233.2
2063.92
7976.63
832.316
6336.59
-1156.02
3517.01
-2689.36
6154.34
-3705.73
7400.38
-4595.52
7076.67
-5244.76
6385.88
-6072.95
5766.15
-6353.09
5012.83
-6825.13
3827.55
-6714.93
1883.63
-6527.48
-177.098
-5743.29
-3335.67
-4582.34
-6100.31
-3312.53
-8049.86
-1862.55
-8980.9
-563.895
-9155.58
751.474
-9041.11
1829.91
-8648.09
2815.34
-8058.64
3658.76
-7346.11
4461.14
-6621.45
5183.09
-5934.8
5866.57
-5326.69
6489.66
-4786.87
7058.9
-4310.57
7581.14
-3874.86
8036.93
-3473.31
8460.01
-3095.01
8816.22
-2739.39
9156.73
-2407.87
9436.05
-2100.14
9697.43
-1805.43
9890.16
-1528.81
10064.1
-1284.2
10206.8
-1118.69
10389.5
-1036.26
10587.7
-980.169
10791.1
-790.439
10912.3
-394.46
10918.6
235.537
10826.9
920.01
10726.3
1444.57
10810.6
1400.84
11249.4
435.615
12056.7
-1294.94
13125.1
-3351.66
14342.6
-5257.77
15591
-6708.64
16827.5
-7635.5
18010.9
-8115.36
19144.8
-8275
20219.4
-8238.94
21247.9
-8107.09
22229.9
-7945.01
23180.9
-7835.08
-7714.78
1155.12
595.501
1438.1
-279.063
451.962
-1108.17
889.995
-2368.09
1239.44
-11.6553
948.864
3359.58
-513.631
-735.167
-726.245
-983.1
-660.337
-26.1863
-810.012
768.144
-600.711
968.197
-549.961
849.506
-738.454
4989.34
-1289.84
3432.41
-959.473
-1146.15
-886.158
-3045.41
-1090.62
3879.13
-1581
5516.14
-1912.35
5117.6
-2145.15
3696.72
-1830.97
1777.29
-769.775
-3547.06
168.346
-6927.84
1183.15
-8241.65
2093.14
-8038.85
2946.57
-6884.45
3643.17
-5405.01
4214.95
-4071.98
4681.17
-2825.32
5047.16
-1724.52
5269.19
-956.989
5432.78
-949.019
5631.76
-723.813
5611.41
839.184
5374.38
1608.99
5293.81
1563.74
5403.46
1722.04
5364.28
1388.57
5118.17
864.526
4945.4
1665.52
4699.6
4495.55
4048.53
6988.64
3112.33
8074.16
2222.92
8791.4
1024.92
7438.93
-926.925
5355.6
-2460.53
7627.27
-3484.9
8294.1
-4372.63
7818.06
-5003.53
7082.45
-5803.23
6342.31
-6050.69
5473.56
-6492.31
4108.06
-6341.7
1920.7
-6120.29
-347.691
-5297.21
-4063.26
-4093.03
-7321.89
-2804.06
-9462.45
-1367.63
-10418.4
-92.0934
-10546.7
1153.61
-10288.4
2163.92
-9732.74
3092.27
-9010.8
3889.24
-8208.34
4652.17
-7416.73
5344.52
-6680.57
6007.96
-6026.05
6618.75
-5437.21
7181.62
-4907.28
7698.74
-4414.49
8150.9
-3955.54
8570.12
-3523.81
8924.82
-3118.91
9263.81
-2744.42
9539.04
-2390.25
9787.15
-2039.24
9962.16
-1702.69
10125.4
-1418.91
10279
-1251.61
10486.2
-1198.02
10701.5
-1151.09
10896.2
-923.164
10985.8
-427.628
10972.6
323.749
10911.3
1060.19
10930.1
1506.17
11221.1
1178.8
11850.1
-134.967
12781.3
-2165.86
13895.7
-4419.64
15096.5
-6410.65
16289.5
-7869.06
17449.2
-8763.32
18548.1
-9195.34
19595.4
-9304.84
20586
-9221
21533.5
-9046.86
22438.6
-8847.1
23313.2
-8707.71
-8546.96
821.346
628.331
793.019
-298.732
448.625
-637.483
723.394
-2684.58
1081.97
-511.859
1003.14
3538.7
-272.194
642.787
-838.606
189.587
-816.739
279.736
-872.33
1042.18
-605.975
1516.92
-603.006
1113.5
-1091.43
6093.58
-2831.38
5686.39
-2477.32
-845.826
-1212.03
-4493.39
-1175.05
3817.59
-1646.91
6178.42
-1942.47
5723.33
-2219.87
4308.9
-1852.97
2134.05
-713.327
-4484.67
226.476
-7849.4
1225.38
-9219.99
2115.73
-8966.27
2941.38
-7693.78
3616.37
-6105.91
4173.31
-4672.07
4623.09
-3350.66
4977.76
-2112.68
5189.63
-1196.64
5327.02
-1132.16
5551.96
-984.157
5533.14
886.344
5228.88
1951.62
5068.51
1785.1
5209.94
1629.27
5265.72
1359.33
5077.91
1067.98
4879.36
1884.45
4625.12
4767.07
4076.54
7538.31
3197.1
8967.14
2285.49
9785.72
1076.29
8719.34
-783.378
7212.21
-2239.25
9061.5
-3251.39
9247.79
-4120.61
8611.47
-4734.89
7737.64
-5498.74
6872.06
-5704.15
5896.76
-6110.59
4377.74
-5935.58
2049.33
-5704.79
-467.468
-4855.26
-4717.74
-3610.3
-8407.36
-2298.77
-10734.7
-879.942
-11695.5
348.047
-11760.2
1515.7
-11362
2460.71
-10659.9
3330.59
-9826.01
4079
-8944.08
4801.57
-8102.09
5465.4
-7332.88
6111.97
-6651.38
6715.18
-6032.16
7277.61
-5463.83
7796.84
-4925.01
8254.17
-4416.35
8680.63
-3935.46
9045.5
-3486.93
9392.63
-3068.48
9669.75
-2664.56
9912.11
-2256.13
10086.8
-1873.21
10268.1
-1577.88
10460.4
-1438.89
10698.4
-1416.26
10912.7
-1360.31
11068.9
-1064.74
11117.2
-473.372
11119.5
332.823
11138.7
1039.34
11303.6
1337.34
11750.1
722.691
12478.5
-882.37
13444.3
-3149.11
14538.2
-5541.77
15681
-7575.03
16796.5
-9012.66
17869.9
-9855.63
18881.6
-10228.1
19843.6
-10279
20753.1
-10142.8
21623.4
-9923.08
22455.3
-9685.41
23259
-9514.57
-9310.81
774.354
469.802
733.151
-957.45
415.418
-1033.47
545.694
-3209.14
895.548
-1208.2
1010.89
3192.35
-36.0224
1634.82
-713.048
629.649
-852.456
565.678
-888.486
796.335
-583.096
1429.4
-642.129
1270.07
-314.836
6025.84
-579.498
6187.98
-1268.63
421.074
-1318.83
-4214.94
-1207.41
3940.76
-1695.66
6845.51
-1972.05
6155.63
-2171.77
4578.84
-1711.54
1852.55
-671.252
-5403.25
261.267
-8732.56
1250.84
-10088
2127.03
-9769.72
2930.86
-8393.73
3584.89
-6681.23
4122.9
-5125.45
4548.9
-3686.15
4892.4
-2277.8
5106.25
-1178.26
5219.83
-1013.33
5473.13
-939.255
5471
1072.32
5093.13
2392.09
4817.94
2123.28
4954.16
1534.61
5005.61
1255.61
4869.59
1130
4725.59
1979.68
4496.55
4958.17
4019.01
7969.6
3204.94
9707.06
2300.63
10628.4
1088.88
9838.99
-663.781
8846.11
-2022.24
10332.2
-3012.68
10098.6
-3853.84
9306.53
-4438.02
8356.17
-5170.82
7386.08
-5352.47
6298.09
-5740.6
4613.94
-5535.17
2080.16
-5272.98
-645.624
-4388.2
-5476.61
-3112.81
-9687.92
-1791.16
-12157.9
-402.412
-13072.5
763.951
-13012
1850.07
-12442.1
2727.44
-11595.9
3535.99
-10648.3
4232.7
-9692.68
4913.32
-8804.84
5548.78
-8010.98
6180.63
-7308.84
6780.23
-6662.45
7347.86
-6055.46
7877.04
-5469.28
8350.21
-4911.09
8796.4
-4385.01
9183.92
-3891.88
9548.53
-3425.23
9836.71
-2960.64
10088
-2489.01
10287.5
-2065.77
10513.7
-1773.99
10758.1
-1659.45
11022.1
-1635.45
11226.1
-1519.36
11350.1
-1130.07
11388
-456.029
11431.9
362.487
11528.5
1017
11794.8
1137.37
12311.4
266.292
13063.2
-1583.99
14012.4
-4046.59
15058.8
-6550.22
16133.7
-8611.55
17171.3
-10025.8
18162.5
-10823.4
19092.6
-11145.5
19974.6
-11149.4
20807.6
-10971
21604.1
-10715
22365.4
-10445.5
23101
-10249.4
-10004.7
712.874
27.6168
705.471
-951.712
375.714
-563.359
380.553
-3196.34
727.931
-1745.98
979.596
2986.32
193.215
2493.95
-564.965
1858.54
-856.653
1181.7
-853.925
1016.15
-425.167
1859.79
-417.351
1454.46
365.707
5528.61
2167.94
4547.17
2658.97
489.227
-146.488
-1553.72
-1208.19
4960.6
-1727.41
7487.47
-1980.18
6644.88
-2047.17
4941.98
-1517.62
1890.53
-623.524
-6135.44
296.237
-9646.72
1273.89
-11052.3
2134.14
-10671.2
2917.63
-9171.5
3549.11
-7342.76
4062.72
-5678.55
4458.26
-4152.21
4790.76
-2651.14
5014.12
-1447.48
5116.72
-1180.17
5392.14
-1283.71
5410.15
1046.62
4972.47
2836.47
4621.22
2518.64
4723.81
1490.98
4678.51
1345.57
4571.59
1276.85
4510.17
2069.56
4327.62
5152.48
3900.72
8394.47
3146.01
10474.1
2255.75
11598.5
1054.43
11118.2
-568.744
10497.6
-1816.93
11590.2
-2771.75
11032.3
-3577.1
10069.4
-4129.82
8952.85
-4820.81
7857.38
-4975.37
6668.73
-5341.75
4825.72
-5119.32
2146.92
-4842.8
-856.144
-3914.86
-6217.41
-2614.67
-10841.6
-1301.99
-13431.2
45.8845
-14294.6
1146.93
-14101.6
2154.99
-13369.2
2963.29
-12390.4
3707.9
-11342.8
4350.45
-10322.4
4987.65
-9405.61
5594.82
-8606.39
6213.62
-7906.19
6812.66
-7254
7390.09
-6626.48
7936.11
-6008.11
8434.25
-5412.69
8910.29
-4847.97
9328.45
-4313.27
9716.95
-3793.27
10024.7
-3266.59
10298.8
-2742.07
10538.7
-2303.5
10816
-2034.36
11103
-1944.13
11381.1
-1899.63
11579.9
-1717.6
11702.8
-1245.23
11765
-520.618
11854.3
275.084
12001.1
858.318
12310.8
812.649
12837.3
-277.712
13575.2
-2347.74
14491.3
-4985.09
15487.5
-7577.24
16499
-9646.15
17466.2
-11020.5
18383.5
-11759
19239.4
-12020.5
20047.9
-11968.8
20809.1
-11742.9
21535.5
-11446.4
22228.2
-11143.7
22897.4
-10921
-10635
581.873
-495.01
484.343
-1583.97
317.535
-1074.31
304.474
-3497.15
677.491
-2539.92
946.479
2482.34
391.405
3014.94
-354.434
2429.07
-751.588
1780.89
-747.016
926.765
-287.367
1760.85
-245.883
1603.88
261.891
5391.48
1671.67
3403.17
2315.71
6915.29
5.16351
969.32
-1223.87
6363.94
-1742.2
8182.05
-1997.76
7112.09
-1976.82
5059.08
-1397.97
1432.49
-588.46
-6849.85
318.096
-10520.4
1287.41
-11914.9
2134.67
-11450.2
2899.06
-9838.12
3507.37
-7880.19
3996.59
-6099.21
4368.77
-4455.66
4694.22
-2818.18
4926.1
-1451.47
5020.14
-1039.17
5317.44
-1236.67
5334.27
1271.46
4818.83
3471.91
4390.11
3065.59
4431.19
1541.13
4223.02
1496.81
4136.87
1274.79
4213.29
1942.11
4117.45
5215.26
3741.51
8733.75
3045.97
11108.8
2186.05
12408.1
1016.28
12210
-478.997
11885.8
-1619.04
12635.9
-2523.74
11797.1
-3288.31
10691.6
-3810.04
9478.51
-4462.25
8291.42
-4581.73
7012.79
-4949.2
5019.4
-4727.66
2206.08
-4417.48
-1026.14
-3419.14
-7050.63
-2096.25
-12148.3
-798.667
-14800.5
484.88
-15552.2
1507.09
-15186.8
2435.87
-14282.1
3172.17
-13170.3
3849.84
-12023.2
4434.95
-10946.1
5026.39
-10008.5
5603.98
-9215.8
6209.69
-8527.15
6809.59
-7875.7
7400.16
-7231.74
7968.79
-6584.87
8499.11
-5956.72
9010.9
-5357.28
9463.41
-4776.16
9878.69
-4195.56
10211.7
-3600.92
10517.4
-3026.56
10802.6
-2577.66
11122.8
-2324.86
11435.8
-2232.48
11719
-2140.28
11923
-1878.47
12066.7
-1334.16
12163.5
-563.077
12283
226.929
12450.1
755.851
12766.5
552.926
13283.6
-741.387
14004.9
-3026.17
14894.7
-5830.87
15851.5
-8503.16
16811.1
-10575.4
17719
-11910.3
18571.9
-12594.9
19361.7
-12802.2
20102.7
-12702.5
20796.7
-12434.9
21455.8
-12103.2
22081.6
-11769.8
22684.5
-11523.9
-11198.1
410.776
-670.32
334.914
-1221.47
412.139
-773.464
376.742
-3361.19
643.035
-2834.75
886.062
2198.7
529.823
3407.04
-193.822
3524.69
-795.022
2660.49
-908.196
1219.15
-423.875
2092.89
-213.391
1561.99
693.694
4774.06
-4563.05
8873.62
3689.48
3939.27
276.641
4198.47
-1265.62
7864.09
-1761.02
8757.2
-2005.45
7540.11
-1924.95
5256.05
-1329.72
1289.07
-553.697
-7489.82
340.848
-11415.6
1300.35
-12863.2
2133.07
-12324.6
2876.27
-10581.3
3461.87
-8493.48
3928.6
-6595.36
4284.15
-4868.63
4610.93
-3183.82
4845.17
-1742.32
4920.85
-1198.82
5213.1
-1649.61
5245.55
1186.66
4736.2
3939.66
4284.17
3515.28
4157.63
1708.88
3733.52
1990.53
3650.6
1423.32
3862.17
1766.34
3866.22
5219.13
3544.89
9050.97
2905.5
11760.1
2080.65
13311.9
957.556
13418.9
-401.601
13298
-1429.59
13697
-2267.15
12643.2
-2992.82
11403.5
-3514.12
10049.1
-4125.67
8698.64
-4150.77
7247.96
-4502.71
5186.41
-4293.73
2212.14
-3981.91
-1341.53
-2916.69
-7938.5
-1584.07
-13353.9
-313.202
-16039.1
901.958
-16661
1843.9
-16125
2692.04
-15061
3354.06
-13823.9
3961.91
-12586.5
4486.81
-11460
5030.28
-10517.8
5577.13
-9752.21
6169.51
-9099.15
6771.2
-8471.53
7377.32
-7831.83
7972.31
-7174.74
8538.13
-6526.65
9087.29
-5895.46
9573.77
-5266.5
10016.4
-4620.67
10377.4
-3961.53
10718.5
-3350.63
11045.9
-2904.55
11397.4
-2663.44
11724.6
-2559.32
12012.3
-2418.58
12230.2
-2099.22
12400.4
-1501.87
12527.8
-697.333
12661.2
86.5789
12831.5
567.126
13142.9
219.159
13653.7
-1274.79
14369.3
-3772.06
15245.3
-6732.11
16174.6
-9463.77
17093.3
-11517.3
17951.8
-12794.3
18749.1
-13409
19480
-13549.8
20159.6
-13391.4
20790.5
-13074.7
21385.1
-12701.8
21945.1
-12334.3
22481.4
-12062
-11696
279.796
-1078.72
247.21
-1692.01
438.262
-1396.81
438.267
-3643.68
621.939
-3316.01
796.242
1716.51
615.975
3545.8
-67.9683
4044.25
-845.192
3626.07
-1101.02
1486.55
-563.466
1970.8
-287.501
1490.35
680.708
4224.28
2153.69
7625.63
2429.43
5309.09
-36.8133
6858.67
-1331.34
9297.67
-1769.64
9364.95
-2001.09
8011.35
-1878.94
5332.1
-1289.76
805.524
-528.909
-8179.71
355.43
-12280.5
1307.4
-13719.7
2127.9
-13079
2849.38
-11203.9
3412.03
-8979.64
3858.36
-6970.36
4199.88
-5136.38
4526.55
-3346.57
4771.47
-1748.87
4840.22
-1031.41
5111.72
-1559.8
5173.29
1375.84
4639.3
4615.61
3958.41
4331.04
3487.9
2272.18
2941.14
2446.16
3014.32
1234.23
3431.27
1276.96
3575.4
5040.78
3325.47
9270.78
2745.45
12290.8
1966.27
14051.9
907.348
14416.2
-315.729
14433.2
-1235.86
14529.5
-2005.48
13283.1
-2682.28
11948.9
-3180.66
10526.4
-3761.12
9054
-3647.75
7343.7
-3967.85
5258.28
-3764.14
2304.53
-3492.25
-1390.9
-2381.26
-8848.39
-1056.66
-14640.9
164.339
-17302
1300.69
-17757.2
2160.46
-17029.4
2925.99
-15800.3
3511.19
-14439.1
4046.54
-13114.7
4508.13
-11948.6
5001.17
-11013.4
5515.5
-10289.8
6093.7
-9684.82
6697.53
-9090.9
7320.69
-8463.54
7943.97
-7802.18
8545.85
-7137.32
9130.67
-6474.29
9648.7
-5790.34
10117.8
-5073.99
10508.4
-4349.92
10884.1
-3705.16
11245.8
-3254.48
11616.7
-3006.96
11952.5
-2871.43
12249
-2675.67
12485.2
-2294.15
12677.3
-1641.59
12825.2
-790.502
12960.8
18.4407
13130.4
455.488
13439.9
-40.9761
13957.1
-1744.35
14683.1
-4461.22
15560.1
-7571.77
16474.7
-10353.3
17363.4
-12382.1
18181.6
-13599.3
18931.1
-14146.4
19609.3
-14223.3
20231.7
-14009.5
20802.1
-13645.1
21332.8
-13231.9
21826.1
-12829.1
22292.8
-12529.2
-12123.8
56.3776
-949.355
70.0821
-1392.64
322.15
-1348.94
452.093
-3645.73
612.03
-3385.94
689.07
1508.8
649.86
3606.8
62.4569
4910.27
-748.295
4670.18
-1131.21
1977.28
-618.261
2194.6
-283.69
1353.48
502.33
3820.22
696.811
7523.3
875.84
5028.35
-357.687
7931.93
-1402.48
10303.9
-1776.48
9772.17
-1976.43
8342.57
-1820.17
5411.47
-1257.76
606.309
-505.207
-8814.59
370.95
-13161.8
1314.36
-14653.2
2121.3
-13929.2
2820.37
-11910.5
3358.59
-9548.74
3784.9
-7423.56
4112.92
-5519.46
4436.54
-3716.56
4687.17
-2073.27
4750.88
-1200.85
4973.43
-1955.6
5095.03
1175.61
4674.46
4971.26
3966.68
4997.12
3225.31
3022.59
2600.58
3155.99
2660.7
1253.31
3070.4
914.488
3280.57
4839.14
3093.23
9453.74
2568.27
12824.7
1836.54
14856.4
852.056
15486.5
-230.6
15578
-1047.04
15392
-1740.86
14006
-2341.83
12558.6
-2785.73
11023.4
-3420.88
9496.26
-3471.5
7578.74
-3861.81
5441.11
-3396.77
1951.23
-2970.2
-1873.99
-1831.14
-9817.41
-524.132
-15845.6
631.687
-18437.3
1682.05
-18719
2457.16
-17809.9
3138.13
-16422.8
3644.4
-14942.8
4104.76
-13536.8
4500.74
-12336.4
4941.73
-11423.4
5423.06
-10762.7
5987.36
-10230.4
6594.22
-9693.78
7235.28
-9099.29
7886.46
-8450.22
8521.78
-7777.41
9138.54
-7081.6
9684.26
-6340.2
10178.3
-5552.51
10598.6
-4770.34
11006
-4098.1
11393.4
-3642.01
11777.4
-3380.49
12122.1
-3216.81
12430.9
-2978.29
12685.3
-2553.43
12893.5
-1851.49
13051.5
-959.75
13184.2
-129.787
13357.8
259.048
13675.9
-386.941
14214.9
-2309.62
14966.7
-5245.62
15857.1
-8488.65
16766.6
-11293.1
17633.3
-13270.9
18418
-14406.8
19124.9
-14868
19754
-14866.5
20321.2
-14584.2
20830.6
-14161.7
21295
-13699.4
21717.2
-13254.7
22107.7
-12921.2
-12477.6
-341.826
-515.737
-511.336
-1399.71
42.1216
-2053.37
343.447
-4123.27
552.837
-3813.89
602.208
967.656
656.715
3473.77
179.436
5221.92
-591.466
5597.15
-1072.64
2490.45
-435.071
2070.8
-2.50331
1304.94
470.091
3817.11
469.354
7649.9
243.012
6234.73
-629.42
8987.16
-1453.73
11263.6
-1763.74
10253.7
-1931.83
8761.51
-1755.55
5491.6
-1230.07
190.99
-487.478
-9497.63
381.807
-14018.6
1317.92
-15501.1
2110.92
-14658.5
2788.03
-12488.7
3302.5
-9977.96
3709.17
-7750.42
4023.29
-5744.6
4335.94
-3853.84
4585.36
-2077.39
4658.8
-1049.36
4829.14
-1803.82
5018.22
1201.73
4662.78
5446.01
3691.34
6072.45
2683.83
4100.43
2262.05
3480.47
2462.1
916.589
2801.49
480.072
3007.93
4595.77
2861.44
9575.17
2385.78
13261.9
1707.38
15507.6
807.471
16344.2
-145.323
16467.1
-869.585
16047.2
-1483.14
14509.8
-2009.2
12969.4
-2393.36
11371.5
-2986.22
9858.21
-3043.62
7826.34
-3552.83
5669.36
-3002.31
1735.68
-2453.49
-2153.85
-1265.69
-10783.9
-0.438855
-17056.5
1084.54
-19539.9
2046.81
-19628.3
2735.12
-18527
3330.14
-16982.5
3756.03
-15387.7
4139.89
-13906
4468.72
-12683.8
4857.44
-11808.8
5306.86
-11230.1
5859.4
-10786.2
6471.74
-10319
7132.09
-9765.92
7810.7
-9132.55
8476.75
-8450.97
9121.42
-7719.96
9691.7
-6915.72
10209.2
-6055.6
10656.7
-5216.71
11089.9
-4513.76
11495.8
-4038.45
11889
-3750.22
12242.6
-3548.81
12562.9
-3262.47
12831.1
-2781.58
13048.6
-2018.06
13210.7
-1066.85
13341.3
-199.669
13524.2
129.21
13864.2
-683.534
14442.6
-2845.14
15235.6
-6006.71
16150.6
-9371.87
17062.7
-12184.9
17912.9
-14102.3
18667.8
-15152
19333.9
-15525.7
19913.6
-15443.7
20422.5
-15090.7
20865.6
-14605.9
21255.9
-14089.7
21597.6
-13598.4
21900.8
-13224.7
-12750.1
-296.398
274.968
-419.89
-1013.83
-16.4072
-2243.97
233.82
-4238.39
497.462
-3938.21
526.168
732.543
635.636
3368.14
288.714
5782.73
-384.92
6475.26
-1031.55
3190.1
-296.912
1956.65
215.529
1484.44
468.633
4803.2
-45.8281
8248.48
-509.152
6176.66
-852.069
9180.73
-1485.19
11866.7
-1753.55
10529
-1887.67
9001.76
-1689.4
5530.39
-1200.45
23.0984
-470.127
-10114.2
393.981
-14884.7
1322.09
-16416.2
2098.58
-15475.6
2752.08
-13152.5
3243.37
-10498.7
3631.04
-8159.91
3930.36
-6094.47
4229.64
-4204.24
4476.1
-2414.22
4559.51
-1263.52
4659.54
-2133.54
4921.73
836.908
4616.76
5670.37
3656.85
6963.78
2832.06
4903.89
2470.65
3920.12
2439.52
1031.04
2636.5
348.328
2777.43
4465.8
2637.19
9711.58
2199.36
13706.3
1574.45
16201
762.219
17241.9
-66.1196
17364.5
-698.247
16730.2
-1230.53
15083
-1715.12
13476.8
-2082.77
11793
-2598.38
10191.2
-2749.42
8125.58
-3433.86
6125.33
-2693.58
1112.91
-1921.16
-2980.3
-685.419
-11860.5
518.84
-18185
1525.08
-20539.2
2397
-20428
2996.2
-19140.5
3504.27
-17441.8
3849.08
-15735.8
4155.92
-14180.5
4418.24
-12940.7
4757.37
-12120
5179.65
-11646
5725.94
-11315.5
6348.56
-10939.3
7030.85
-10443.7
7736.74
-9836.76
8430.68
-9149.91
9099.73
-8380.03
9691.83
-7511.21
10230.8
-6579.52
10701.6
-5687.1
11154.2
-4952.85
11572.8
-4456.81
11973.2
-4141.33
12334.6
-3910.92
12663.4
-3587.26
12940.1
-3064.42
13162.2
-2245.81
13324.8
-1245.37
13454.3
-351.582
13652.2
-95.1212
14027.4
-1090.94
14660.4
-3506.59
15506
-6885.81
16451.7
-10344
17369.6
-13131.2
18204.3
-14957.4
18928.5
-15896
19550.9
-16160.6
20075.5
-15979.8
20517.7
-15538.9
20883.4
-14977.4
21186.7
-14395.4
21435.1
-13849.6
21638.1
-13428.8
-12938.1
-209.012
636.963
128.478
-1273.55
89.6328
-2092.33
293.473
-4521.39
517.62
-4319.39
477.905
-147.692
619.176
3063.47
369.997
5853.8
-188.17
7158.63
-982.215
3996.57
-15.552
1462
634.704
1632.7
576.831
6361.2
18.3238
8890.51
-682.325
7467.66
-1010.1
9701.91
-1494.63
12502.5
-1726.78
10950.1
-1834.92
9382.49
-1626.42
5662.39
-1176.29
-291.306
-456.358
-10772.1
403.221
-15729.5
1324.04
-17248.4
2083.92
-16168.4
2711.14
-13677.1
3180.31
-10869
3549.54
-8431.51
3835.25
-6265.27
4116.86
-4286.98
4356.87
-2396.45
4454.98
-1147.05
4506.96
-1940.77
4804.61
698.472
4619.92
5923.96
3735.93
7903.51
2906.4
5769.7
2546.04
4188.6
2469.35
949.493
2536.51
173.2
2583.14
4379.45
2426.21
9846.31
2019.17
14084.2
1449.81
16754.3
727.089
17940.4
18.415
18033.9
-514.368
17215.4
-972.234
15458.3
-1437.59
13847.6
-1837.93
12155.4
-2322.07
10451.8
-2367.44
8371.34
-2884.45
6540.77
-2077.35
859.884
-1333.76
-3518.06
-110.172
-12873
1028.34
-19257.9
1952.51
-21462
2731.79
-21143.2
3241.28
-19665.9
3662.84
-17821.2
3927.54
-16011.6
4158.91
-14392.9
4357.66