/*--------------------------------*- C++ -*----------------------------------*\
| =========                 |                                                 |
| \\      /  F ield         | OpenFOAM: The Open Source CFD Toolbox           |
|  \\    /   O peration     | Version:  4.1                                   |
|   \\  /    A nd           | Web:      www.OpenFOAM.org                      |
|    \\/     M anipulation  |                                                 |
\*---------------------------------------------------------------------------*/
FoamFile
{
    version     2.0;
    format      ascii;
    class       volScalarField;
    location    "100";
    object      epsilon;
}
// * * * * * * * * * * * * * * * * * * * * * * * * * * * * * * * * * * * * * //

dimensions      [0 2 -3 0 0 0 0];

internalField   nonuniform List<scalar> 
225
(
0.0523349
0.184019
0.181853
0.181886
0.181898
0.181849
0.181876
0.181903
0.181846
0.181878
0.181903
0.181835
0.181864
0.287537
0.0973165
0.0639085
0.00941312
8.35498e-05
1.55963e-05
1.49746e-05
1.43686e-05
1.37466e-05
1.30923e-05
1.21775e-05
0.0168997
0.0234227
0.00148142
0.0168357
0.000964068
0.025492
0.0793363
0.00143881
4.39962e-07
2.53928e-09
2.17422e-09
1.82897e-09
1.51674e-09
1.23969e-09
0.000283537
0.0381479
0.0542105
0.0558207
0.0776761
0.154955
0.126662
0.098564
0.000762257
8.89687e-08
1.39552e-10
2.40721e-12
1.99974e-12
1.61546e-12
2.07321e-12
8.07361e-08
0.00553921
0.0411542
0.0678077
0.123388
0.349126
0.41943
0.106072
0.00288502
1.75744e-06
1.87943e-07
3.67133e-11
5.95906e-14
5.20575e-14
3.87247e-13
8.81853e-10
3.15137e-05
0.00756957
0.0587785
0.112406
0.291475
0.529786
0.127367
0.00652065
1.01493e-05
6.05464e-07
1.80946e-10
1.30846e-13
9.29109e-14
3.4419e-13
7.56946e-13
3.31708e-08
0.000514664
0.0279488
0.08406
0.295116
0.56647
0.153541
0.0065538
0.00055963
1.33629e-05
3.00309e-06
8.0844e-15
3.32411e-13
2.32042e-14
7.8798e-12
4.42174e-08
0.000135689
0.0212563
0.0708573
0.23772
0.611795
0.251144
0.0237792
0.000476105
2.04283e-05
5.75038e-09
6.13303e-13
1.0449e-13
6.68228e-13
1.1102e-10
1.63494e-08
2.47483e-06
0.0063372
0.0612843
0.267354
0.71591
0.311109
0.0303134
0.000370571
2.83821e-06
3.53549e-11
2.39357e-14
1.69792e-12
2.64154e-11
3.43211e-09
3.79209e-07
0.000175548
0.00282984
0.0489905
0.227059
0.732696
0.400855
0.0286523
5.70417e-05
1.36687e-07
1.2508e-12
1.93635e-11
4.707e-12
1.76173e-13
9.59105e-13
1.95382e-09
1.98728e-05
0.000218848
0.0137659
0.216777
0.843251
0.494577
0.0510882
0.00121238
8.53896e-05
3.26654e-09
7.65294e-10
1.4085e-11
3.18943e-12
1.69204e-14
1.75368e-12
1.25061e-07
1.15795e-05
0.043091
0.301118
0.876291
0.721284
0.218143
0.0108508
8.11377e-05
1.31596e-07
3.02613e-08
5.56853e-10
9.77535e-13
1.24215e-07
5.86259e-07
0.000540786
0.00317968
0.0928365
0.547378
0.840719
0.74251
0.234673
0.023885
7.88145e-06
6.96066e-08
8.75799e-11
7.9669e-13
1.10402e-06
4.91696e-06
0.00569239
0.040851
0.266104
0.523523
1.86221
4.29682
0.490058
0.0487848
0.0137005
1.69384e-06
2.23747e-11
5.39979e-09
1.07133e-10
2.30231e-08
0.000197654
0.225051
1.61479
5.86584
14.2766
21.7964
40.7965
0.541262
0.27237
0.0843391
0.00128945
9.65653e-06
2.12278e-07
1.17821e-10
1.57622e-09
1.93955e-05
0.00211695
0.0978738
0.641456
2.60594
6.95193
27.3427
)
;

boundaryField
{
    inletFace
    {
        type            empty;
    }
    inlet
    {
        type            fixedValue;
        value           uniform 2040;
    }
    inletWalls
    {
        Cmu             0.09;
        kappa           0.41;
        E               9.8;
        type            epsilonWallFunction;
        value           nonuniform List<scalar> 
30
(
0.0973165
0.025492
0.126662
0.41943
0.529786
0.56647
0.611795
0.71591
0.732696
0.843251
0.876291
0.840719
4.29682
40.7965
27.3427
0.541262
0.490058
0.74251
0.721284
0.494577
0.400855
0.311109
0.251144
0.153541
0.127367
0.106072
0.098564
0.0793363
0.0639085
0.0523349
)
;
    }
    outletInlet
    {
        type            zeroGradient;
    }
}


// ************************************************************************* //
