/*--------------------------------*- C++ -*----------------------------------*\
| =========                 |                                                 |
| \\      /  F ield         | OpenFOAM: The Open Source CFD Toolbox           |
|  \\    /   O peration     | Version:  4.1                                   |
|   \\  /    A nd           | Web:      www.OpenFOAM.org                      |
|    \\/     M anipulation  |                                                 |
\*---------------------------------------------------------------------------*/
FoamFile
{
    version     2.0;
    format      ascii;
    class       volScalarField;
    location    "100";
    object      nut;
}
// * * * * * * * * * * * * * * * * * * * * * * * * * * * * * * * * * * * * * //

dimensions      [0 2 -1 0 0 0 0];

internalField   nonuniform List<scalar> 
225
(
0.26355
4.38011e-09
4.22098e-09
4.22247e-09
4.22224e-09
4.22064e-09
4.22165e-09
4.2227e-09
4.22035e-09
4.22185e-09
4.22254e-09
4.21984e-09
4.22055e-09
1.68067e-08
0.324136
0.281747
0.00030064
2.24362e-10
2.38215e-12
2.32175e-12
2.2673e-12
2.20185e-12
2.11256e-12
2.00787e-12
0.00407536
0.0108411
4.21539e-06
0.0117377
1.37098e-06
0.2074
0.3028
0.000536297
3.13232e-10
1.53332e-15
1.17052e-15
8.52554e-16
5.90796e-16
3.99981e-16
1.04138e-06
2.82114
7.3073
7.84639
3.96101
2.65178
0.353846
0.325464
0.00270626
2.32289e-08
1.08599e-18
1.66204e-17
1.3708e-17
1.27595e-17
6.27251e-18
6.06938e-14
2.57609e-05
0.576301
3.5462
2.34074
2.59655
0.527494
0.333587
0.00331319
3.44255e-07
2.53561e-07
5.63178e-18
7.08657e-17
8.17816e-17
1.10594e-16
4.32791e-16
1.77139e-10
8.17265e-05
0.324126
0.648082
1.91501
0.570221
0.354554
0.00730145
6.96828e-08
4.88871e-06
1.58427e-15
3.2745e-17
4.384e-17
1.27386e-17
1.3154e-16
1.17185e-15
1.89279e-06
0.0590186
0.243797
1.34637
0.582984
0.377287
0.0197596
0.0117814
1.55253e-05
2.3818e-14
3.89882e-16
1.24716e-17
2.05731e-16
9.91699e-17
2.58953e-12
5.51909e-07
0.0252987
0.244829
0.710433
0.598227
0.444614
0.0595171
0.000177774
1.60762e-05
9.84489e-14
5.38728e-17
3.89427e-17
8.28095e-18
1.77475e-16
2.03062e-10
7.66989e-09
0.00113115
0.133668
0.644893
0.630418
0.477494
0.038069
0.000195008
1.02275e-06
5.73797e-15
1.71257e-16
2.35507e-18
1.59351e-19
9.97445e-11
1.78801e-11
2.95994e-05
3.6356e-05
0.0349371
0.452777
0.635192
0.519509
0.0548116
0.000476927
1.49682e-09
2.67606e-17
2.33179e-19
8.8344e-19
2.34308e-17
4.08699e-18
4.46687e-14
3.2173e-06
5.786e-06
0.0286986
0.359962
0.665758
0.557298
0.16263
0.00320278
0.00229727
5.80451e-18
6.63878e-18
3.31057e-19
1.38016e-18
2.9199e-16
4.43405e-17
5.75377e-12
1.23079e-12
0.00153086
0.277575
0.674361
0.631975
0.137218
0.0145872
2.40174e-07
1.77557e-13
8.12105e-17
1.29112e-18
6.21194e-18
1.26024e-19
5.02817e-21
0.00286246
0.154054
0.34437
0.445023
0.664989
0.638016
0.0715613
0.0012868
1.00487e-12
3.93721e-17
2.07537e-19
5.20699e-18
4.95367e-22
9.47404e-13
6.01517e-07
0.0592218
2.8783
13.6848
33.3567
1.14564
0.555595
0.102829
4.6196e-05
8.50137e-14
1.01395e-18
1.08086e-21
1.87303e-16
1.23504e-10
0.000523732
0.120262
8.8082
16.3529
45.0553
81.9248
2.42596
0.574293
0.00980056
6.02165e-07
1.14082e-17
5.37927e-25
2.00684e-23
4.62069e-20
8.53392e-16
5.29778e-10
1.46379e-06
0.000158308
0.00557399
0.0364264
0.184966
2.12265
)
;

boundaryField
{
    inletFace
    {
        type            empty;
    }
    inlet
    {
        type            calculated;
        value           uniform 1.85252e-05;
    }
    inletWalls
    {
        type            nutkWallFunction;
        Cmu             0.09;
        kappa           0.41;
        E               9.8;
        value           nonuniform List<scalar> 
30
(
0.0238933
0.0158054
0.0259165
0.0375413
0.0403591
0.0411981
0.0421986
0.044306
0.0446179
0.0466115
0.0471715
0.0465614
0.0772784
0.155769
0.137471
0.0406269
0.0393962
0.0448023
0.0444077
0.0395084
0.0370131
0.0342246
0.0320311
0.0275048
0.0259647
0.0245382
0.023984
0.0224326
0.0209843
0.0197265
)
;
    }
    outletInlet
    {
        type            calculated;
        value           nonuniform List<scalar> 
15
(
2.12265
0.184966
0.0364264
0.00557399
0.000158308
1.46379e-06
5.29778e-10
8.53392e-16
4.62069e-20
2.00684e-23
5.37927e-25
1.14082e-17
6.02165e-07
0.00980056
0.574293
)
;
    }
}


// ************************************************************************* //
