/*--------------------------------*- C++ -*----------------------------------*\
| =========                 |                                                 |
| \\      /  F ield         | OpenFOAM: The Open Source CFD Toolbox           |
|  \\    /   O peration     | Version:  4.1                                   |
|   \\  /    A nd           | Web:      www.OpenFOAM.org                      |
|    \\/     M anipulation  |                                                 |
\*---------------------------------------------------------------------------*/
FoamFile
{
    version     2.0;
    format      ascii;
    class       volScalarField;
    location    "100";
    object      p;
}
// * * * * * * * * * * * * * * * * * * * * * * * * * * * * * * * * * * * * * //

dimensions      [0 2 -2 0 0 0 0];

internalField   nonuniform List<scalar> 
225
(
494.154
441.167
389.813
341.721
297.125
255.381
216.3
179.556
144.66
111.414
80.5916
52.6386
23.6477
-11.6637
-41.1215
33.6294
11.4082
6.08362
2.45407
-2.9757
-8.61171
-13.6913
-18.0132
-21.4319
-23.8826
-25.1858
-24.8823
-22.9052
-21.0619
-20.9764
-66.8569
-73.5889
-67.0867
-62.774
-59.4431
-55.5819
-51.4599
-47.3243
-43.2417
-39.2916
-35.6352
-32.3918
-29.2185
-26.2869
-24.6502
-13.0868
-15.4119
-9.77766
-9.01041
-8.23952
-7.21593
-6.43202
-5.84362
-5.34749
-4.87083
-4.38824
-4.02976
-3.8999
-3.58434
-2.80328
11.9747
10.0992
12.6017
10.7858
10.0889
9.44461
8.61025
7.79253
7.07083
6.50174
6.15994
6.0602
6.12523
6.32291
6.76125
5.65079
3.72853
5.15053
3.41925
3.42397
3.30909
3.08276
2.95256
2.8697
2.78678
2.7035
2.63114
2.52253
2.3549
2.23525
-1.23645
-2.75909
-1.56256
-2.73516
-2.26294
-2.2149
-2.22578
-2.16595
-2.12721
-2.13423
-2.18447
-2.25804
-2.36448
-2.52229
-2.74146
-2.63624
-3.68752
-2.6406
-3.54771
-3.02987
-3.14006
-3.20995
-3.23102
-3.28088
-3.34016
-3.39628
-3.4328
-3.44121
-3.44564
-3.52078
-2.28652
-3.00919
-2.16617
-2.95216
-2.46229
-2.65872
-2.68329
-2.67518
-2.68197
-2.67026
-2.64466
-2.59998
-2.52948
-2.43557
-2.38901
-2.21322
-2.70288
-2.02967
-2.69645
-2.20139
-2.38776
-2.30986
-2.23942
-2.18124
-2.10147
-2.01437
-1.92913
-1.8335
-1.72247
-1.63402
-1.93438
-2.23832
-1.70323
-2.2346
-1.73185
-1.8944
-1.74846
-1.66495
-1.58532
-1.48148
-1.38167
-1.29849
-1.23241
-1.15125
-1.0643
-1.0934
-1.25812
-0.856323
-1.27933
-0.788392
-0.927103
-0.725976
-0.620329
-0.504194
-0.370959
-0.22922
-0.170375
-0.30387
-0.518094
-0.620229
0.176157
0.148708
0.526765
0.274773
0.835142
0.816179
1.13572
1.32557
1.53969
1.73549
1.76334
1.57955
0.960915
0.256403
0.620636
1.70345
1.80425
2.18081
2.05757
2.62006
2.60583
2.88075
2.95122
3.00842
3.13815
3.22157
2.87293
2.16454
2.29006
3.59182
2.02128
1.98922
2.06354
1.76239
1.9641
1.60527
1.53061
1.24463
0.961147
0.750687
0.781968
0.921066
1.04986
1.16505
1.20075
)
;

boundaryField
{
    inletFace
    {
        type            empty;
    }
    inlet
    {
        type            zeroGradient;
    }
    inletWalls
    {
        type            zeroGradient;
    }
    outletInlet
    {
        type            fixedValue;
        value           uniform 0;
    }
}


// ************************************************************************* //
