/*--------------------------------*- C++ -*----------------------------------*\
| =========                 |                                                 |
| \\      /  F ield         | OpenFOAM: The Open Source CFD Toolbox           |
|  \\    /   O peration     | Version:  4.1                                   |
|   \\  /    A nd           | Web:      www.OpenFOAM.org                      |
|    \\/     M anipulation  |                                                 |
\*---------------------------------------------------------------------------*/
FoamFile
{
    version     2.0;
    format      ascii;
    class       surfaceScalarField;
    location    "100";
    object      phi;
}
// * * * * * * * * * * * * * * * * * * * * * * * * * * * * * * * * * * * * * //

dimensions      [0 3 -1 0 0 0 0];

internalField   nonuniform List<scalar> 
420
(
-994.043
2293.96
-1610.58
1916.76
-2086.21
1775.55
-2451.07
1664.78
-2720.65
1569.79
-2902.14
1481.41
-2998.71
1396.49
-3010.41
1311.92
-2937.97
1227.47
-2779.64
1141.58
-2529.66
1050.24
-2168.89
939.142
-1661.05
792.088
-995.067
634.237
304.835
315.728
1978.34
406.577
1826.03
418.582
1763.66
401.996
1681.5
388.052
1583.88
377.939
1491.66
372.707
1401.86
375.166
1309.6
393.236
1209.55
418.075
1116.88
428.182
1040.23
401.574
965.955
315.756
878.097
193.849
756.428
498.683
-36.5614
2015.06
-134.815
1924.47
-268.241
1897.26
-353.44
1766.88
-419.4
1649.99
-473.932
1546.39
-512.636
1440.72
-528.511
1325.69
-524.313
1205.46
-518.281
1110.93
-507.426
1029.48
-486.192
944.589
-426.112
817.983
-272.807
603.072
225.895
-47.7038
2063.16
-151.148
2028.34
-257.897
2004.43
-312.848
1822.3
-357.574
1695.19
-389.487
1578.78
-402.507
1454.25
-395.701
1319.35
-364.403
1174.7
-301.144
1048.22
-206.127
934.718
-94.6318
833.848
18.9507
705.188
88.3397
534.943
314.26
45.7024
2018.19
21.1955
2053.65
9.88228
2016.54
21.2816
1811.83
27.1955
1690.22
36.6137
1570.37
49.3098
1442.56
64.553
1305.14
80.6305
1159.65
95.5584
1034.49
106.572
924.637
117.153
824.651
136.698
687.021
119.714
553.552
433.984
62.7127
1956.32
54.739
2062.55
61.8028
2010.43
80.4391
1794.24
88.3195
1683.3
96.3907
1563.35
102.817
1437.13
104.783
1304.19
103.471
1161.99
100.238
1038.63
94.1832
931.54
87.9974
831.525
85.2535
690.471
60.932
578.645
494.952
43.2252
1913.69
31.1334
2075.23
26.4035
2015.69
28.7072
1792.51
23.0807
1689.46
20.1818
1566.69
17.3954
1440.42
13.7794
1307.95
10.1723
1165.97
8.41228
1041.2
6.67354
932.98
11.7896
830.043
20.1038
685.104
17.8373
583.781
512.748
31.5747
1881.94
20.7795
2085.9
14.6557
2021.63
12.738
1794.17
5.2501
1696.47
3.3885
1568.21
-0.000264009
1443.13
-2.32459
1310.09
-3.76796
1166.87
-5.31352
1041.76
-4.99224
932.71
-5.9908
826.876
-0.829613
676.435
-0.651182
580.317
512.108
28.1599
1853.12
21.0625
2092.29
16.476
2025.51
15.7728
1794.15
10.2297
1701.46
9.29023
1568.47
7.05201
1444.9
3.66944
1312.71
0.783582
1169.22
-1.82026
1044.09
-6.1284
936.121
-7.02804
829.537
-4.2249
674.692
-3.37947
580.386
508.686
24.0441
1827.79
22.3098
2092.71
18.2298
2028.28
16.5616
1794.43
12.3938
1704.3
11.0007
1568.59
7.67185
1446.95
5.00058
1314.32
1.37191
1171.57
-3.11241
1046.94
-5.82146
938.168
-9.94913
829.46
-8.589
669.45
-8.80219
576.977
499.841
21.207
1805.12
23.0808
2089.34
20.8431
2029.04
18.1999
1795.46
14.5424
1706.45
14.1026
1567.54
10.8654
1448.7
9.00765
1314.97
7.30376
1171.93
7.08895
1045.47
6.19866
938.163
-1.7514
833.49
-9.38262
673.239
-14.7982
578.813
485.061
21.747
1782.56
25.8272
2084.41
24.7902
2029.28
23.405
1796.05
21.364
1707.91
21.804
1566.43
21.1784
1448.95
20.5584
1314.88
20.7532
1171.19
13.8969
1052.17
23.1177
928.19
68.2539
790.136
76.0265
666.875
50.6171
605.579
535.662
19.4607
1763.27
27.8378
2076.26
27.8785
2029.52
27.0492
1797.25
26.7793
1708.53
27.5304
1566.16
27.0756
1449.72
28.1267
1314.41
28.2375
1171.3
69.9529
1010.66
130.295
868.033
181.582
738.375
166.878
681.337
109.626
662.539
645.298
4.19668
1759.91
12.0103
2069.18
11.5675
2030.77
7.24058
1802.38
3.2893
1713.41
1.54667
1568.66
-2.43473
1454.68
-4.64102
1317.27
-5.23025
1172.6
56.662
949.196
114.978
809.769
115.67
738.141
81.765
715.487
35.0495
709.591
680.338
-16.2759
-21.447
-30.5181
-36.8648
-43.8054
-46.6422
-48.1198
-47.513
-41.6759
-19.5203
0.0694983
-6.58525
-23.8855
-28.3602
)
;

boundaryField
{
    inletFace
    {
        type            empty;
        value           nonuniform 0();
    }
    inlet
    {
        type            calculated;
        value           nonuniform List<scalar> 
15
(
-1299.9
-1300.2
-1299.9
-1299.9
-1300.2
-1299.9
-1299.9
-1300.2
-1299.9
-1299.9
-1300.2
-1299.9
-1299.9
-1300.2
-1299.9
)
;
    }
    inletWalls
    {
        type            calculated;
        value           uniform 0;
    }
    outletInlet
    {
        type            calculated;
        value           nonuniform List<scalar> 
15
(
651.978
712.682
730.848
742.892
788.796
926.075
1165.52
1316.1
1455.33
1571.1
1719.79
1808.44
2039.49
2074.2
1775.96
)
;
    }
}


// ************************************************************************* //
