/*--------------------------------*- C++ -*----------------------------------*\
| =========                 |                                                 |
| \\      /  F ield         | OpenFOAM: The Open Source CFD Toolbox           |
|  \\    /   O peration     | Version:  4.1                                   |
|   \\  /    A nd           | Web:      www.OpenFOAM.org                      |
|    \\/     M anipulation  |                                                 |
\*---------------------------------------------------------------------------*/
FoamFile
{
    version     2.0;
    format      ascii;
    class       volVectorField;
    location    "100";
    object      U;
}
// * * * * * * * * * * * * * * * * * * * * * * * * * * * * * * * * * * * * * //

dimensions      [0 1 -1 0 0 0 0];

internalField   nonuniform List<vector> 
225
(
(0 0.989061 15.9597)
(3.61906e-15 -4.84521 12.0617)
(-3.14023e-15 -4.11321 12.1115)
(0 -3.53859 11.9608)
(1.75905e-15 -2.94601 11.8417)
(-1.68328e-15 -2.50364 11.6589)
(0 -2.16846 11.4301)
(9.63588e-16 -1.935 11.1551)
(-9.80093e-16 -1.77234 10.852)
(0 -1.69146 10.5267)
(4.46507e-16 -1.83685 10.1035)
(-4.9277e-16 -2.33044 9.49363)
(0 -2.57921 8.95736)
(-2.8874e-16 -1.01968 9.04287)
(5.02367e-16 1.95644 7.75946)
(0 -5.15926 23.2519)
(0 -14.6862 21.2009)
(0 -13.1338 20.1648)
(0 -11.64 19.3506)
(0 -11.0643 18.3444)
(0 -10.585 17.3503)
(0 -10.0224 16.3948)
(0 -9.46855 15.4443)
(0 -8.96627 14.5274)
(0 -8.43229 13.6063)
(0 -7.8559 12.6244)
(0 -7.37744 11.5696)
(0 -7.05457 10.3308)
(0 -5.66216 8.71883)
(0 -2.24783 4.57696)
(8.54382e-16 -7.77425 25.5725)
(-8.81288e-16 -16.9435 24.2331)
(0 -13.4147 23.6495)
(7.48355e-16 -12.1108 22.3184)
(-7.60171e-16 -11.5215 20.9235)
(0 -10.736 19.6727)
(6.39497e-16 -9.91156 18.4272)
(-6.66066e-16 -9.09737 17.1035)
(0 -8.22146 15.5895)
(3.09857e-16 -7.44835 14.2348)
(-2.21226e-16 -6.85019 13.2025)
(0 -6.27246 12.1945)
(2.09937e-16 -5.54735 10.7439)
(-3.32315e-16 -4.35985 8.2379)
(0 -2.34431 3.85326)
(-2.96804e-16 -8.94066 24.3824)
(2.89535e-16 -16.6686 23.5613)
(-2.26591e-16 -12.3454 23.2725)
(9.10784e-18 -11.7732 21.3713)
(1.72973e-16 -11.0673 19.871)
(-1.56162e-16 -10.143 18.5299)
(9.32335e-18 -9.27794 17.12)
(1.34642e-16 -8.38591 15.5824)
(-1.31304e-16 -7.44677 13.9156)
(8.09101e-18 -6.68855 12.4618)
(9.23586e-17 -6.12565 11.2255)
(-6.86108e-17 -5.62109 10.1469)
(2.76746e-18 -4.91157 8.71958)
(7.71384e-17 -3.83204 6.48836)
(-1.56061e-16 -2.64936 3.2745)
(-1.48123e-16 -9.40934 23.2727)
(-3.38907e-18 -16.3906 23.2194)
(1.58469e-16 -11.9951 22.8909)
(-1.62202e-16 -12.0618 20.594)
(1.00082e-17 -11.1952 19.1503)
(1.7434e-16 -10.2808 17.7779)
(-1.61162e-16 -9.47035 16.3104)
(1.42431e-17 -8.58593 14.7271)
(1.78133e-16 -7.63009 13.0433)
(-1.70446e-16 -6.81554 11.6025)
(5.62609e-18 -6.13447 10.3453)
(1.72784e-16 -5.50946 9.21209)
(-1.58662e-16 -4.61593 7.68154)
(-6.6104e-18 -3.6348 5.95139)
(2.69739e-16 -2.79705 4.01224)
(8.16263e-17 -9.66635 22.7122)
(6.45374e-17 -16.2718 23.5782)
(-1.53687e-18 -12.0841 23.058)
(-7.25003e-17 -12.3666 20.6061)
(6.40767e-17 -11.3179 19.2647)
(-2.45646e-18 -10.428 17.892)
(-7.10692e-17 -9.64879 16.425)
(7.27144e-17 -8.76228 14.8669)
(-1.54232e-18 -7.80079 13.2103)
(-8.82453e-17 -6.95933 11.773)
(9.38756e-17 -6.23505 10.5201)
(-2.07014e-18 -5.57868 9.37428)
(-9.76288e-17 -4.61602 7.75609)
(8.80411e-17 -3.79678 6.3867)
(-1.85418e-18 -3.09122 5.24097)
(-1.3851e-17 -9.87755 22.3224)
(1.02041e-17 -16.1853 23.9186)
(-1.14687e-17 -12.1724 23.2633)
(-4.41908e-18 -12.5307 20.7293)
(1.84073e-17 -11.2832 19.496)
(-1.45691e-17 -10.4531 18.1002)
(8.53636e-19 -9.67941 16.643)
(1.65454e-17 -8.7792 15.1108)
(-1.58789e-17 -7.82402 13.472)
(2.95877e-19 -6.99301 12.0405)
(1.9476e-17 -6.27261 10.7963)
(-2.25698e-17 -5.61409 9.62676)
(-2.32119e-18 -4.67712 7.99091)
(2.57635e-17 -3.99848 6.78539)
(-5.40724e-17 -3.34215 5.93964)
(1.46478e-17 -10.0702 21.9259)
(0 -16.0436 24.0669)
(1.71706e-17 -12.2251 23.3432)
(-1.94059e-17 -12.6242 20.7389)
(0 -11.2178 19.5898)
(2.21256e-17 -10.4843 18.1426)
(-2.40872e-17 -9.69798 16.6943)
(0 -8.78781 15.1712)
(2.92201e-17 -7.84277 13.5331)
(-3.2663e-17 -7.01919 12.1007)
(0 -6.30059 10.8589)
(3.77359e-17 -5.61676 9.66003)
(-4.1094e-17 -4.6502 7.96921)
(0 -4.03883 6.84868)
(6.39343e-17 -3.46982 6.06365)
(0 -10.2134 21.5503)
(0 -15.8848 24.1308)
(0 -12.2727 23.3673)
(0 -12.6817 20.7134)
(0 -11.1615 19.6229)
(0 -10.5233 18.12)
(0 -9.70458 16.6859)
(0 -8.7876 15.1616)
(0 -7.84396 13.5151)
(0 -7.01523 12.0774)
(0 -6.28659 10.8288)
(0 -5.57597 9.60331)
(0 -4.55681 7.83767)
(0 -3.96431 6.74593)
(0 -3.47252 5.94391)
(0 -10.3212 21.2278)
(0 -15.7174 24.1628)
(0 -12.327 23.3893)
(0 -12.7153 20.7069)
(0 -11.1131 19.6577)
(0 -10.5555 18.1069)
(0 -9.6922 16.6939)
(0 -8.77665 15.1647)
(0 -7.83217 13.5119)
(0 -6.99133 12.0657)
(0 -6.25926 10.8169)
(0 -5.5343 9.57966)
(0 -4.47173 7.76601)
(0 -3.87467 6.6836)
(0 -3.39582 5.81438)
(-1.70863e-18 -10.4352 20.9614)
(1.65995e-18 -15.5077 24.1436)
(-3.37107e-17 -12.4022 23.4116)
(3.86188e-17 -12.7289 20.7137)
(2.97424e-18 -11.0726 19.6885)
(-5.10857e-17 -10.5819 18.0973)
(5.77313e-17 -9.67173 16.7071)
(1.51036e-18 -8.76696 15.1687)
(-7.91246e-17 -7.82092 13.512)
(9.21139e-17 -6.98533 12.0777)
(1.32632e-18 -6.24253 10.8019)
(-1.21638e-16 -5.48317 9.50871)
(1.44938e-16 -4.34516 7.62224)
(-1.44264e-16 -3.77139 6.59514)
(-1.25649e-18 -3.2891 5.70757)
(0 -10.525 20.6989)
(0 -15.2854 24.0834)
(0 -12.483 23.4167)
(0 -12.725 20.72)
(0 -11.0393 19.7004)
(0 -10.5995 18.0772)
(0 -9.64706 16.7082)
(0 -8.7593 15.1576)
(0 -7.80732 13.4988)
(0 -6.918 11.9927)
(0 -6.23525 10.7903)
(-6.69297e-17 -5.60437 9.66584)
(6.96035e-17 -4.56173 7.84885)
(-5.31979e-17 -3.86337 6.70146)
(3.40455e-18 -3.12169 5.4073)
(0 -10.5602 20.4468)
(-3.50927e-17 -15.0827 24.0096)
(3.71315e-17 -12.5545 23.4102)
(0 -12.6991 20.7272)
(0 -11.0087 19.6962)
(0 -10.5978 18.0509)
(-5.81507e-17 -9.61031 16.6989)
(1.28445e-16 -8.73875 15.1381)
(-7.21374e-17 -7.78916 13.4755)
(0 -7.07377 12.2187)
(5.92422e-17 -6.17547 10.5491)
(-2.64325e-17 -5.17177 8.53957)
(0 -4.5905 7.54551)
(4.09716e-18 -4.36495 7.19214)
(-8.60312e-18 -4.15457 6.8787)
(1.56982e-19 -10.566 20.2607)
(-4.02661e-17 -14.8849 23.9031)
(0 -12.5778 23.4062)
(5.00377e-17 -12.6606 20.735)
(-5.27557e-17 -10.9516 19.705)
(0 -10.5784 18.0427)
(6.12338e-17 -9.55719 16.7096)
(-6.7446e-17 -8.70338 15.1405)
(0 -7.71037 13.4878)
(4.34658e-17 -6.41499 11.0357)
(-1.89677e-17 -5.5955 9.44197)
(0 -5.08227 8.48968)
(2.92159e-18 -4.85875 8.17277)
(-2.60941e-18 -4.78347 8.09718)
(0 -4.72102 8.03736)
(-3.4807e-17 -10.7443 20.3858)
(-2.76449e-17 -14.6607 23.8385)
(2.88389e-17 -12.6376 23.4279)
(0 -12.61 20.7867)
(-2.40577e-17 -10.9127 19.7572)
(2.6166e-17 -10.5746 18.0467)
(0 -9.50235 16.7367)
(-1.63815e-17 -8.702 15.127)
(1.84169e-17 -7.63635 13.4257)
(0 -6.13604 10.7332)
(-2.36425e-17 -5.38724 9.21215)
(2.52081e-17 -5.00187 8.66279)
(0 -4.87045 8.45433)
(-2.59418e-17 -4.7097 8.21358)
(2.98753e-17 -4.29029 7.53732)
)
;

boundaryField
{
    inletFace
    {
        type            empty;
    }
    inlet
    {
        type            fixedValue;
        value           uniform (0 8.7 15);
    }
    inletWalls
    {
        type            noSlip;
    }
    outletInlet
    {
        type            zeroGradient;
    }
}


// ************************************************************************* //
