/*--------------------------------*- C++ -*----------------------------------*\
| =========                 |                                                 |
| \\      /  F ield         | OpenFOAM: The Open Source CFD Toolbox           |
|  \\    /   O peration     | Version:  4.1                                   |
|   \\  /    A nd           | Web:      www.OpenFOAM.org                      |
|    \\/     M anipulation  |                                                 |
\*---------------------------------------------------------------------------*/
FoamFile
{
    version     2.0;
    format      ascii;
    class       surfaceScalarField;
    location    "7";
    object      phi;
}
// * * * * * * * * * * * * * * * * * * * * * * * * * * * * * * * * * * * * * //

dimensions      [0 3 -1 0 0 0 0];

internalField   nonuniform List<scalar> 
52920
(
1812.12
-91.6878
1891.15
-86.9483
1975.67
-81.1494
2049.47
-79.3492
2134.76
-61.7983
2175.73
-44.3249
2205.36
-10.7137
2205.41
6.62529
2213.31
10.2902
2212.19
15.103
2206.17
19.7792
2238.74
-14.7034
2296.5
-53.2676
2381.27
-66.5398
2452.07
-68.6581
2542.27
-78.414
2642.95
-101.202
2760.33
-112.107
2866.91
-106.855
2968.36
-101.903
3067.35
-103.352
3174.39
-108.629
3280.85
-110.071
3384.87
-107.724
3485.16
-104.004
3580.13
-99.452
3670.62
-94.1416
3756.1
-89.8383
3840.97
-87.9955
3922.63
-85.5558
4003.43
-83.3785
4083.28
-82.6351
4164.1
-81.9731
4242.24
-79.7949
4318.46
-76.3186
4390.45
-72.6671
4460.18
-69.0929
4527.97
-66.8724
4598.15
-68.2282
4671.51
-71.4817
4748.08
-74.0411
4825.35
-74.5707
4902.09
-73.7463
4979.43
-74.1765
5060.15
-77.474
5145.4
-81.6374
5235.34
-85.4636
5326.02
-88.4572
5421.12
-90.5403
5513.52
-91.279
5610.71
-92.8264
5705.2
-94.0973
5804.8
-95.7812
5901.14
-96.4126
6000.91
-97.4347
6098.25
-97.9112
6198.54
-98.6682
6296.33
-98.2318
6394.39
-97.114
6488.89
-95.0026
6582.56
-93.0996
6674.02
-91.7711
6765.66
-91.3396
6856.53
-91.1573
6948.08
-91.3129
7039.44
-91.5302
7131.63
-92.0606
7224.19
-92.727
7317.94
-93.6316
7412.26
-94.48
7507.59
-95.2365
7603.15
-95.6918
7699.26
-96.0163
7795.42
-96.2422
7892.04
-96.5163
7988.68
-96.701
8085.54
-96.7432
8182.02
-96.5428
8278.22
-96.11
8373.56
-95.4049
8468.15
-94.5246
8561.67
-93.5842
8654.49
-92.772
8746.58
-92.141
8838.31
-91.6953
8929.59
-91.3372
9020.63
-91.04
9111.34
-90.7986
9201.98
-90.6837
9292.59
-90.7086
9383.39
-90.8813
9474.4
-91.1214
9565.64
-91.3594
9657.04
-91.4979
9748.49
-91.5586
9839.82
-91.396
9931.22
-91.4964
10022.3
-91.1476
10107.8
-85.5191
-83.4126
1947.43
-192.597
2037.47
-184.029
2135.12
-172.562
2219.4
-166.651
2321.11
-136.01
2364.01
-89.5616
2397.94
-22.6967
2397.66
15.1191
2412.52
15.1086
2419.43
22.3469
2429.38
23.8154
2486.76
-52.6285
2570.58
-131.395
2679.12
-155.204
2769.92
-156.183
2883.8
-176.616
3010.32
-223.714
3151.47
-243.282
3276.56
-231.34
3393.75
-220.205
3507.23
-222.933
3628.55
-232.834
3748.85
-235.33
3866.59
-230.266
3980.34
-222.595
4088.67
-213.699
4193.14
-203.791
4293.82
-196.453
4395.04
-193.819
4493.79
-189.757
4592.11
-185.591
4689.65
-184.164
4787.92
-182.286
4883.15
-177.585
4976
-170.08
5064.3
-162.249
5150
-154.528
5233.58
-149.52
5318.94
-151.194
5406.02
-155.948
5494.19
-158.85
5580.85
-157.684
5664.87
-153.933
5747.27
-152.612
5830.5
-156.69
5915.31
-162.139
6001.87
-166.851
6086.95
-170.712
6174.38
-172.809
6257.75
-173.013
6344.2
-174.315
6426.73
-175.737
6512.77
-177.412
6594.34
-177.65
6677.73
-178.009
6757.47
-177.98
6839.3
-178.685
6918.61
-177.903
6998.25
-175.725
7074.3
-171.468
7148.74
-166.897
7219.71
-162.965
7289.26
-160.544
7356.43
-158.564
7422.61
-157.213
7486.86
-155.916
7550.09
-155.129
7611.8
-154.548
7672.78
-154.428
7732.56
-154.339
7791.72
-154.208
7849.55
-153.562
7906.36
-152.614
7961.65
-151.463
8015.91
-150.475
8068.92
-149.559
8121.18
-148.663
8172.37
-147.585
8222.83
-146.253
8272.08
-144.524
8320.21
-142.384
8366.69
-139.943
8411.63
-137.439
8454.76
-135.145
8496.45
-133.156
8536.72
-131.52
8576.02
-130.208
8614.58
-129.373
8653.11
-129.189
8692.2
-129.893
8732.72
-131.483
8775.32
-133.868
8820.55
-136.746
8868.7
-139.806
8919.91
-142.945
8974.42
-146.018
9031.6
-148.802
9095.92
-155.537
9159.56
-149.226
-150.585
2096.79
-302.938
2193.95
-289.318
2296.59
-273.404
2386.01
-262.925
2487.79
-214.72
2533.03
-138.817
2574.1
-45.9026
2592.3
2.70263
2632.11
-8.34345
2671.73
-4.81399
2720.33
-12.7152
2811.39
-128.806
2919.76
-236.239
3043.13
-262.364
3147.58
-259.355
3271.71
-290.502
3405.6
-359.849
3547.27
-380.345
3669.17
-354.2
3780.44
-331.609
3886.05
-332.809
3996.88
-344.811
4104.98
-346.786
4209.22
-337.842
4309.42
-326.096
4405.24
-313.48
4497.79
-299.347
4586.33
-288.714
4675.02
-284.948
4761.39
-279.346
4846.47
-272.618
4929.58
-269.542
5012.78
-266.199
5093.09
-259.125
5170.75
-247.407
5243.17
-234.989
5311.05
-221.498
5371.99
-209.405
5427.38
-204.619
5477.56
-204.356
5523.67
-202.523
5564.41
-195.797
5598.6
-185.128
5625.49
-176.264
5645.78
-173.593
5660.73
-173.286
5672.73
-173.749
5680.7
-176.425
5690.75
-177.362
5695.93
-177.264
5703.29
-176.076
5704.45
-176.879
5708.34
-176.126
5705.71
-175.622
5703.41
-172.377
5694.69
-170.449
5688.31
-169.958
5681.43
-171.968
5679.67
-172.535
5678.92
-171.666
5680.64
-167.753
5680.44
-163.398
5679.54
-159.167
5676.08
-155.667
5671.43
-152.15
5663.93
-148.762
5654.32
-145.257
5641.38
-141.925
5625.89
-138.68
5607.14
-135.908
5586.29
-133.119
5562.56
-130.102
5536.28
-126.121
5506.13
-121.484
5472.19
-116.279
5433.71
-111.236
5391.5
-106.143
5345.37
-101.591
5296.49
-97.1023
5244.85
-93.0111
5191.17
-88.4986
5134.69
-83.5761
5075.18
-77.7376
5011.7
-71.772
4944.63
-65.974
4874.3
-61.3494
4802.29
-58.1991
4730.27
-57.5693
4661.04
-60.0687
4597.36
-66.4694
4542.31
-76.6494
4498.3
-90.137
4467.18
-105.882
4449.85
-122.707
4446.44
-139.79
4457.55
-157.285
4481.19
-172.643
4519.82
-194.256
4584.49
-213.987
-220.393
2242.74
-412.106
2345.69
-397.326
2453.49
-375.524
2549.29
-360.538
2655.29
-296.687
2709.17
-193.863
2761.93
-78.4986
2798.19
-26.0436
2857.88
-50.994
2917.55
-52.1946
2981.81
-64.7397
3077.61
-207.789
3179.4
-333.101
3286.87
-352.368
3370.81
-341.653
3465.43
-372.248
3558.24
-452.064
3646.33
-460.495
3706.66
-415.142
3750.43
-376.713
3783.05
-371.656
3816.49
-381.593
3843.86
-379.987
3866.17
-365.828
3888.23
-354.011
3914.13
-346.547
3944.86
-336.51
3976.97
-328.28
4015.08
-328.957
4057.97
-329.132
4104.71
-324.411
4152.56
-322.535
4204.88
-321.216
4260.17
-317.638
4317.75
-306.186
4373
-291.812
4425.24
-273.342
4467.3
-250.062
4495.15
-228.972
4507.57
-212.823
4508.16
-197.942
4498.14
-180.075
4477.81
-158.448
4445.45
-137.128
4398.93
-119.994
4338.24
-104.677
4265.64
-91.3946
4180.41
-85.5994
4094.96
-81.286
4002.4
-81.2642
3914.02
-76.4911
3816.75
-77.6447
3725.62
-74.2659
3627.65
-76.8789
3534.46
-71.6991
3433.08
-69.8287
3336.27
-68.3679
3239.8
-76.557
3157.12
-87.1412
3087.12
-102.836
3035.7
-114.694
2994.87
-123.245
2964.23
-127.674
2938.54
-130.667
2918.64
-131.508
2900.5
-130.98
2884.36
-128.6
2867.08
-124.901
2849
-120.004
2828.07
-115.123
2805.87
-110.266
2780.8
-105.003
2753.35
-97.8821
2720.89
-88.6595
2683.27
-77.6092
2638.7
-66.0749
2588.47
-54.7065
2532.15
-44.6101
2472.1
-35.894
2408.6
-28.8362
2343.64
-22.4855
2276.87
-16.1775
2209.5
-9.39092
2141.44
-3.13681
2074.76
1.52232
2010.65
3.15505
1951.91
1.03537
1900.41
-5.9816
1859.16
-18.6917
1830.15
-37.6031
1815.37
-62.0321
1815.61
-90.6991
1831.01
-121.615
1860.72
-152.759
1903.22
-182.662
1957.52
-211.819
2022.47
-237.878
2094.56
-266.485
2187.43
-306.966
-311.285
2360.89
-526.088
2466.7
-510.295
2577.98
-486.452
2679.51
-469.467
2792.95
-390.798
2859.72
-264.446
2923.04
-125.579
2967.49
-65.3993
3031.4
-99.773
3087.92
-96.565
3133.07
-97.7712
3190.9
-250.384
3240.21
-378.425
3287.13
-380.936
3301.08
-354.284
3305.59
-364.883
3280.47
-431.88
3228.59
-404.145
3136.55
-325.084
3020.93
-260.876
2887.46
-245.065
2756.59
-252.417
2627.7
-257.006
2508.4
-252.675
2411.29
-262.905
2347.13
-289.528
2317.09
-311.759
2310.09
-327.711
2326.41
-349.375
2362.87
-370.877
2415.68
-380.35
2476.96
-387.401
2548.91
-394.244
2630.84
-401.395
2721.73
-396.454
2813.59
-384.13
2904.94
-363.234
2987.64
-331.046
3055.61
-293.726
3103.95
-258.277
3134.25
-224.149
3147.36
-188.645
3145.47
-151.246
3128.8
-114.535
3096.72
-81.527
3049.18
-49.6117
2984.83
-16.974
2896.84
7.341
2803.16
24.061
2694.57
30.0149
2593.08
37.9489
2477.82
38.5652
2375.47
40.8626
2263.85
34.0315
2166.37
34.236
2061.8
32.2208
1970.16
28.8278
1877.51
14.0631
1800.86
-7.24311
1734.71
-38.7698
1689.41
-67.4953
1655.15
-90.3711
1634.36
-105.853
1620.65
-118.222
1617.17
-127.088
1618.88
-133.453
1627.32
-136.476
1638.55
-136.8
1653.81
-134.699
1670.21
-132.159
1689.68
-129.243
1709.37
-125.181
1729.68
-117.767
1747.4
-106.675
1762.75
-92.5125
1773.52
-77.0989
1781.01
-61.6925
1783.99
-47.7963
1783.91
-35.4029
1779.55
-24.6566
1771.89
-14.5351
1759.94
-4.38214
1744.87
5.89811
1726.7
14.8628
1707.31
21.0184
1687.24
22.946
1668.26
19.9366
1651.12
10.8027
1637.81
-5.61173
1629.76
-29.9392
1628.87
-61.4739
1636.4
-98.6275
1653.25
-138.839
1679.46
-179.291
1714.31
-217.861
1757.15
-254.881
1808.12
-289.126
1864.11
-322.59
1929.55
-372.515
-385.076
2417.98
-624.461
2517.42
-613.908
2623.98
-587.772
2724.43
-571.51
2843.38
-486.942
2922.69
-343.469
2993.41
-174.184
3035.09
-97.9412
3087.75
-133.024
3118.34
-112.268
3109.36
-74.0755
3088.15
-209.535
3044.12
-328.353
2999.17
-312.344
2911.31
-265.238
2787.33
-221.463
2603.29
-253.224
2377.02
-155.224
2093.9
-45.3916
1787.96
39.8623
1479.28
40.9367
1217.5
-1.46711
1010.44
-68.4162
866.449
-125.975
786.505
-199.302
765.075
-286.525
791.09
-353.665
843.007
-397.113
917.198
-437.001
1005.59
-473.906
1106.09
-491.532
1211.78
-503.132
1325.98
-513.792
1446.14
-527.431
1570.64
-523.354
1690.77
-507.165
1807
-479.017
1913.95
-435.558
2011.34
-385.081
2096.43
-336.72
2170.07
-289.197
2229.53
-238.633
2270.8
-182.057
2292.21
-124.858
2299.36
-77.0837
2297.55
-35.0627
2285.72
9.95974
2251.33
50.822
2209.43
81.9068
2147.79
97.647
2092.53
109.97
2022.5
112.501
1966.14
113.917
1896.06
106.15
1836.87
105.932
1764.79
104.141
1703.42
97.9384
1636.92
79.4119
1579.63
54.306
1519.88
19.4779
1469.54
-14.6011
1423.14
-44.991
1387.96
-69.3452
1358.05
-89.4542
1337.25
-105.071
1320.49
-117.271
1310.95
-126.048
1305.28
-131.465
1306.09
-134.457
1310.73
-136.913
1321.7
-139.011
1335.68
-138.888
1353.18
-133.837
1370.61
-123.301
1388.67
-108.803
1405.16
-92.4766
1421.24
-75.8675
1435.05
-60.4315
1447.84
-46.3873
1457.82
-33.4689
1465.3
-20.4441
1468.49
-6.53005
1467.85
7.8791
1462.88
20.6974
1455.11
29.8876
1444.77
33.924
1433.24
32.2007
1420.83
23.4762
1409.21
6.26574
1399.58
-20.3766
1393.95
-55.9664
1394.18
-99.1505
1402.12
-147.12
1418.72
-196.234
1443.87
-243.415
1477.18
-288.465
1518.64
-330.929
1566.5
-370.629
1621.4
-427.566
-450.46
2366.74
-709.797
2453.39
-707.448
2549.28
-684.231
2643.15
-673.922
2766.89
-591.967
2862.16
-443.228
2943.35
-239.34
2977.43
-127.389
3009.61
-148.572
3005.27
-93.7907
2936.71
9.63488
2833.62
-85.6658
2692.84
-181.403
2572.07
-156.43
2443.13
-133.162
2276.37
-28.1347
1988.98
21.2885
1683.13
172.872
1311.28
318.487
977.203
372.717
720.146
276.582
579.013
135.144
500.876
-3.84801
470.336
-108.726
475.708
-216.145
507.403
-330.843
559.926
-414.955
618.029
-465.458
686.611
-511.811
759.83
-554.864
840.864
-576.953
926.111
-593.179
1021.14
-610.004
1122.92
-631.403
1228.91
-628.069
1330.25
-608.757
1430.09
-576.439
1521.96
-524.7
1604.71
-463.198
1678.01
-406.187
1746.53
-352.544
1808.15
-294.753
1856.47
-224.197
1886.75
-148.426
1902.85
-86.0771
1911.95
-35.8782
1918.01
15.0053
1908.16
65.8571
1892.62
109.704
1854.83
138.049
1819.29
158.897
1764.95
167.849
1722.01
170.666
1666.14
161.275
1624.25
157.866
1566.6
158.562
1516.84
153.906
1460.82
133.035
1414.39
104.385
1363.45
67.9486
1318.39
32.6322
1273.26
-1.56174
1236.24
-31.093
1201.07
-55.907
1173.04
-75.8611
1147.39
-92.6939
1128.16
-106.129
1112.03
-116.269
1102.57
-124.331
1097.66
-132.876
1100.92
-141.698
1108.93
-147.596
1122.31
-146.796
1137.13
-138.615
1154.31
-125.619
1171.63
-110.248
1190.42
-94.2546
1208.81
-79.2015
1227.85
-65.1239
1245.21
-51.1763
1260.75
-35.8208
1272.1
-18.1973
1279.33
0.746852
1281.61
18.1004
1280.26
31.2434
1275.03
38.7476
1266.7
40.3563
1254.74
34.9454
1240.19
20.4782
1223.93
-4.60646
1208.14
-40.5935
1195.64
-87.1157
1189.9
-141.818
1193.34
-200.047
1206.67
-257.159
1229.72
-311.771
1262.03
-363.565
1302.36
-411.08
1350.16
-475.486
-509.689
2229.5
-763.449
2291.23
-773.73
2364.24
-752.665
2442.51
-754.783
2572.65
-698.493
2690.96
-560.234
2786.39
-308.738
2814.01
-142.175
2830.63
-137.865
2805.63
-46.5036
2709.73
128.339
2570.78
86.1067
2393.71
7.58074
2221.35
60.3531
1961.78
130.368
1723.94
236.317
1490.55
244.961
1400.95
301.996
1234.44
480.747
1038.25
560.14
844.151
441.946
709.519
254.826
617.789
64.5138
572.94
-85.9385
567.575
-231.238
588.714
-374.644
627.027
-473.374
665.124
-525.582
709.366
-573.458
756.34
-620.276
811.309
-645.759
872.776
-667.123
946.602
-690.737
1028.67
-720.658
1113.93
-716.569
1193.18
-691.877
1273.33
-656.318
1348.91
-597.118
1416.61
-523.146
1473.86
-455.229
1526.35
-394.534
1576.87
-333.842
1620.7
-255.761
1649.72
-164.654
1665.57
-88.6503
1674.1
-29.7927
1680.02
26.2211
1674.5
81.8911
1668.9
132.811
1642.61
171.228
1618.2
200.899
1573.87
216.681
1539.54
222.524
1489.67
213.725
1454.83
206.963
1405.38
208.507
1362.44
206.42
1311.94
182.731
1271.83
149.629
1226.62
111.713
1186.94
75.3569
1144.91
39.2857
1108.45
6.95995
1071.67
-20.6328
1041.03
-43.6908
1011.27
-63.6548
987.044
-80.6933
965.154
-94.7061
950.232
-107.996
940.801
-123.451
941.333
-140.594
948.349
-154.076
962.299
-158.827
978.857
-154.028
998.851
-143.405
1019.93
-129.882
1043.48
-115.515
1067.41
-101.637
1092.44
-87.9835
1115.88
-73.1223
1137.24
-55.281
1153.86
-33.5235
1165.65
-9.466
1171.69
13.074
1173.09
31.1034
1169.06
43.5439
1159.75
50.6084
1143.88
51.2051
1122.13
42.5609
1095.37
22.1054
1066.22
-11.5832
1038.85
-60.0767
1018.83
-122.192
1010.23
-191.844
1014.18
-261.575
1030
-327.935
1056.27
-390.274
1091.45
-446.508
1134.48
-518.717
-562.999
1986.09
-776.568
1998.68
-793.917
2028.26
-783.408
2078.21
-815.465
2213.46
-813.597
2362.93
-714.933
2482.6
-411.204
2513.8
-168.675
2543.33
-147.413
2547.03
-33.8286
2458.07
234.874
2279.15
292.644
2065.7
230.482
1923.45
243.254
1742.04
316.594
1589.49
410.119
1427.67
397.748
1337.23
400.181
1199.99
609.833
1040.96
719.648
863.137
605.508
720.895
395.971
616.313
160.353
564.468
-43.6911
558.89
-233.692
580.974
-405.935
616.626
-514.895
646.298
-562.812
677.534
-608.871
709.374
-657.965
748.912
-688.251
796.714
-718.509
858.285
-752.643
931.185
-795.01
1010.57
-793.959
1083.56
-764.589
1155.67
-725.438
1222.93
-661.241
1282.72
-577.937
1331.76
-500.531
1374.21
-431.864
1415.02
-369.256
1452.31
-287.099
1477.13
-183.075
1489.87
-94.6671
1496.32
-28.1845
1500.33
33.3282
1493.98
93.1161
1491.76
147.27
1471.65
193.454
1454.26
231.353
1417.15
254.435
1389.89
263.319
1346.77
255.829
1315.95
247.866
1271.89
248.544
1236.07
248.943
1191.42
224.614
1156.77
188.26
1115.69
149.97
1080.67
112.814
1041.34
76.5933
1005.9
43.8686
968.669
14.5694
936.545
-10.1457
903.956
-32.4994
876.619
-52.639
851.362
-70.6101
833.806
-89.7785
823.126
-113.825
824.505
-141.478
834.165
-164.65
852.049
-176.481
873.265
-176.028
898.212
-168.25
924.215
-156.639
952.466
-143.635
980.717
-130.545
1009.54
-116.748
1036.09
-100.286
1059.86
-79.1343
1078.2
-52.4455
1091.08
-22.4767
1097.53
6.07225
1098.19
30.2458
1091.81
49.2952
1078.28
63.779
1056.13
72.6357
1026.09
72.0653
989.402
58.1321
949.263
27.9881
911.096
-22.4966
882.35
-93.9958
868.077
-178.025
868.757
-262.746
882.359
-341.85
906.1
-414.391
937.97
-478.539
976.792
-557.667
-609.122
1604.54
-705.528
1552.47
-748.258
1540.87
-767.974
1572.39
-851.898
1716.7
-931.108
1900.5
-896.422
2064.51
-543.829
2128.62
-216.224
2182.39
-166.472
2209.81
-33.8827
2161.99
307.561
2048.39
439.748
1898.59
394.178
1807.45
374.23
1690.06
439.898
1569.31
549.674
1406.23
554.036
1286.73
541.904
1138.01
753.115
986.661
862.842
814.851
750.784
674.387
520.619
574.349
237.249
531.223
-22.3668
533.939
-256.522
559.056
-453.318
591.898
-568.027
614.574
-607.904
636.415
-648.893
657.288
-697.877
685.517
-731.068
723.489
-769.554
775.544
-812.207
840.992
-867.927
917.264
-873.864
988.133
-839.931
1055.22
-792.747
1116.04
-718.775
1169.5
-622.985
1213.06
-535.406
1249.79
-457.23
1284.07
-391.077
1315.77
-305.565
1336.56
-190.154
1346.18
-90.0023
1350.98
-17.2283
1353.48
49.4404
1345.69
112.549
1345.62
166.267
1330.34
216.399
1318.72
261.269
1287.65
290.44
1266.36
302.48
1228.51
296.48
1200.44
290.426
1160.04
289.896
1130.29
290.141
1091.81
262.77
1062.75
223.325
1025.32
185.998
994.197
147.515
957.22
112.142
922.945
80.0277
885.54
50.0665
852.895
24.4815
819.167
0.539773
790.887
-22.7396
764.956
-44.8699
747.708
-70.8239
738.797
-104.817
743.711
-144.482
758.124
-178.324
781.269
-197.462
807.614
-201.059
837.04
-195.338
866.643
-184.714
897.601
-172.209
927.711
-159.102
957.601
-144.346
984.518
-125.59
1008.2
-100.733
1026.25
-69.0227
1038.57
-33.0699
1043.71
2.04048
1041.58
33.7069
1031.02
60.671
1012.61
83.2613
984.926
100.849
948.805
108.64
906.222
100.689
861.099
72.9532
819.614
18.6349
790.035
-64.8489
776.984
-165.401
779.246
-265.533
793.202
-356.183
815.226
-436.912
843.269
-506.865
876.219
-590.857
-645.845
1126.86
-640.053
1083.91
-714.724
1084.63
-770.729
1127.7
-908.596
1282.41
-1062.07
1481.19
-1102.06
1672.15
-715.71
1761.58
-301.815
1845.18
-230.019
1908.56
-82.553
1916.32
313.542
1879.52
497.216
1785.98
494.279
1716.55
476.181
1612.66
547.729
1497.53
681.53
1336.89
707.981
1208.12
671.96
1066.28
885.332
931.845
998.467
769.336
902.079
635.765
655.88
545.556
322.187
513.07
3.70863
522.343
-270.545
547.239
-484.148
574.55
-598.198
589.299
-627.368
601.999
-663.322
613.082
-712.523
632.002
-751.043
662.108
-801.542
706.912
-856.095
766.537
-927.907
839.371
-943.723
908.455
-907.767
972.475
-852.941
1028.42
-770.972
1075.85
-665.101
1114.29
-570.227
1146.35
-484.436
1175.55
-415.216
1202.42
-326.987
1219.43
-201.405
1226.21
-90.8258
1229.54
-13.2401
1230.84
58.8258
1221.79
125.915
1222.94
177.144
1211.27
229.474
1204.37
280.738
1178.6
316.357
1162.42
331.7
1128.84
328.702
1103.85
325.167
1066.26
323.019
1040.73
322.863
1007.06
293.319
983.201
251.445
949.664
216.336
921.069
178.885
885.816
145.006
853.779
113.797
816.993
84.3479
784.653
58.4958
751.316
32.1127
724.074
5.14809
699.843
-21.9598
684.966
-55.3556
679.014
-100.075
687.474
-152.596
705.786
-197.793
732.79
-224.495
762.512
-231.886
794.399
-227.435
825.419
-216.811
856.88
-203.844
886.734
-189.929
915.826
-173.654
941.639
-152.324
964.398
-123.857
982.201
-87.7146
994.576
-45.8448
999.059
-3.27607
994.33
37.9627
979.454
74.6417
957.552
104.539
927.816
129.525
889.448
146.204
845.576
143.699
801.544
116.249
763.627
55.8429
739.264
-41.1371
731.243
-157.9
736.429
-271.267
750.464
-370.557
769.938
-456.794
793.216
-530.32
818.95
-616.715
-671.838
857.458
-596.244
833.559
-699.777
845.007
-779.488
890.524
-961.728
1034.67
-1176.63
1208.68
-1272.47
1388.74
-858.328
1483.84
-377.757
1587.06
-293.72
1672.12
-136.751
1702.86
309.301
1700.27
532.927
1642.18
568.083
1597.32
560.085
1510.78
643.016
1408.91
801.047
1259.28
852.223
1130.72
813.776
1000.3
1008.4
881.294
1109.85
727.63
1028.99
602.312
764.397
523.199
378.256
500.574
5.08443
514.043
-303.488
536.547
-528.321
557.358
-638.929
564.801
-656.924
569.212
-685.739
572.517
-734.562
585.649
-778.585
610.289
-839.184
649.683
-903.009
705.22
-990.622
774.567
-1016.67
840.863
-978.84
901.807
-914.589
953.713
-819.783
995.328
-698.434
1028.88
-595.44
1057.71
-502.039
1083.61
-428.626
1106.55
-336.724
1119.96
-201.174
1124.03
-80.6416
1125.66
1.19599
1125.91
77.8143
1116.18
147.952
1117.75
195.573
1108.17
247.32
1105.13
302.711
1083.94
342.843
1072.36
361.302
1042.73
361.275
1020.44
361.82
985.361
359.223
963.999
357.335
933.913
323.687
914.389
277.764
885.251
244.04
859.019
209.215
825.047
177.223
795.516
145.569
760.147
117.475
729.164
92.1197
697.811
63.0612
673.356
31.6109
652.058
-0.74483
639.244
-40.7476
634.213
-94.9482
643.254
-159.626
662.508
-216.231
690.797
-250.55
721.621
-261.381
754.012
-257.514
784.744
-246.086
815.311
-232.087
843.885
-217.038
871.536
-199.004
896.079
-175.25
918.418
-143.977
936.972
-104.658
950.138
-57.1856
953.939
-5.9006
946.955
46.2974
929.718
92.6932
907.255
128.056
880.083
157.346
844.565
182.381
803.466
184.898
764.749
154.876
734.408
85.906
717.709
-24.8228
715.045
-155.604
722.151
-278.855
735.206
-383.937
751.76
-473.808
770.56
-549.368
789.403
-635.775
-688.084
707.457
-586.747
704.822
-707.72
722.871
-800.31
764.42
-1018.99
895.733
-1283.04
1043.94
-1428.46
1203.38
-996.4
1292.17
-463.702
1399.76
-381.198
1488.97
-212.513
1523.18
286.654
1528.86
545.423
1488.43
614.411
1466.49
612.388
1400.65
712.792
1316.95
899.809
1181.8
982.02
1055.49
938.412
936.769
1116.17
830.498
1217.37
685.755
1164.44
572.615
881.687
506.579
442.053
492.308
15.5921
507.446
-320.856
526.078
-550.449
540.49
-653.867
541.139
-660.043
537.629
-681.942
535.514
-734.155
547.035
-789.56
568.374
-860.978
602.443
-935.14
653.691
-1041.35
719.803
-1078.97
783.503
-1040.33
841.929
-968.413
890.67
-864.273
926.809
-729.237
955.28
-620.629
980.909
-523.337
1004.06
-447.374
1023.2
-351.193
1033.3
-206.397
1035.25
-77.6122
1035.31
7.55342
1035.09
88.0599
1025.43
161.198
1026.92
205.708
1018.72
256.108
1019
314.452
1001.72
359.708
993.761
381.731
967.555
385.789
947.797
390.925
914.934
387.435
897.289
382.703
869.949
347.523
853.454
298.742
828.504
265.466
804.865
236.145
772.117
207.19
744.509
175.21
710.722
148.272
682.233
122.447
654.657
88.636
634.495
52.2442
615.984
16.2737
602.617
-26.8692
594.516
-88.2535
600.684
-165.621
618.795
-235.776
647.29
-279.341
678.531
-294.054
710.889
-290.377
740.695
-277.298
769.797
-261.644
796.741
-245.292
822.724
-225.481
846.137
-199.925
868.771
-167.285
888.724
-125.855
902.845
-71.9922
906.127
-10.2651
898.534
53.1602
882.153
107.927
860.866
148.431
837.436
179.4
807.96
210.738
772.39
219.429
741.311
185.093
720.031
106.413
711.034
-16.5217
712.661
-157.766
720.633
-287.381
732.566
-396.201
747.02
-488.665
762.747
-565.264
776.259
-649.397
-696.845
634.443
-595.152
645.666
-729.187
665.159
-818.505
700.289
-1063.74
817.59
-1370.94
940.034
-1545.05
1077.13
-1089.84
1150.34
-515.668
1250.15
-436.721
1340.84
-268.894
1380.12
275.687
1385.2
574.554
1350.52
667.802
1344.82
659.285
1296.15
773.62
1228.13
986.498
1108.34
1097.79
987.86
1066.22
880.701
1214.85
783.707
1307.03
648.515
1272.32
547.957
965.123
493.498
474.117
485.274
3.14489
499.902
-354.633
513.665
-585.735
522.236
-682.332
517.605
-677.606
508.453
-690.907
503.872
-748.302
516.413
-816.525
535.25
-892.929
564.034
-971.644
610.279
-1094.71
673.348
-1145.85
735.18
-1107.4
791.023
-1025.53
836.28
-907.13
866.795
-752.405
889.877
-636.25
912.662
-535.576
933.871
-456.568
949.476
-354.062
956.604
-200.248
957.056
-64.058
955.493
25.1056
954.962
108.262
945.535
183.263
946.192
225.674
938.627
272.363
942.061
330.595
928.258
379.191
923.479
404.625
900.279
412.03
882.732
422.565
851.483
419.687
837.663
411.222
813.562
372.594
799.301
320.487
777.573
285.569
757.207
261.173
726.88
235.486
700.928
203.939
668.819
178.094
644.371
150.229
622.102
110.817
605.97
70.5484
587.045
35.0078
568.214
-6.26735
553.397
-73.3851
556.057
-166.185
574.19
-253.078
604.138
-307.033
636.321
-324.959
668.524
-320.324
696.789
-304.233
723.782
-286.379
748.561
-268.701
772.509
-247.109
794.969
-220.778
818.285
-188.234
839.307
-145.132
853.628
-84.3982
857.189
-12.5709
852.07
59.6707
840.174
120.66
822.352
167.254
801.174
201.257
776.677
236.122
747.899
248.519
725.298
207.758
712.762
118.83
710.235
-14.2544
714.901
-162.673
723.353
-296.204
734.836
-407.897
748.435
-502.63
762.592
-579.583
772.563
-659.524
-701.174
598.248
-617.306
616.724
-757.952
636.534
-841.726
666.308
-1109.66
769.506
-1449.92
870.253
-1654.24
989.235
-1186.42
1043.21
-568.237
1127.43
-500.937
1216.85
-346.419
1260.78
240.227
1265.36
584.491
1234.58
702.31
1236.21
684.681
1194.35
817.717
1138.26
1055.76
1032.5
1198.71
918.941
1178.35
823.73
1299.26
736.192
1396.07
614.001
1387.39
528.344
1057.61
484.105
519.196
479.312
6.80824
491.715
-366.877
500.07
-595.398
503.584
-684.271
495.557
-670.051
484.052
-677.185
479.174
-743.36
492.575
-827.798
508.758
-908.111
532.82
-992.638
573.453
-1133.91
633.718
-1201.43
695.363
-1165.73
749.915
-1074.52
791.222
-943.245
815.685
-771.281
832.813
-650.062
852.293
-550.872
871.694
-471.925
883.806
-362.082
888.253
-200.512
887.622
-59.2691
884.373
33.9215
883.935
118.137
876.041
193.962
876.134
236.56
868.027
280.217
873.301
336.833
862.362
389.118
860.481
418.37
840.166
430.329
824.591
447.061
794.388
445.202
784.095
429.699
763.665
389.097
750.938
337.906
730.848
301.904
713.566
282.422
686.712
259.255
663.048
229.989
633.059
204.739
613.516
171.544
596.889
125.186
582.963
84.7513
559.668
56.5282
532.207
21.6434
511.465
-54.2975
514.549
-169.283
536.417
-276.658
569.634
-340.808
602.858
-359.919
633.937
-352.173
659.344
-331.362
683.018
-310.758
704.449
-291.788
725.558
-268.999
746.583
-243.421
770.323
-212.992
792.022
-168.469
805.441
-98.8047
809.847
-18.3058
809.888
58.6843
803.892
125.347
790.097
179.948
770.231
219.618
749.183
255.695
727.508
269.001
713.019
221.295
707.93
123.117
710.44
-17.4816
717.421
-170.187
726.713
-306.046
738.785
-420.284
752.617
-516.856
766.297
-593.421
774.311
-667.641
-703.852
573.64
-645.656
599.412
-793.933
619.397
-861.639
643.636
-1144.78
734.908
-1513.4
819.745
-1730.54
925.433
-1242.84
959.462
-579.93
1025.94
-519.002
1110.74
-393.782
1156.97
223.171
1161.99
614.055
1135.36
749.921
1141.45
721.562
1103.24
870.61
1055.31
1123.66
962.262
1288.78
859.267
1285.36
775.396
1374.36
694.669
1469.21
585.097
1470.08
511.401
1115.17
474.631
535.185
471.525
-9.67084
480.877
-394.64
483.925
-619.402
483.662
-703.382
474.814
-683.02
464.318
-684.468
460.377
-757.684
473.842
-855.291
488.557
-935.627
510.033
-1021.74
545.194
-1175.96
602.241
-1262.26
663.346
-1232.01
716.507
-1128.94
753.454
-978.226
771.928
-783.448
783.036
-654.674
799.268
-557.454
816.715
-478.162
825.543
-359.054
827.385
-189.779
825.476
-44.0813
820.397
54.5115
819.653
138.66
813.421
212.963
813.252
257.538
803.59
298.785
810.032
350.589
801.637
403.552
802.574
435.674
785.219
450.857
771.791
474.267
742.792
475.029
735.744
452.301
718.894
407.393
707.59
357.274
688.301
319.268
673.724
302.29
650.46
280.456
629.918
254.071
603.384
229.326
589.788
188.869
577.722
137.144
562.636
101.981
531.274
87.4663
495.632
59.1922
474.742
-33.2779
484.551
-176.872
513.062
-304.329
549.229
-374.73
581.526
-391.019
608.804
-377.242
629.042
-350.385
647.716
-327.16
664.627
-307.328
682.596
-284.54
702.409
-261.568
726.562
-234.538
748.382
-188.3
760.347
-108.702
766.267
-22.8355
772.302
54.1445
771.326
127.247
759.995
192.314
741.703
238.606
724.737
273.728
710.204
284.039
702.906
228.804
703.72
122.34
710.012
-23.9106
718.997
-179.288
729.73
-317.038
743.253
-433.915
757.957
-531.833
771.772
-607.308
779.176
-675.136
-707.433
553.457
-681.117
582.088
-832.053
601.278
-884.401
621.577
-1181.3
703.75
-1572.28
776.696
-1812.18
869.867
-1313.42
888.575
-598.743
939.947
-550.348
1017.19
-459.875
1062.21
184.23
1066.99
621.393
1043.69
775.638
1049.92
739.986
1012.3
909.395
974.222
1173.81
894.184
1364.4
798.38
1380.79
722.988
1439.57
650.042
1543.59
555.358
1559.93
495.868
1183.67
466.256
567.979
463.484
-6.11835
469.431
-398.657
468.196
-617.8
465.656
-697.509
457.488
-673.636
449.428
-672.511
446.533
-753.232
458.823
-864.122
473.3
-947.89
494.695
-1039.17
525.281
-1204.42
577.288
-1308.84
635.296
-1285.6
686.001
-1173.06
718.499
-1004.35
731.82
-790.875
738.169
-657.546
751.347
-566.446
766.599
-489.638
772.961
-361.847
772.619
-185.867
769.396
-37.479
763.095
65.6069
761.792
148.941
756.639
220.169
756.4
268.004
745.095
309.015
752.319
354.388
746.484
407.749
750.046
443.399
735.44
463.129
724.413
493.789
698.245
496.492
693.749
464.653
679.244
417.512
669.119
372.332
649.877
334.585
637.462
319.316
617.063
297.623
599.459
274.391
577.318
247.902
569.946
197.731
560.749
143.649
542.177
120.686
502.62
124.878
464.524
97.6525
451.673
-22.2932
472.038
-197.456
506.102
-340.316
541.881
-411.288
569.703
-420.821
589.85
-398.351
602.49
-365.039
614.757
-340.358
626.916
-321.483
642.624
-301.325
662.07
-282.971
686.253
-260.103
707.377
-211.488
719.366
-121.992
728.3
-33.3537
738.372
42.9135
739.665
124.511
729.925
200.81
714.455
252.484
702.339
284.047
694.759
290.277
693.808
228.709
699.319
115.989
708.614
-33.959
719.629
-190.849
732.371
-330.343
747.882
-449.745
763.734
-548.08
777.871
-621.606
785.737
-683.115
-713.824
532.033
-711.466
561.126
-870.843
580.429
-904.529
599.078
-1211.91
676.13
-1622.82
739.494
-1863.97
820.723
-1340.89
826.787
-581.886
866.035
-537.725
934.101
-487.292
977.317
170.95
984.876
649.063
964.842
818.699
969.294
779.604
931.491
963.893
902.07
1224.71
836.355
1428.06
754.797
1464.92
686.874
1498.68
615.446
1605.97
532.162
1616.95
482.345
1218.08
457.203
573.476
453.748
-21.6955
456.557
-419.585
452.59
-634.675
448.707
-712.832
441.782
-688.388
437.921
-686.368
438.296
-771.787
448.644
-888.53
461.133
-973.141
481.85
-1067.65
509.285
-1238.81
556.189
-1359.53
609.088
-1343.46
655.475
-1220.8
684.367
-1031.63
694.277
-795.219
697.464
-655.016
708.11
-568.153
721.142
-492.136
725.432
-355.034
722.821
-171.232
717.992
-19.8619
711.105
87.545
709.359
170.634
704.117
238.169
703.699
289.154
690.875
330.731
697.952
367.936
694.306
417.752
700.821
455.357
689.071
478.291
680.859
515.512
657.956
520.095
655.717
482.022
643.214
431.561
634.353
389.764
614.76
352.08
604.713
335.3
586.841
313.608
572.309
293.179
555.607
263.153
554.257
202.741
545.696
151.649
522.03
146.683
476.824
169.663
444.274
132.457
444.925
-22.6029
474.498
-224.754
509.484
-374.488
540.034
-439.667
559.362
-439.076
569.399
-406.192