# vtk DataFile Version 2.0
track0
ASCII
DATASET POLYDATA
POINTS 6430 float
-0.0205 0.001 1e-05
-0.0204727 0.00100011 1e-05
-0.0204454 0.00100021 1e-05
-0.0204181 0.00100032 1e-05
-0.0203908 0.00100042 1e-05
-0.0203635 0.00100053 1e-05
-0.0200299 0.00100181 1e-05
-0.0196963 0.00100312 1e-05
-0.0193627 0.00100443 1e-05
-0.0190291 0.00100573 1e-05
-0.0186954 0.00100701 1e-05
-0.018369 0.00100821 1e-05
-0.0180425 0.00100944 1e-05
-0.017716 0.00101066 1e-05
-0.0173896 0.00101188 1e-05
-0.0170631 0.00101307 1e-05
-0.0167436 0.00101419 1e-05
-0.0164242 0.00101534 1e-05
-0.0161047 0.00101648 1e-05
-0.0157852 0.00101761 1e-05
-0.0154657 0.00101873 1e-05
-0.0151531 0.00101977 1e-05
-0.0148405 0.00102085 1e-05
-0.0145279 0.00102191 1e-05
-0.0142152 0.00102297 1e-05
-0.0139026 0.00102401 1e-05
-0.0135967 0.00102499 1e-05
-0.0132908 0.00102599 1e-05
-0.0129848 0.00102698 1e-05
-0.0126789 0.00102797 1e-05
-0.012373 0.00102894 1e-05
-0.0120736 0.00102985 1e-05
-0.0117742 0.00103078 1e-05
-0.0114749 0.00103171 1e-05
-0.0111755 0.00103263 1e-05
-0.0108761 0.00103354 1e-05
-0.0105832 0.00103438 1e-05
-0.0102902 0.00103524 1e-05
-0.00999724 0.00103611 1e-05
-0.00970429 0.00103697 1e-05
-0.00941133 0.00103781 1e-05
-0.00912465 0.00103859 1e-05
-0.00883797 0.00103939 1e-05
-0.00855129 0.00104019 1e-05
-0.00826461 0.00104099 1e-05
-0.00797793 0.00104177 1e-05
-0.00769739 0.00104249 1e-05
-0.00741686 0.00104323 1e-05
-0.00713632 0.00104398 1e-05
-0.00685578 0.00104471 1e-05
-0.00657525 0.00104543 1e-05
-0.00630072 0.00104609 1e-05
-0.0060262 0.00104677 1e-05
-0.00575167 0.00104746 1e-05
-0.00547714 0.00104814 1e-05
-0.00520262 0.00104879 1e-05
-0.00493398 0.00104939 1e-05
-0.00466533 0.00105002 1e-05
-0.00439669 0.00105064 1e-05
-0.00412805 0.00105126 1e-05
-0.0038594 0.00105186 1e-05
-0.00359652 0.0010524 1e-05
-0.00333363 0.00105297 1e-05
-0.00307074 0.00105354 1e-05
-0.00280786 0.00105411 1e-05
-0.00254497 0.00105465 1e-05
-0.00228772 0.00105514 1e-05
-0.00203046 0.00105564 1e-05
-0.00177321 0.00105614 1e-05
-0.00151596 0.00105662 1e-05
-0.0012587 0.00105707 1e-05
-0.00100696 0.00105748 1e-05
-0.000755223 0.00105794 1e-05
-0.000503482 0.00105834 1e-05
-0.000251741 0.00105861 1e-05
0 0.00105871 1e-05
0.000329256 0.00105853 1e-05
0.000658511 0.00105851 1e-05
0.000987767 0.00105842 1e-05
0.00131702 0.00105811 1e-05
0.00164628 0.00105749 1e-05
0.00197921 0.00105642 1e-05
0.00231214 0.00105586 1e-05
0.00264507 0.00105544 1e-05
0.002978 0.00105494 1e-05
0.00331093 0.00105415 1e-05
0.00364757 0.0010527 1e-05
0.00398422 0.00105191 1e-05
0.00432087 0.00105131 1e-05
0.00465751 0.00105067 1e-05
0.00499415 0.00104974 1e-05
0.00533455 0.00104801 1e-05
0.00567496 0.00104694 1e-05
0.00601536 0.00104606 1e-05
0.00635577 0.00104512 1e-05
0.00669616 0.00104391 1e-05
0.00704036 0.00104188 1e-05
0.00738456 0.00104044 1e-05
0.00772877 0.00103914 1e-05
0.00807297 0.00103779 1e-05
0.00841716 0.00103619 1e-05
0.0087652 0.00103381 1e-05
0.00911324 0.00103193 1e-05
0.00946129 0.00103013 1e-05
0.00980933 0.00102825 1e-05
0.0101574 0.00102618 1e-05
0.0105093 0.0010234 1e-05
0.0108612 0.00102101 1e-05
0.0112131 0.00101863 1e-05
0.0115651 0.00101617 1e-05
0.011917 0.00101355 1e-05
0.0122728 0.00101032 1e-05
0.0126287 0.00100738 1e-05
0.0129845 0.00100439 1e-05
0.0133404 0.00100131 1e-05
0.0136962 0.000998112 1e-05
0.0140561 0.000994406 1e-05
0.0144159 0.000990888 1e-05
0.0147757 0.000987284 1e-05
0.0151355 0.00098359 1e-05
0.0154954 0.000979805 1e-05
0.0158592 0.00097561 1e-05
0.016223 0.000971504 1e-05
0.0165869 0.000967312 1e-05
0.0169507 0.000963033 1e-05
0.0173145 0.000958665 1e-05
0.0176824 0.000953992 1e-05
0.0180503 0.00094933 1e-05
0.0184182 0.00094459 1e-05
0.0187861 0.000939769 1e-05
0.019154 0.000934868 1e-05
0.019526 0.000929739 1e-05
0.019898 0.000924572 1e-05
0.02027 0.000919333 1e-05
0.020642 0.000914024 1e-05
0.0210141 0.000908643 1e-05
0.0213902 0.000903091 1e-05
0.0217664 0.000897471 1e-05
0.0221425 0.00089179 1e-05
0.0225187 0.000886046 1e-05
0.0228948 0.000880239 1e-05
0.0232752 0.000874297 1e-05
0.0236555 0.000868279 1e-05
0.0240359 0.000862207 1e-05
0.0244162 0.00085608 1e-05
0.0247966 0.000849897 1e-05
0.0251385 0.000844294 1e-05
0.0254805 0.000838636 1e-05
0.0258224 0.00083294 1e-05
0.0261644 0.000827205 1e-05
0.0264797 0.00082188 1e-05
0.0265277 0.000821065 1e-05
0.0265756 0.000820249 1e-05
0.0266236 0.000819432 1e-05
0.0266716 0.000818615 1e-05
0.0267196 0.000817796 1e-05
0.0271085 0.000811164 1e-05
0.0274973 0.00080448 1e-05
0.0278862 0.00079775 1e-05
0.0282751 0.000790974 1e-05
0.028664 0.00078415 1e-05
0.0290572 0.000777264 1e-05
0.0294505 0.000770288 1e-05
0.0298437 0.000763266 1e-05
0.0302369 0.000756198 1e-05
0.0306301 0.000749083 1e-05
0.0310278 0.000741945 1e-05
0.0314254 0.000734685 1e-05
0.031823 0.000727377 1e-05
0.0322206 0.00072002 1e-05
0.0326182 0.000712613 1e-05
0.0330203 0.00070521 1e-05
0.0334223 0.000697656 1e-05
0.0338244 0.000690049 1e-05
0.0342264 0.000682389 1e-05
0.0346285 0.000674674 1e-05
0.035035 0.000666976 1e-05
0.0354416 0.000659102 1e-05
0.0358481 0.000651168 1e-05
0.0362546 0.000643172 1e-05
0.0366612 0.000635127 1e-05
0.0370722 0.000627092 1e-05
0.0374833 0.000618877 1e-05
0.0378944 0.00061057 1e-05
0.0383055 0.00060219 1e-05
0.0387166 0.000593784 1e-05
0.0391322 0.000585356 1e-05
0.0395479 0.000576746 1e-05
0.0399635 0.000568006 1e-05
0.0403792 0.00055918 1e-05
0.0407949 0.000550343 1e-05
0.0412152 0.000541454 1e-05
0.0416355 0.000532375 1e-05
0.0420558 0.000523129 1e-05
0.042476 0.000513783 1e-05
0.0428964 0.000504435 1e-05
0.0433214 0.000495003 1e-05
0.0437463 0.000485372 1e-05
0.0441713 0.00047554 1e-05
0.0445963 0.000465599 1e-05
0.0450213 0.00045565 1e-05
0.0454511 0.000445586 1e-05
0.0458808 0.000435309 1e-05
0.0463105 0.00042482 1e-05
0.0467402 0.000414206 1e-05
0.04717 0.00040356 1e-05
0.0476045 0.000392762 1e-05
0.048039 0.000381738 1e-05
0.0484736 0.000370489 1e-05
0.0489081 0.000359099 1e-05
0.0493426 0.000347649 1e-05
0.049782 0.000336011 1e-05
0.0502214 0.000324132 1e-05
0.0506607 0.000312014 1e-05
0.0511001 0.000299745 1e-05
0.0515395 0.000287379 1e-05
0.0519838 0.000274786 1e-05
0.0524281 0.000261937 1e-05
0.0528723 0.000248862 1e-05
0.0533166 0.000235612 1e-05
0.0537609 0.000222213 1e-05
0.0542102 0.000208546 1e-05
0.0546594 0.000194605 1e-05
0.0551086 0.000180448 1e-05
0.0555578 0.000166092 1e-05
0.0560071 0.000151537 1e-05
0.0564614 0.00013667 1e-05
0.0569156 0.000121522 1e-05
0.0573698 0.000106152 1e-05
0.0578241 9.05595e-05 1e-05
0.0582784 7.47406e-05 1e-05
0.0587023 5.97925e-05 1e-05
0.0591261 4.46092e-05 1e-05
0.05955 2.92153e-05 1e-05
0.0599739 1.36101e-05 1e-05
0.0603386 -3.38813e-21 1e-05
0.0603859 -1.78462e-06 1e-05
0.0604331 -3.57183e-06 1e-05
0.0604804 -5.36163e-06 1e-05
0.0605277 -7.15401e-06 1e-05
0.060575 -8.94902e-06 1e-05
0.0610394 -2.66057e-05 1e-05
0.0615038 -4.45318e-05 1e-05
0.0619683 -6.27247e-05 1e-05
0.0624327 -8.11853e-05 1e-05
0.0628972 -9.99187e-05 1e-05
0.0633668 -0.000119095 1e-05
0.0638364 -0.000138595 1e-05
0.064306 -0.000158386 1e-05
0.0647756 -0.000178471 1e-05
0.0652453 -0.000198856 1e-05
0.0657202 -0.000219698 1e-05
0.0661951 -0.000240909 1e-05
0.0666699 -0.000262443 1e-05
0.0671447 -0.000284296 1e-05
0.0676197 -0.000306454 1e-05
0.0680998 -0.000329112 1e-05
0.06858 -0.000352161 1e-05
0.0690601 -0.000375585 1e-05
0.0695402 -0.000399355 1e-05
0.0700205 -0.00042343 1e-05
0.070506 -0.00044806 1e-05
0.0709916 -0.000473102 1e-05
0.071477 -0.000498555 1e-05
0.0719625 -0.000524375 1e-05
0.0724481 -0.000550525 1e-05
0.0729391 -0.000577287 1e-05
0.07343 -0.000604483 1e-05
0.0739209 -0.000632114 1e-05
0.0744118 -0.000660131 1e-05
0.0749029 -0.000688519 1e-05
0.0753993 -0.000717578 1e-05
0.0758957 -0.000747094 1e-05
0.0763921 -0.000777043 1e-05
0.0768884 -0.000807405 1e-05
0.077385 -0.000838199 1e-05
0.0778869 -0.000869724 1e-05
0.0783889 -0.000901722 1e-05
0.0788908 -0.000934162 1e-05
0.0793927 -0.000967047 1e-05
0.0798948 -0.0010004 1e-05
0.0799629 -0.00100499 1e-05
0.0800311 -0.00100958 1e-05
0.0800993 -0.00101419 1e-05
0.0801674 -0.0010188 1e-05
0.0802343 -0.00102334 1e-05
0.080674 -0.00105321 1e-05
0.0811136 -0.00108343 1e-05
0.0815532 -0.001114 1e-05
0.0819928 -0.00114493 1e-05
0.0824326 -0.00117622 1e-05
0.0829458 -0.00121311 1e-05
0.083459 -0.00125053 1e-05
0.0839722 -0.00128845 1e-05
0.0844853 -0.00132687 1e-05
0.0849987 -0.00136579 1e-05
0.0855177 -0.00140558 1e-05
0.0860366 -0.00144593 1e-05
0.0865555 -0.00148684 1e-05
0.0870743 -0.00152829 1e-05
0.0875935 -0.00157023 1e-05
0.0881183 -0.0016131 1e-05
0.088643 -0.00165657 1e-05
0.0891676 -0.00170064 1e-05
0.0896922 -0.00174525 1e-05
0.0902172 -0.00179041 1e-05
0.0907478 -0.00183657 1e-05
0.0912784 -0.00188335 1e-05
0.0918089 -0.00193072 1e-05
0.0923393 -0.00197866 1e-05
0.0928702 -0.00202722 1e-05
0.0931109 -0.00204949 1e-05
0.0933516 -0.0020719 1e-05
0.0935922 -0.00209442 1e-05
0.0938328 -0.00211706 1e-05
0.0940602 -0.00213858 1e-05
0.0943588 -0.00216697 1e-05
0.0946573 -0.00219554 1e-05
0.0949557 -0.0022243 1e-05
0.0952542 -0.00225324 1e-05
0.0955528 -0.00228239 1e-05
0.0960954 -0.00233565 1e-05
0.0966378 -0.00238956 1e-05
0.0971802 -0.00244409 1e-05
0.0977225 -0.00249925 1e-05
0.0982654 -0.00255508 1e-05
0.098814 -0.00261208 1e-05
0.0993624 -0.00266977 1e-05
0.0999109 -0.00272817 1e-05
0.100459 -0.00278721 1e-05
0.101008 -0.00284694 1e-05
0.101563 -0.0029079 1e-05
0.102117 -0.00296959 1e-05
0.102672 -0.003032 1e-05
0.103226 -0.00309508 1e-05
0.103782 -0.00315893 1e-05
0.104117 -0.00319794 1e-05
0.104453 -0.00323722 1e-05
0.104789 -0.00327676 1e-05
0.105124 -0.00331655 1e-05
0.105438 -0.00335397 1e-05
0.105668 -0.00338154 1e-05
0.105897 -0.00340922 1e-05
0.106127 -0.00343702 1e-05
0.106356 -0.00346494 1e-05
0.106586 -0.00349299 1e-05
0.107153 -0.00356253 1e-05
0.10772 -0.00363281 1e-05
0.108287 -0.00370382 1e-05
0.108854 -0.00377556 1e-05
0.109422 -0.00384812 1e-05
0.109995 -0.0039221 1e-05
0.110568 -0.00399688 1e-05
0.111142 -0.00407248 1e-05
0.111715 -0.00414884 1e-05
0.112289 -0.00422603 1e-05
[...]
POINT_DATA 6430
 FIELD attributes 2
p 1 6430 float
-9.87076 -9.87114 -9.87152 -9.87191 -9.87229 -9.87267 -9.87639 -9.88058 -9.88481 -9.88908 -9.89384 -9.89748 -9.9016 -9.90578 -9.91004 -9.91478 -9.91838 -9.92246 -9.92663 -9.93088 -9.93562 -9.93922 -9.94329 -9.94747 -9.95175 -9.9565 -9.96013 -9.96423 -9.96844 -9.97278 -9.97756 -9.98127 -9.98541 -9.9897 -9.99412 -9.99896 -10.0028 -10.007 -10.0114 -10.016 -10.0209 -10.0249 -10.0292 -10.0338 -10.0385 -10.0436 -10.0477 -10.0523 -10.057 -10.0619 -10.0672 -10.0716 -10.0764 -10.0815 -10.0867 -10.0922 -10.097 -10.1022 -10.1075 -10.113 -10.1188 -10.124 -10.1298 -10.1359 -10.1422 -10.1489 -10.1555 -10.1618 -10.168 -10.1743 -10.1808 -10.1909 -10.2012 -10.2116 -10.2216 -10.2309 -10.2477 -10.2559 -10.2584 -10.2563 -10.2473 -10.2541 -10.2559 -10.2546 -10.2514 -10.245 -10.2626 -10.2738 -10.2814 -10.2839 -10.2771 -10.2917 -10.2997 -10.3044 -10.305 -10.2969 -10.3033 -10.3062 -10.3074 -10.3069 -10.3017 -10.3031 -10.3039 -10.3044 -10.3045 -10.3032 -10.3015 -10.3014 -10.3015 -10.3019 -10.3034 -10.2993 -10.2986 -10.2983 -10.2983 -10.3015 -10.2959 -10.2952 -10.2946 -10.2941 -10.2982 -10.2926 -10.292 -10.2914 -10.2909 -10.2949 -10.2902 -10.29 -10.2897 -10.2894 -10.2929 -10.2898 -10.2901 -10.2903 -10.2905 -10.2934 -10.2922 -10.2932 -10.2942 -10.2952 -10.2977 -10.2984 -10.3003 -10.3023 -10.3042 -10.3067 -10.3089 -10.3115 -10.3142 -10.3168 -10.3193 -10.3196 -10.32 -10.3204 -10.3207 -10.3211 -10.3251 -10.3292 -10.3332 -10.3373 -10.3414 -10.3464 -10.3515 -10.3567 -10.3618 -10.3672 -10.373 -10.3792 -10.3854 -10.3916 -10.3982 -10.4048 -10.4119 -10.419 -10.4261 -10.4338 -10.441 -10.4489 -10.4567 -10.4646 -10.4732 -10.481 -10.4893 -10.4977 -10.5062 -10.5153 -10.5236 -10.5321 -10.5408 -10.5498 -10.5591 -10.5677 -10.5763 -10.585 -10.5942 -10.6034 -10.612 -10.6206 -10.6292 -10.6381 -10.6471 -10.6554 -10.6638 -10.6722 -10.6806 -10.6891 -10.697 -10.705 -10.7129 -10.7206 -10.7284 -10.7357 -10.743 -10.7502 -10.7571 -10.764 -10.7704 -10.7768 -10.7831 -10.7891 -10.795 -10.8004 -10.8056 -10.8108 -10.8159 -10.8206 -10.8247 -10.8286 -10.8324 -10.8363 -10.8398 -10.8422 -10.8444 -10.8467 -10.8489 -10.8508 -10.851 -10.8513 -10.8515 -10.8518 -10.852 -10.8528 -10.8536 -10.8544 -10.8552 -10.8558 -10.8552 -10.8542 -10.8533 -10.8523 -10.8509 -10.8488 -10.846 -10.8432 -10.8401 -10.8367 -10.8326 -10.8282 -10.8234 -10.818 -10.8125 -10.8062 -10.7999 -10.7929 -10.7852 -10.7775 -10.7689 -10.7604 -10.7511 -10.7411 -10.7311 -10.7202 -10.7088 -10.697 -10.6852 -10.6727 -10.6591 -10.6448 -10.6305 -10.6162 -10.6018 -10.5996 -10.5973 -10.5951 -10.5928 -10.5905 -10.5761 -10.5617 -10.5473 -10.5329 -10.5177 -10.4992 -10.4799 -10.4606 -10.4409 -10.42 -10.3991 -10.378 -10.3559 -10.3322 -10.3086 -10.2849 -10.2611 -10.236 -10.2096 -10.1832 -10.1566 -10.1288 -10.1006 -10.0724 -10.0435 -10.0302 -10.0163 -10.0023 -9.98833 -9.97514 -9.95808 -9.94103 -9.92399 -9.90696 -9.88899 -9.85625 -9.82274 -9.78926 -9.75505 -9.71965 -9.68431 -9.64901 -9.61233 -9.57416 -9.53597 -9.49782 -9.45907 -9.41906 -9.379 -9.3381 -9.31363 -9.28811 -9.26253 -9.23696 -9.21307 -9.1958 -9.17853 -9.16126 -9.14399 -9.12587 -9.08163 -9.03679 -8.99199 -8.94628 -8.89945 -8.85288 -8.80636 -8.75849 -8.70932 -8.6601 -8.61112 -8.56092 -8.51017 -8.45946 -8.40849 -8.40229 -8.39592 -8.38951 -8.3831 -8.37677 -8.33061 -8.28447 -8.23835 -8.19203 -8.14423 -8.09031 -8.03637 -7.98166 -7.92555 -7.86936 -7.81358 -7.75722 -7.69996 -7.64272 -7.58509 -7.5694 -7.55345 -7.53741 -7.52136 -7.50572 -7.46313 -7.42056 -7.37801 -7.33522 -7.29151 -7.23208 -7.1726 -7.11274 -7.05179 -6.99071 -6.93017 -6.86921 -6.80766 -6.74615 -6.68441 -6.67356 -6.66263 -6.65164 -6.64065 -6.62983 -6.57863 -6.52744 -6.47627 -6.42489 -6.37283 -6.31032 -6.24784 -6.1851 -6.12192 -6.05858 -6.00019 -5.94155 -5.88278 -5.82403 -5.76935 -5.76414 -5.75893 -5.75372 -5.74849 -5.74323 -5.6801 -5.61702 -5.55396 -5.49076 -5.4272 -5.36441 -5.30164 -5.23882 -5.17618 -5.1134 -5.07847 -5.04359 -5.00876 -4.97394 -4.94036 -4.91281 -4.88527 -4.85772 -4.83018 -4.8026 -4.74101 -4.67966 -4.61841 -4.55739 -4.49622 -4.43591 -4.37577 -4.31593 -4.25611 -4.19636 -4.18658 -4.17686 -4.16718 -4.15751 -4.14791 -4.09884 -4.04978 -4.00072 -3.95179 -3.90305 -3.84562 -3.78819 -3.73131 -3.67497 -3.61855 -3.57263 -3.52714 -3.4819 -3.43665 -3.3919 -3.38225 -3.37259 -3.36294 -3.35331 -3.34375 -3.29037 -3.23718 -3.18399 -3.13114 -3.07867 -3.02739 -2.97611 -2.92549 -2.87538 -2.8254 -2.79167 -2.75839 -2.72527 -2.69216 -2.65803 -2.64318 -2.62833 -2.61347 -2.59859 -2.58361 -2.53764 -2.49152 -2.44541 -2.39908 -2.35276 -2.30943 -2.26611 -2.22257 -2.1788 -2.1352 -2.09444 -2.05357 -2.01267 -1.97178 -1.93105 -1.92541 -1.91976 -1.9141 -1.90845 -1.90268 -1.86976 -1.83684 -1.80394 -1.77106 -1.73563 -1.70194 -1.66659 -1.63067 -1.59263 -1.5539 -1.52277 -1.49167 -1.45815 -1.42218 -1.38639 -1.35772 -1.32826 -1.29717 -1.26547 -1.23248 -1.20602 -1.17749 -1.149 -1.12054 -1.09151 -1.08158 -1.07112 -1.06067 -1.05023 -1.03881 -1.02331 -1.00781 -0.992332 -0.976864 -0.961561 -0.937708 -0.913765 -0.889855 -0.86598 -0.84244 -0.820962 -0.799187 -0.777411 -0.755739 -0.734262 -0.71482 -0.695268 -0.675469 -0.655804 -0.636211 -0.618642 -0.601106 -0.583221 -0.565342 -0.547497 -0.531648 -0.515828 -0.499849 -0.483595 -0.467366 -0.453094 -0.438847 -0.424606 -0.40985 -0.395115 -0.382287 -0.369468 -0.356629 -0.343444 -0.330086 -0.318581 -0.307052 -0.2955 -0.283769 -0.271682 -0.261393 -0.251035 -0.240668 -0.23028 -0.21937 -0.210194 -0.200915 -0.191644 -0.182381 -0.172679 -0.164511 -0.156256 -0.148007 -0.139765 -0.131217 -0.123993 -0.116701 -0.109416 -0.102136 -0.0946692 -0.08835 -0.0819927 -0.0756404 -0.069293 -0.0628684 -0.058266 -0.0536438 -0.0490245 -0.0444082 -0.0391056 -0.0384112 -0.0377169 -0.0370226 -0.0363284 -0.0357206 -0.0311942 -0.026753 -0.0223153 -0.0178809 -0.0141897 -0.00998471 -0.00640108 -0.00281987 0.000758953 0.00312934 0.00614459 0.00760228 0.00905855 0.0105134 0.00958718 0.0120073 0.0147405 0.0174747 0.0202098 0.022827 0.025385 0.0214591 0.0175383 0.0136223 0.00313719
-9.86389 -9.86423 -9.86457 -9.86491 -9.86525 -9.86559 -9.86966 -9.87376 -9.87789 -9.88203 -9.88617 -9.89023 -9.8943 -9.89839 -9.90247 -9.90655 -9.91061 -9.91467 -9.91874 -9.92279 -9.92683 -9.9309 -9.93497 -9.93904 -9.94308 -9.9471 -9.9512 -9.95529 -9.95939 -9.96344 -9.96747 -9.97162 -9.97576 -9.9799 -9.98399 -9.98805 -9.99226 -9.99648 -10.0007 -10.0048 -10.0089 -10.0133 -10.0176 -10.0219 -10.0261 -10.0303 -10.0347 -10.0391 -10.0436 -10.0479 -10.0522 -10.0567 -10.0613 -10.0659 -10.0704 -10.0748 -10.0795 -10.0842 -10.089 -10.0936 -10.0982 -10.103 -10.1079 -10.1128 -10.1176 -10.1223 -10.1273 -10.1322 -10.1373 -10.142 -10.1467 -10.1514 -10.1563 -10.1616 -10.1669 -10.1721 -10.1772 -10.1822 -10.1869 -10.191 -10.1949 -10.1987 -10.2023 -10.2052 -10.2078 -10.2102 -10.2127 -10.2153 -10.218 -10.2208 -10.2235 -10.2261 -10.2286 -10.2313 -10.2337 -10.2361 -10.2376 -10.2392 -10.2408 -10.2424 -10.244 -10.2442 -10.2446 -10.2452 -10.2464 -10.2478 -10.2473 -10.247 -10.2473 -10.2482 -10.2495 -10.2488 -10.2483 -10.2483 -10.2489 -10.2498 -10.2491 -10.2485 -10.2482 -10.2486 -10.2493 -10.2486 -10.248 -10.2478 -10.248 -10.2486 -10.2481 -10.2478 -10.2478 -10.2481 -10.2487 -10.2487 -10.2488 -10.2492 -10.2498 -10.2507 -10.2512 -10.2519 -10.2528 -10.254 -10.2553 -10.2565 -10.2578 -10.2594 -10.2612 -10.2633 -10.2651 -10.2673 -10.2697 -10.2723 -10.2751 -10.2777 -10.2807 -10.284 -10.2874 -10.291 -10.2945 -10.2984 -10.3025 -10.3067 -10.3112 -10.3155 -10.3202 -10.3251 -10.3301 -10.3353 -10.3404 -10.346 -10.3516 -10.3573 -10.3632 -10.369 -10.3752 -10.3814 -10.3877 -10.394 -10.4004 -10.4071 -10.4139 -10.4206 -10.4272 -10.434 -10.441 -10.448 -10.455 -10.4617 -10.4688 -10.4759 -10.483 -10.4901 -10.4968 -10.5038 -10.5108 -10.5178 -10.5249 -10.5314 -10.5382 -10.5449 -10.5516 -10.5583 -10.5645 -10.5709 -10.5771 -10.5833 -10.5895 -10.5953 -10.601 -10.6065 -10.612 -10.6175 -10.6228 -10.6276 -10.6322 -10.6369 -10.6415 -10.6462 -10.6466 -10.647 -10.6474 -10.6478 -10.6482 -10.6515 -10.6548 -10.658 -10.6613 -10.6646 -10.6672 -10.6697 -10.6722 -10.6748 -10.6772 -10.6788 -10.6799 -10.6811 -10.6823 -10.6832 -10.6836 -10.6833 -10.683 -10.6827 -10.6817 -10.6808 -10.6791 -10.6772 -10.6749 -10.6721 -10.6696 -10.6667 -10.663 -10.6584 -10.6536 -10.6493 -10.645 -10.6393 -10.6324 -10.6255 -10.6193 -10.613 -10.6054 -10.5963 -10.5873 -10.5789 -10.5704 -10.5604 -10.5495 -10.5382 -10.5277 -10.5159 -10.5037 -10.4914 -10.4778 -10.4645 -10.4497 -10.435 -10.4204 -10.4054 -10.4013 -10.3969 -10.3925 -10.3881 -10.3839 -10.3714 -10.3589 -10.3464 -10.3339 -10.3205 -10.3021 -10.2829 -10.2636 -10.244 -10.2228 -10.2022 -10.1813 -10.1595 -10.1358 -10.112 -10.0888 -10.0656 -10.0408 -10.0143 -9.98785 -9.962 -9.93502 -9.9071 -9.8792 -9.85021 -9.83134 -9.81122 -9.79112 -9.77102 -9.75246 -9.74188 -9.7313 -9.72072 -9.71015 -9.69886 -9.6668 -9.63417 -9.60157 -9.56835 -9.53365 -9.49938 -9.46515 -9.42945 -9.39213 -9.35481 -9.31789 -9.2802 -9.24123 -9.20228 -9.16248 -9.14433 -9.12537 -9.10629 -9.08721 -9.06902 -9.04683 -9.02465 -9.00248 -8.98018 -8.95722 -8.91444 -8.87135 -8.82819 -8.78386 -8.7393 -8.69411 -8.64882 -8.60232 -8.55575 -8.50892 -8.48693 -8.46455 -8.44198 -8.41942 -8.39779 -8.37157 -8.34535 -8.31914 -8.29285 -8.26604 -8.21558 -8.16502 -8.11446 -8.06313 -8.01155 -7.95914 -7.90674 -7.85347 -7.80017 -7.74682 -7.71297 -7.67875 -7.64442 -7.61009 -7.57732 -7.55652 -7.53573 -7.51494 -7.49407 -7.47287 -7.41676 -7.36065 -7.30457 -7.24787 -7.19082 -7.1334 -7.076 -7.01791 -6.95983 -6.90174 -6.86687 -6.83176 -6.79656 -6.76136 -6.72749 -6.70342 -6.67936 -6.6553 -6.63118 -6.60686 -6.54694 -6.48729 -6.42765 -6.3677 -6.30762 -6.24719 -6.18676 -6.12615 -6.06567 -6.00538 -5.97744 -5.94951 -5.92158 -5.89366 -5.86638 -5.83344 -5.8005 -5.76756 -5.73462 -5.70164 -5.64047 -5.5796 -5.51896 -5.45849 -5.39797 -5.33716 -5.27647 -5.21606 -5.15565 -5.09569 -5.07854 -5.06149 -5.0445 -5.02751 -5.0107 -4.96776 -4.92481 -4.88186 -4.83902 -4.79643 -4.73668 -4.67703 -4.61816 -4.55988 -4.50156 -4.44299 -4.38489 -4.32725 -4.26961 -4.21223 -4.20477 -4.19741 -4.1901 -4.18278 -4.17549 -4.12617 -4.07686 -4.02754 -3.97845 -3.93001 -3.87412 -3.81825 -3.76348 -3.70965 -3.6558 -3.60176 -3.54854 -3.49581 -3.44307 -3.39048 -3.38719 -3.38396 -3.38076 -3.37756 -3.37436 -3.32625 -3.27813 -3.23002 -3.18217 -3.13531 -3.08518 -3.03505 -2.98618 -2.93842 -2.89068 -2.84281 -2.79579 -2.74941 -2.70303 -2.65707 -2.64914 -2.64141 -2.63375 -2.62609 -2.61839 -2.58148 -2.54456 -2.50765 -2.4709 -2.43519 -2.39194 -2.34896 -2.30676 -2.26593 -2.22513 -2.1843 -2.14378 -2.10444 -2.06532 -2.02695 -2.00364 -1.98113 -1.95872 -1.93631 -1.91323 -1.89864 -1.88404 -1.86944 -1.85486 -1.8408 -1.80512 -1.77002 -1.73493 -1.70041 -1.66671 -1.63315 -1.59959 -1.56711 -1.53571 -1.50436 -1.47312 -1.44243 -1.41249 -1.38255 -1.35344 -1.335 -1.31731 -1.29963 -1.28194 -1.26331 -1.2533 -1.2433 -1.23329 -1.22328 -1.21362 -1.18728 -1.16126 -1.13524 -1.1094 -1.08447 -1.05987 -1.03541 -1.01143 -0.988438 -0.96548 -0.942835 -0.920195 -0.898343 -0.877213 -0.856112 -0.835315 -0.815054 -0.79514 -0.775231 -0.755822 -0.739857 -0.724412 -0.70897 -0.693532 -0.67656 -0.674046 -0.671531 -0.669017 -0.666502 -0.664047 -0.64713 -0.630259 -0.613396 -0.596539 -0.580146 -0.564473 -0.54908 -0.533693 -0.518517 -0.5037 -0.489436 -0.475222 -0.461208 -0.447686 -0.434191 -0.421237 -0.408288 -0.395683 -0.383404 -0.371137 -0.3594 -0.34771 -0.336398 -0.325217 -0.314093 -0.303487 -0.293127 -0.282913 -0.272714 -0.262654 -0.253153 -0.243964 -0.234778 -0.225596 -0.216474 -0.209683 -0.203021 -0.196361 -0.189704 -0.182374 -0.180939 -0.179504 -0.17807 -0.176636 -0.175202 -0.16786 -0.160503 -0.15315 -0.1458 -0.138471 -0.13212 -0.125627 -0.119138 -0.112651 -0.106172 -0.100738 -0.0951651 -0.0895901 -0.0840641 -0.0786832 -0.0743229 -0.069593 -0.064547 -0.0593105 -0.0539541 -0.0495581 -0.0452711 -0.0417513 -0.039847 -0.0380048 -0.0370178 -0.0360307 -0.0292278 -0.0170103 -0.00479306 0.00709653 0.0189862 0.0198513 0.00992586 0
-9.85876 -9.85908 -9.85939 -9.8597 -9.86002 -9.86033 -9.8643 -9.86825 -9.87221 -9.87617 -9.88009 -9.88401 -9.88792 -9.89184 -9.89575 -9.89963 -9.90352 -9.9074 -9.91129 -9.91518 -9.91902 -9.92289 -9.92676 -9.93063 -9.9345 -9.93832 -9.94218 -9.94605 -9.94991 -9.95378 -9.95759 -9.96146 -9.96533 -9.9692 -9.97307 -9.97689 -9.98076 -9.98465 -9.98853 -9.99242 -9.99624 -10.0001 -10.004 -10.0079 -10.0118 -10.0157 -10.0196 -10.0235 -10.0274 -10.0314 -10.0352 -10.0391 -10.043 -10.047 -10.0509 -10.0547 -10.0586 -10.0625 -10.0664 -10.0703 -10.0741 -10.0779 -10.0818 -10.0856 -10.0895 -10.0932 -10.0969 -10.1006 -10.1043 -10.108 -10.1115 -10.115 -10.1187 -10.1224 -10.1261 -10.1298 -10.1335 -10.1372 -10.141 -10.1448 -10.1484 -10.1519 -10.1552 -10.1584 -10.1617 -10.1647 -10.1675 -10.1701 -10.1728 -10.1755 -10.178 -10.1803 -10.1826 -10.1848 -10.1871 -10.1892 -10.1912 -10.193 -10.1948 -10.1966 -10.1982 -10.1997 -10.201 -10.2023 -10.2036 -10.2048 -10.2059 -10.2068 -10.2078 -10.2087 -10.2096 -10.2104 -10.2111 -10.2118 -10.2125 -10.2132 -10.2139 -10.2144 -10.215 -10.2156 -10.2161 -10.2167 -10.2173 -10.2178 -10.2183 -10.2189 -10.2195 -10.2201 -10.2208 -10.2214 -10.2221 -10.2229 -10.2238 -10.2246 -10.2255 -10.2264 -10.2276 -10.2288 -10.23 -10.2312 -10.2324 -10.234 -10.2357 -10.2374 -10.239 -10.2407 -10.2428 -10.245 -10.2472 -10.2494 -10.2516 -10.2543 -10.2571 -10.2598 -10.2626 -10.2654 -10.2687 -10.272 -10.2754 -10.2787 -10.2821 -10.2859 -10.2899 -10.2938 -10.2977 -10.3016 -10.306 -10.3104 -10.3148 -10.3192 -10.3236 -10.3284 -10.3332 -10.3381 -10.3429 -10.3477 -10.3528 -10.358 -10.3631 -10.3682 -10.3733 -10.3768 -10.3803 -10.3837 -10.3872 -10.3902 -10.3921 -10.394 -10.3959 -10.3978 -10.3998 -10.4051 -10.4103 -10.4156 -10.4209 -10.4263 -10.4315 -10.4366 -10.4417 -10.4469 -10.4521 -10.457 -10.4618 -10.4666 -10.4715 -10.4763 -10.4809 -10.4852 -10.4896 -10.4939 -10.4983 -10.5023 -10.506 -10.5097 -10.5134 -10.5171 -10.5205 -10.5234 -10.5263 -10.5292 -10.532 -10.5346 -10.5365 -10.5385 -10.5405 -10.5422 -10.5438 -10.5448 -10.5456 -10.5464 -10.5469 -10.5474 -10.5473 -10.5469 -10.5464 -10.5455 -10.5447 -10.5435 -10.5417 -10.5396 -10.5373 -10.535 -10.5326 -10.5293 -10.5254 -10.5215 -10.5176 -10.5137 -10.5088 -10.5032 -10.4975 -10.4919 -10.4863 -10.4797 -10.4722 -10.4647 -10.4572 -10.4498 -10.4414 -10.4319 -10.4224 -10.413 -10.4032 -10.3927 -10.3817 -10.3701 -10.3586 -10.3463 -10.3336 -10.321 -10.3073 -10.2934 -10.2784 -10.2635 -10.2487 -10.2334 -10.2232 -10.2126 -10.2019 -10.1913 -10.1816 -10.175 -10.1683 -10.1616 -10.155 -10.148 -10.129 -10.1097 -10.0905 -10.0712 -10.0507 -10.0302 -10.0086 -9.9869 -9.96461 -9.94123 -9.91828 -9.89514 -9.87104 -9.84513 -9.81924 -9.7938 -9.76838 -9.74141 -9.71298 -9.68457 -9.65662 -9.62799 -9.59815 -9.568 -9.53707 -9.50643 -9.47402 -9.44164 -9.40928 -9.37671 -9.37114 -9.36531 -9.35948 -9.35365 -9.34791 -9.31925 -9.29061 -9.26199 -9.23339 -9.20332 -9.1675 -9.13074 -9.09395 -9.05601 -9.01713 -8.97886 -8.9406 -8.90089 -8.85965 -8.81841 -8.77776 -8.73634 -8.69367 -8.65097 -8.60747 -8.57935 -8.54995 -8.52054 -8.49115 -8.46329 -8.4477 -8.43211 -8.41653 -8.40092 -8.38464 -8.33859 -8.29216 -8.24575 -8.19857 -8.15029 -8.10243 -8.05458 -8.00558 -7.95546 -7.90533 -7.85558 -7.80478 -7.75341 -7.70205 -7.65052 -7.64203 -7.63334 -7.6246 -7.61586 -7.60722 -7.56336 -7.5195 -7.47566 -7.43158 -7.38659 -7.33282 -7.27907 -7.22485 -7.16975 -7.11464 -7.05957 -7.00396 -6.94789 -6.89183 -6.83573 -6.82946 -6.82312 -6.81675 -6.81037 -6.80404 -6.75365 -6.70326 -6.65288 -6.60227 -6.55121 -6.49361 -6.43601 -6.37814 -6.32017 -6.26218 -6.2224 -6.1825 -6.14251 -6.10252 -6.06378 -6.04506 -6.02634 -6.00761 -5.98887 -5.97011 -5.91108 -5.85236 -5.7937 -5.7351 -5.67648 -5.61828 -5.56019 -5.50222 -5.44425 -5.38846 -5.3872 -5.38594 -5.38469 -5.38343 -5.38218 -5.32347 -5.26479 -5.20611 -5.14759 -5.08931 -5.03065 -4.97198 -4.91373 -4.85624 -4.79874 -4.76135 -4.72424 -4.68731 -4.65037 -4.61391 -4.59346 -4.57301 -4.55256 -4.53219 -4.51201 -4.45479 -4.39833 -4.34187 -4.28613 -4.23057 -4.17464 -4.11884 -4.06397 -4.00922 -3.95514 -3.93398 -3.91312 -3.89242 -3.87172 -3.85109 -3.81815 -3.78521 -3.75226 -3.71953 -3.68732 -3.63428 -3.5816 -3.52956 -3.47875 -3.42794 -3.37677 -3.32611 -3.27635 -3.22659 -3.17748 -3.16463 -3.15205 -3.13959 -3.12712 -3.11463 -3.0789 -3.04317 -3.00744 -2.97196 -2.93733 -2.89011 -2.84311 -2.79706 -2.75235 -2.70765 -2.66263 -2.61818 -2.57474 -2.5313 -2.48864 -2.47432 -2.46041 -2.44663 -2.43285 -2.41895 -2.39115 -2.36334 -2.33554 -2.3079 -2.28115 -2.24064 -2.2007 -2.16116 -2.12306 -2.08511 -2.04692 -2.00881 -1.97219 -1.93602 -1.90034 -1.87472 -1.85005 -1.82554 -1.80102 -1.77576 -1.76592 -1.75608 -1.74624 -1.73642 -1.72701 -1.69388 -1.66121 -1.62855 -1.59639 -1.56524 -1.5339 -1.50257 -1.47238 -1.44334 -1.41432 -1.38514 -1.35653 -1.32874 -1.30095 -1.27396 -1.25823 -1.24325 -1.22828 -1.21331 -1.19779 -1.18692 -1.17606 -1.1652 -1.15434 -1.14397 -1.11929 -1.09505 -1.07081 -1.04695 -1.02395 -1.00088 -0.97782 -0.955637 -0.934399 -0.913179 -0.891903 -0.870717 -0.850528 -0.83072 -0.81117 -0.791578 -0.772945 -0.754372 -0.735803 -0.717428 -0.712943 -0.708657 -0.704371 -0.700086 -0.695711 -0.682782 -0.669856 -0.656933 -0.644014 -0.631618 -0.615373 -0.599517 -0.583667 -0.568094 -0.553101 -0.538154 -0.523265 -0.508794 -0.495067 -0.48135 -0.46769 -0.454032 -0.440985 -0.428446 -0.415916 -0.403452 -0.3913 -0.379518 -0.367802 -0.356375 -0.345107 -0.334387 -0.323671 -0.312957 -0.302337 -0.298999 -0.295787 -0.292575 -0.289364 -0.286056 -0.279492 -0.27293 -0.266369 -0.25981 -0.253466 -0.244459 -0.235562 -0.226669 -0.217778 -0.209383 -0.201175 -0.193108 -0.185088 -0.177326 -0.169803 -0.162453 -0.155111 -0.147903 -0.14109 -0.134281 -0.127645 -0.121009 -0.114767 -0.108855 -0.102945 -0.0972053 -0.0914595 -0.0856592 -0.0796208 -0.0734961 -0.067506 -0.0626293 -0.0584375 -0.0543506 -0.0512048 -0.0475489 -0.0391277 -0.0307096 -0.0222945 -0.0117737 -0.00631662 -0.00535616 -0.00439372 -0.00342931 -0.00243621 -0.00171318 -0.000990341 -0.000267677 0.000454808 0