/*--------------------------------*- C++ -*----------------------------------*\
| =========                 |                                                 |
| \\      /  F ield         | OpenFOAM: The Open Source CFD Toolbox           |
|  \\    /   O peration     | Version:  4.1                                   |
|   \\  /    A nd           | Web:      www.OpenFOAM.org                      |
|    \\/     M anipulation  |                                                 |
\*---------------------------------------------------------------------------*/
FoamFile
{
    version     2.0;
    format      ascii;
    class       volScalarField;
    location    "29";
    object      p;
}
// * * * * * * * * * * * * * * * * * * * * * * * * * * * * * * * * * * * * * //

dimensions      [0 2 -2 0 0 0 0];

internalField   nonuniform List<scalar> 
26785
(
719.673
735.233
763.922
791.855
818.382
849.327
883.037
932.838
970.132
1004.1
1029.81
1052.16
1082.17
1128.3
1184.51
1240.44
1248.6
1168.93
1039.13
927.342
864.497
840.561
842.36
851.668
862.641
860.513
845.269
902.063
1079.57
1264.03
1295.39
1215.51
1105.07
1000.7
914.337
846.502
792.259
748.963
714.619
686.113
660.884
647.858
642.746
631.935
617.736
603.414
594.332
592.864
596.452
598.645
599.947
598.159
597.496
596.724
595.122
592.08
587.915
582.548
576.103
568.466
559.961
550.827
541.353
531.912
522.743
514.284
506.435
499.355
492.563
486.178
479.436
472.237
463.624
453.316
440.348
424.854
406.498
386.203
364.07
341.196
317.677
294.443
271.365
249.091
227.375
206.69
186.729
167.826
149.715
132.68
116.506
101.388
87.1158
73.7624
61.0798
49.0566
37.4417
26.3811
15.2724
6.06559
719.557
734.899
763.683
791.422
817.734
848.568
882.115
931.89
968.813
1002.54
1027.6
1049.16
1078.01
1123.26
1178.58
1234.46
1242.69
1161.88
1033.03
923.616
861.761
838.399
841.099
850.428
860.232
852.242
829.909
881.292
1060.12
1247.13
1283.1
1207.5
1100.09
997.508
912.056
844.782
790.946
747.904
713.637
685.45
660.66
646.962
641.651
631.622
617.552
603.365
594.42
592.812
596.078
598.154
598.965
596.911
596.445
596.014
594.706
591.809
587.753
582.491
576.133
568.562
560.107
551.007
541.547
532.104
522.93
514.47
506.63
499.562
492.783
486.412
479.692
472.52
463.935
453.631
440.635
425.072
406.625
386.23
364.006
341.059
317.488
294.218
271.12
248.836
227.122
206.444
186.493
167.6
149.498
132.47
116.305
101.199
86.9451
73.6138
60.9538
48.9496
37.3489
26.2982
15.2267
5.98899
719.837
734.957
763.926
791.406
817.47
848.261
881.836
931.623
968.173
1001.67
1026.17
1046.87
1074.45
1118.18
1172
1226.72
1234.8
1153.23
1026.7
918.99
858.323
836.17
840.589
849.484
856.915
841.794
811.526
855.817
1035.46
1225.65
1266.8
1196.24
1092.78
992.755
908.796
842.484
789.204
746.478
712.249
684.546
660.201
645.845
640.194
631
617.327
603.426
594.643
592.737
595.584
597.303
597.596
595.292
595.228
595.308
594.361
591.605
587.637
582.475
576.212
568.716
560.319
551.258
541.813
532.36
523.174
514.719
506.905
499.87
493.124
486.788
480.116
473.001
464.467
454.171
441.116
425.423
406.802
386.222
363.834
340.759
317.098
293.773
270.645
248.353
226.646
205.987
186.061
167.193
149.111
132.101
115.955
100.876
86.6576
73.368
60.7492
48.7782
37.2013
26.1687
15.1473
5.90314
720.111
734.939
764.056
791.144
816.854
847.687
881.343
931.224
967.442
1000.71
1024.72
1044.47
1070.62
1112.4
1164.2
1216.86
1224.68
1142.44
1018.3
912.666
853.815
833.1
839.848
849.025
853.748
833.13
792.878
827.252
1004.71
1199.58
1246.12
1181.21
1082.51
985.8
903.959
839.06
786.68
744.402
710.302
683.261
659.134
644.395
638.369
630.007
617.008
603.482
594.773
592.461
594.858
596.103
595.831
593.305
593.731
594.393
593.804
591.153
587.241
582.181
576.033
568.638
560.329
551.338
541.93
532.485
523.307
514.883
507.125
500.152
493.46
487.184
480.588
473.564
465.112
454.831
441.695
425.817
406.949
386.114
363.502
340.255
316.477
293.084
269.924
247.627
225.937
205.312
185.428
166.601
148.556
131.575
115.461
100.423
86.2573
73.0275
60.4671
48.5422
36.9972
25.9901
15.0184
5.81098
720.338
734.714
764.02
790.694
816.128
847.029
880.837
930.853
966.773
999.791
1023.37
1042.11
1066.75
1106.35
1155.6
1205.61
1213.11
1130.18
1008.5
906.043
848.557
829.064
838.587
849.724
852.138
827.22
775.424
797.786
969.807
1170.55
1222.7
1163.89
1070.4
977.436
898.028
834.786
783.689
742.002
708.157
681.649
657.513
642.623
636.35
628.778
616.529
603.346
594.605
591.829
593.787
594.557
593.737
591.032
592.015
593.299
593.077
590.514
586.645
581.695
575.681
568.412
560.219
551.326
541.98
532.556
523.403
515.033
507.359
500.475
493.861
487.665
481.173
474.271
465.921
455.655
442.404
426.283
407.102
385.948
363.063
339.612
315.702
292.234
269.044
246.75
225.087
204.509
184.683
165.913
147.919
130.98
114.905
99.918
85.8162
72.6575
60.1644
48.2909
36.779
25.8004
14.8715
5.74501
720.56
734.321
763.837
790.058
815.302
846.216
880.219
930.474
966.072
998.849
1022.04
1039.72
1062.71
1099.85
1146.12
1193.16
1200.12
1116.2
997.387
899.079
842.328
824.05
836.642
851.137
851.949
822.57
759.017
768.652
932.261
1138.46
1196.47
1144.06
1056.19
967.436
890.802
829.488
780.026
739.212
705.831
679.659
655.511
640.635
634.295
627.426
615.903
603.041
594.211
590.917
592.435
592.722
591.351
588.545
590.151
592.067
592.183
589.667
585.825
580.991
575.13
568.009
559.96
551.193
541.93
532.544
523.434
515.144
507.577
500.798
494.269
488.167
481.798
475.042
466.817
456.562
443.166
426.749
407.194
385.666
362.469
338.789
314.734
291.189
267.975
245.692
224.069
203.552
183.801
165.105
147.178
130.291
114.264
99.3366
85.3101
72.2335
59.818
48.003
36.5287
25.583
14.6939
5.67852
720.719
733.825
763.505
789.275
814.401
845.325
879.528
930.052
965.337
997.87
1020.74
1037.4
1058.76
1093.3
1136.28
1180.18
1186.17
1101.31
985.575
891.516
835.642
818.489
834.062
852.663
853.278
818.826
744.521
741.679
894.81
1104.81
1168.76
1122.77
1040.67
956.461
882.862
823.595
775.876
736.028
703.201
677.213
653.137
638.422
632.065
625.746
614.889
602.323
593.378
589.59
590.721
590.553
588.702
585.872
588.129
590.656
591.084
588.599
584.784
580.081
574.393
567.442
559.556
550.938
541.777
532.44
523.388
515.2
507.762
501.104
494.673
488.677
482.454
475.872
467.787
457.537
443.961
427.196
407.214
385.271
361.736
337.816
313.616
290.001
266.772
244.514
222.944
202.503
182.843
164.235
146.388
129.564
113.591
98.7292
84.7851
71.7975
59.4642
47.71
36.2738
25.3626
14.5193
5.61924
720.892
733.307
763.033
788.315
813.349
844.275
878.682
929.566
964.518
996.819
1019.42
1035.07
1054.7
1086.46
1125.84
1166.31
1170.69
1085.46
972.873
882.933
828.473
811.997
830.386
853.448
855.249
815.004
731.108
717.193
858.415
1069.58
1139.27
1099.65
1023.51
944.167
873.974
816.905
771.141
732.405
700.212
674.398
650.516
636.133
629.804
623.91
613.669
601.397
592.348
588.064
588.824
588.202
585.903
583.134
586.056
589.158
589.846
587.355
583.567
579.005
573.509
566.748
559.045
550.598
541.55
532.273
523.298
515.232
507.937
501.402
495.063
489.178
483.116
476.733
468.806
458.555
444.765
427.602
407.145
384.752
360.857
336.688
312.342
288.663
265.431
243.209
221.707
201.354
181.798
163.294
145.541
128.791
112.879
98.0876
84.2335
71.3427
59.0996
47.4112
36.0169
25.1422
14.3541
5.55057
721.049
732.705
762.391
787.213
812.171
843.166
877.777
929.049
963.685
995.784
1018.22
1033.09
1051.15
1080.07
1115.53
1152.33
1154.74
1069.31
960.058
873.517
821.334
805.082
825.899
853.234
857.505
811.429
719.217
695.522
824.481
1034.3
1109.32
1075.8
1005.51
931.157
864.606
810.069
766.023
728.405
696.793
671.104
647.522
633.633
627.322
621.723
612.047
600.049
590.896
586.164
586.612
585.576
582.916
580.277
583.846
587.477
588.387
585.886
582.139
577.739
572.455
565.901
558.392
550.129
541.211
532.001
523.116
515.193
508.058
501.652
495.411
489.647
483.771
477.612
469.855
459.59
445.546
427.936
406.964
384.096
359.833
335.419
310.937
287.207
263.985
241.817
220.396
200.145
180.706
162.32
144.673
128.007
112.162
97.4427
83.6813
70.8913
58.7405
47.1179
35.7645
24.9256
14.2031
5.47779
721.249
732.094
761.577
785.951
810.823
841.911
876.781
928.563
962.799
994.734
1017.07
1031.41
1047.9
1073.97
1105.22
1138.52
1139.43
1052.39
946.707
863.19
813.883
797.657
820.116
851.313
858.741
807.419
707.904
675.818
793.01
998.912
1078.43
1050.77
986.287
917.018
854.478
802.709
760.437
724.071
693.059
667.499
644.318
631.058
624.781
619.375
610.224
598.495
589.282
584.131
584.296
582.854
579.868
577.422
581.613
585.721
586.794
584.258
580.563
576.34
571.285
564.958
557.656
549.594
540.81
531.678
522.904
515.145
508.173
501.888
495.729
490.088
484.414
478.501
470.925
460.632
446.293
428.189
406.664
383.302
358.663
334.008
309.4
285.63
262.43
240.328
219.004
198.868
179.56
161.307
143.779
127.208
111.436
96.7881
83.123
70.4398
58.3878
46.8353
35.5257
24.7247
14.0711
5.40509
721.434
731.409
760.619
784.621
809.395
840.645
875.821
928.158
961.987
993.748
1015.95
1030.01
1045.03
1068.45
1095.27
1125.19
1125.87
1036.41
933.009
852.439
806.61
790.008
812.87
847.724
858.89
803.565
697.644
657.815
764.646
964.887
1047.9
1025.61
966.65
902.421
844.058
795.126
754.689
719.523
689.003
663.496
640.756
628.213
621.946
616.636
607.981
596.512
587.261
581.769
581.712
579.914
576.683
574.465
579.229
583.765
584.965
582.408
578.792
574.771
569.962
563.878
556.795
548.937
540.296
531.247
522.601
515.027
508.227
502.061
495.985
490.478
485.03
479.383
471.987
461.641
446.961
428.316
406.212
382.349
357.343
332.462
307.745
283.953
260.792
238.773
217.56
197.553
178.388
160.281
142.885
126.42
110.722
96.1435
82.5743
70.0005
58.0491
46.5666
35.2996
24.5361
13.9537
5.34146
721.625
730.725
759.563
783.215
807.846
839.233
874.796
927.794
961.181
992.809
1014.81
1028.61
1042.27
1063.21
1085.29
1110.26
1110.93
1022.32
918.731
841.274
799.468
781.724
804.223
842.1
856.976
799.377
688.068
641.379
738.922
931.998
1017.24
999.821
946.246
887.067
832.877
787.073
748.7
714.806
684.751
659.306
637.054
625.27
619.015
613.72
605.532
594.326
585.119
579.349
579.112
576.971
573.511
571.551
576.838
581.745
583.012
580.423
576.903
573.098
568.55
562.727
555.877
548.231
539.731
530.775
522.282
514.909
508.277
502.211
496.197
490.824
485.617
480.249
473.03
462.604
447.537
428.312
405.608
381.245
355.883
330.793
305.98
282.18
259.07
237.148
216.061
196.197
177.19
159.245
141.996
125.646
110.023
95.5101
82.0389
69.5812
57.7374
46.3292
35.1071
24.3846
13.8667
5.29732
721.766
729.997
758.431
781.78
806.257
837.813
873.801
927.455
960.451
991.987
1013.84
1027.3
1039.67
1058.43
1075.91
1095.86
1096.6
1008.66
905.579
831.382
793.686
773.865
794.98
834.686
853.257
795.521
680.094
627.128
716.075
901.41
987.618
974.348
925.887
871.623
821.453
778.969
742.529
709.951
680.261
654.813
633.049
622.025
615.757
610.411
602.672
591.722
582.609
576.666
576.31
573.881
570.245
568.538
574.282
579.516
580.818
578.225
574.838
571.274
567.002
561.455
554.848
547.41
539.054
530.196
521.873
514.721
508.262
502.288
496.334
491.105
486.156
481.071
474.01
463.466
447.968
428.134
404.827
379.979
354.286
329.013
304.128
280.337
257.294
235.484
214.538
194.83
175.993
158.224
141.134
124.906
109.356
94.903
81.5283
69.189
57.4536
46.1173
34.9374
24.2567
13.7979
5.27312
721.916
729.328
757.24
780.288
804.516
836.173
872.636
927.009
959.647
991.063
1012.72
1025.67
1036.82
1053.62
1066.75
1081.13
1081.65
993.971
892.658
821.984
788.647
766.314
785.332
825.289
846.853
791.389
673.745
615.768
696.153
872.803
958.508
948.719
905.128
855.682
809.59
770.832
736.102
704.926
675.672
650.259
629.007
618.714
612.416
606.954
599.633
588.959
580.035
574.004
573.581
570.884
567.062
565.606
571.742
577.241
578.521
575.922
572.687
569.375
565.394
560.135
553.785
546.561
538.339
529.586
521.458
514.542
508.241
502.335
496.415
491.328
486.641
481.834
474.911
464.215
448.251
427.793
403.89
378.581
352.583
327.15
302.207
278.437
255.471
233.787
212.995
193.459
174.803
157.224
140.307
124.208
108.727
94.327
81.0503
68.8362
57.2155
45.9511
34.8141
24.1813
13.7692
5.27707
722.005
728.594
756.031
778.748
802.701
834.481
871.454
926.549
958.895
990.163
1011.59
1023.94
1034.08
1049.4
1059.13
1068.09
1067.55
980.93
880.01
811.995
783.614
759.146
775.629
814.687
838.349
787.311
669.547
608.077
679.887
847.15
930.944
923.805
884.707
839.877
797.901
762.619
729.591
699.834
670.897
645.473
624.717
615.109
608.745
603.145
596.22
585.846
577.134
571.125
570.692
567.79
563.815
562.571
569.03
574.754
575.987
573.424
570.378
567.344
563.667
558.709
552.624
545.605
537.514
528.867
520.949
514.291
508.153
502.301
496.409
491.467
487.045
482.496
475.677
464.79
448.335
427.257
402.787
377.054
350.788
325.222
300.241
276.506
253.632
232.086
211.463
192.108
173.644
156.265
139.53
123.563
108.145
93.7903
80.6091
68.5218
57.0135
45.8139
34.7166
24.136
13.7626
5.30059
722.127
727.801
754.774
777.134
800.682
832.507
870.042
925.933
958.086
989.165
1010.3
1022.03
1031.09
1045.16
1052.08
1055.41
1053.59
967.933
867.507
800.613
777.033
750.921
765.114
802.747
827.461
782.268
667.154
605.182
667.514
824.051
904.368
899.187
864.24
823.871
786.091
754.057
723.122
694.697
666.028
640.672
620.452
611.475
605.016
599.238
592.693
582.654
574.235
568.331
567.939
564.856
560.701
559.647
566.363
572.246
573.379
570.856
568.017
565.266
561.906
557.261
551.451
544.643
536.663
528.124
520.445
514.055
508.06
502.231
496.336
491.53
487.358
483.04
476.295
465.187
448.234
426.561
401.56
375.444
348.942
323.264
298.255
274.564
251.789
230.393
209.95
190.788
172.524
155.355
138.811
122.978
107.619
93.3031
80.2164
68.2633
56.8702
45.7319
34.6782
24.1577
13.8088
5.34912
722.196
726.899
753.463
775.432
798.553
830.451
868.561
925.228
957.3
988.172
1009.01
1020.15
1028.15
1041.1
1045.71
1043.83
1039.91
956.134
856.405
791.562
770.109
742.135
754.387
790.183
815.087
776.732
667.192
606.434
659.357
804.166
879.579
875.557
844.406
808.3
774.657
745.729
717.259
689.533
660.939
635.654
615.968
607.57
600.985
595.035
588.881
579.19
571.076
565.366
565.047
561.845
557.528
556.611
563.519
569.529
570.549
568.112
565.515
563.07
560.042
555.722
550.196
543.581
535.699
527.267
519.842
513.748
507.899
502.078
496.165
491.485
487.541
483.414
476.7
465.347
447.907
425.68
400.203
373.753
347.054
321.289
296.269
272.633
249.967
228.732
208.48
189.518
171.458
154.505
138.159
122.457
107.151
92.868
79.8687
68.0504
56.7676
45.6837
34.6744
24.2176
13.886
5.40845
722.319
725.947
752.138
773.612
796.188
828.06
866.785
924.276
956.449
987.044
1007.55
1018.14
1025.06
1036.97
1039.74
1033
1026.82
944.954
845.477
783.762
764.794
733.31
743.179
776.709
801.284
769.477
668.702
609.97
655.051
786.893
855.975
852.513
824.849
792.918
763.278
737.372
711.324
684.402
655.939
630.766
611.607
603.705
596.951
590.793
585.03
575.726
567.999
562.537
562.333
559.032
554.521
553.713
560.752
566.825
567.684
565.336
562.991
560.853
558.167
554.188
548.956
542.536
534.72
526.392
519.255
513.463
507.735
501.883
495.914
491.34
487.585
483.604
476.885
465.281
447.388
424.668
398.772
372.035
345.17
319.337
294.313
270.736
248.183
227.115
207.062
188.31
170.456
153.723
137.583
122.01
106.751
92.4968
79.5828
67.9049
56.7348
45.7044
34.7456
24.3561
14.0259
5.48483
722.417
724.895
750.734
771.66
793.667
825.573
864.929
923.248
955.591
985.925
1006.1
1016.19
1022.04
1032.93
1034.17
1023.07
1013.89
934.609
836.256
776.665
759.496
724.856
732.049
762.952
787.332
761.308
670.292
614.928
654.23
772.551
834.218
830.543
806.098
778.299
752.328
729.421
705.663
679.256
650.938
625.772
607.068
599.59
592.642
586.301
580.951
572.052
564.735
559.567
559.478
556.136
551.451
550.695
557.813
563.925
564.623
562.404
560.334
558.526
556.201
552.578
547.651
541.398
533.626
525.397
518.566
513.105
507.496
501.592
495.544
491.051
487.443
483.553
476.789
464.937
446.646
423.505
397.261
370.29
343.297
317.414
292.398
268.886
246.454
225.558
205.709
187.169
169.521
153.01
137.078
121.627
106.406
92.176
79.3454
67.8058
56.7405
45.7573
34.8515
24.5286
14.1912
5.56018
722.608
723.847
749.269
769.497
790.86
822.705
862.69
922.023
954.635
984.644
1004.46
1014.1
1018.89
1028.73
1028.77
1013.69
1001.3
925.033
827.763
770.391
754.038
716.131
720.592
748.614
773.077
752.611
670.654
620.981
655.907
760.261
813.72
809.396
787.899
764.186
741.676
721.587
700.225
674.174
646.159
620.979
602.688
595.561
588.382
581.828
576.912
568.465
561.634
556.778
556.826
553.456
548.568
547.847
554.992
561.082
561.584
559.477
557.678
556.198
554.244
550.999
546.389
540.306
532.538
524.397
517.904
512.769
507.243
501.243
495.07
490.63
487.114
483.263
476.427
464.352
445.737
422.26
395.734
368.579
341.483
315.564
290.557
267.109
244.796
224.072
204.43
186.102
168.661
152.373
136.65
121.317
106.12
91.9136
79.1775
67.7785
56.8133
45.8752
35.0281
24.7687
14.4058
5.63991
722.8
722.758
747.716
767.158
787.889
819.7
860.321
920.712
953.674
983.361
1002.8
1012.05
1015.81
1024.58
1023.66
1005.27
989.948
916.426
820.445
764.657
748.689
708.033
709.35
734.267
758.451
744.005
670.475
627.665
659.243
750.023
794.952
789.492
770.578
750.937
731.71
714.199
695.105
669.278
641.405
616.081
598.134
591.312
583.9
577.184
572.731
564.754
558.399
553.868
554.028
550.675
545.612
544.875
552.008
558.064
558.376
556.412
554.907
553.774
552.207
549.354
545.076
539.129
531.346
523.286
517.148
512.347
506.891
500.771
494.445
490.029
486.549
482.683
475.749
463.492
444.642
420.919
394.184
366.892
339.724
313.78
288.786
265.403
243.21
222.658
203.22
185.104
167.869
151.801
136.28
121.052
105.865
91.6866
79.0533
67.7882
56.9059
46.0059
35.2163
25.0132
14.62
5.70252
723.093
721.714
746.114
764.599
784.597
816.24
857.497
919.181
952.6
981.997
1000.91
1009.85
1012.58
1020.23
1018.55
997.215
978.835
908.698
813.641
758.734
742.916
700.844
698.139
719.732
743.362
735.086
670.398
634.819
663.142
740.95
777.213
770.558
754.119
738.278
722.208
707.39
689.949
664.757
636.907
611.394
593.774
587.211
579.536
572.634
568.678
561.223
555.396
551.181
551.456
548.125
542.869
542.11
549.187
555.148
555.234
553.387
552.167
551.376
550.198
547.759
543.829
538.017
530.206
522.221
516.451
511.944
506.501
500.219
493.691
489.278
485.772
481.845
474.808
462.429
443.443
419.563
392.678
365.289
338.066
312.102
287.116
263.792
241.711
221.325
202.085
184.181
167.156
151.303
135.975
120.844
105.658
91.5145
78.9998
67.8639
57.0505
46.1841
35.4522
25.2925
14.8559
5.75672
723.368
720.641
744.397
761.879
781.14
812.621
854.507
917.559
951.502
980.652
998.993
1007.68
1009.43
1015.97
1013.66
989.997
968.719
901.833
807.672
752.463
735.97
693.864
687.082
705.524
728.706
726.354
671.199
642.758
667.342
733.129
761.004
753.101
738.971
726.484
713.427
701.287
684.918
660.515
632.413
606.572
589.246
582.922
575.005
567.984
564.559
557.636
552.294
548.382
548.727
545.458
540.047
539.222
546.212
552.072
551.938
550.233
549.319
548.888
548.111
546.109
542.531
536.803
528.977
521.085
515.687
511.439
505.978
499.516
492.779
488.325
484.744
480.722
473.584
461.15
442.129
418.172
391.193
363.74
336.48
310.499
285.52
262.253
240.282
220.059
201.012
183.318
166.505
150.859
135.713
120.663
105.474
91.3731
78.9819
67.9608
57.1924
46.3515
35.6727
25.5426
15.0625
5.78818
723.776
719.638
742.61
758.944
777.357
808.464
850.99
915.682
950.296
979.235
996.804
1005.36
1006.16
1011.53
1008.66
983.133
959.182
895.652
801.875
745.797
727.49
685.001
674.963
691.19
714.474
718.024
672.913
651.752
672
725.924
745.725
736.743
724.804
715.435
705.119
695.067
680.242
656.572
628.123
601.937
584.927
578.839
570.66
563.494
560.65
554.31
549.478
545.833
546.235
543.024
537.457
536.582
543.446
549.135
548.741
547.143
546.527
546.447
546.067
544.538
541.314
535.658
527.829
520.052
515.023
510.952
505.404
498.735
491.782
487.237
483.53
479.395
472.175
459.762
440.793
416.825
389.788
362.294
335.005
309.006
284.026
260.807
238.938
218.87
200.011
182.529
165.932
150.494
135.516
120.534
105.34
91.292
79.0346
68.1168
57.374
46.5543
35.9267
25.8057
15.27
5.82081
724.17
718.61
740.686
755.867
773.391
804.117
847.283
913.698
949.058
977.855
994.618
1003.06
1003.02
1007.11
1003.78
977.181
949.246
889.622
796.507
739.249
718.806
674.929
662.456
677.132
701.189
710.599
675.523
662.182
677.013
719.6
731.812
721.771
711.894
705.276
697.295
689.016
676.015
652.695
623.688
597.111
580.43
574.594
566.203
558.981
556.756
551
546.59
543.176
543.565
540.444
534.766
533.808
540.535
546.039
545.391
543.918
543.621
543.911
543.94
542.916
540.033
534.377
526.581
518.978
514.315
510.347
504.678
497.797
490.661
485.967
482.113
477.864
470.586
458.26
439.416
415.482
388.416
360.897
333.589
307.569
282.586
259.413
237.645
217.73
199.058
181.788
165.414
150.181
135.351
120.418
105.226
91.2422
79.1157
68.2818
57.5394
46.734
36.15
26.0224
15.4311
5.85139
724.718
717.668
738.672
752.616
769.077
799.182
843.004
911.418
947.693
976.42
992.301
1000.59
999.74
1002.43
998.72
971.809
939.109
883.511
791.032
732.711
710.894
666.24
650
663.352
688.724
704.189
678.659
673.367
682.379
713.56
718.701
708.016
700.044
695.762
689.767
683.103
671.916
648.85
619.29
592.409
576.128
570.586
561.986
554.693
553.143
548.024
544.033
540.796
541.137
538.093
532.296
531.286
537.862
543.099
542.157
540.769
540.788
541.432
541.867
541.385
538.864
533.184
525.422
518.037
513.714
509.753
503.92
496.819
489.52
484.635
480.613
476.263
468.96
456.774
438.098
414.217
387.129
359.593
332.267
306.22
281.224
258.09
236.416
216.652
198.168
181.114
164.972
149.945
135.243
120.347
105.171
91.2602
79.266
68.4964
57.7334
46.9384
36.3891
26.2383
15.5854
5.91163
725.212
716.718
736.473
749.265
764.617
794.034
838.541
909.017
946.284
975.023
990.011
998.17
996.489
997.804
993.71
967.3
932.288
878.917
785.094
726.421
703.519
657.877
638.437
650.556
677.518
699.008
682.497
684.775
687.442
708.046
706.848
695.715
689.369
686.983
682.62
677.436
667.869
644.802
614.563
587.423
571.598
566.395
557.675
550.434
549.605
545.105
541.392
538.292
538.504
535.556
529.656
528.576
535.025
539.979
538.757
537.464
537.819
538.834
539.706
539.764
537.617
531.862
524.137
517.022
513.017
509.001
503.019
495.745
488.322
483.214
479.031
474.608
467.31
455.298
436.802
412.969
385.862
358.313
330.97
304.894
279.883
256.786
235.21
215.599
197.308
180.472
164.568
149.741
135.144
120.282
105.136
91.3034
79.4298
68.6957
57.8908
47.101
36.5749
26.396
15.6887
5.98856
725.85
715.881
734.135
745.803
759.85
788.236
833.453
906.259
944.723
973.604
987.649
995.611
993.075
993.063
988.472
963.211
923.337
873.161
778.884
720.047
697.074
650.114
627.549
638.768
667.444
695.092
686.742
695.42
691.911
702.483
695.704
684.553
679.608
678.688
675.642
671.646
663.597
640.571
609.718
582.461
567.195
562.409
553.619
546.429
546.396
542.559
539.086
536.13
536.138
533.251
527.208
526.129
532.419
537.014
535.473
534.236
534.935
536.295
537.62
538.223
536.507
530.678
522.969
516.098
512.38
508.25
502.156
494.781
487.235
481.881
477.541
473.072
465.806
453.97
435.628
411.809
384.664
357.103
329.743
303.627
278.589
255.525
234.045
214.59
196.493
179.882
164.221
149.588
135.087
120.261
105.161
91.4063
79.6406
68.9163
58.0573
47.2693
36.757
26.5482
15.7908
6.09831
726.46
715.025
731.606
742.293
754.973
782.153
828.174
903.344
943.104
972.216
985.311
993.09
989.766
988.412
983.281
959.455
916.175
868.203
771.424
713.153
690.693
642.371
617.804
628.18
658.713
692.38
691.658
704.806
695.051
697.157
685.7
674.635
670.786
670.857
668.822
665.821
659.104
635.926
604.4
577.128
562.499
558.182
549.452
542.484
543.301
540.083
536.679
533.863
533.582
530.751
524.561
523.479
529.599
533.842
531.983
530.801
531.861
533.598
535.398
536.57
535.305
529.373
521.687
515.033
511.594
507.327
501.203
493.83
486.201
480.6
476.134
471.658
464.441
452.756
434.514
410.66
383.459
355.882
328.508
302.345
277.276
254.247
232.872
213.584
195.681
179.299
163.881
149.433
135.02
120.233
105.194
91.5122
79.824
69.0866
58.1707
47.383
36.8736
26.6429
15.8462
6.20313
727.248
714.268
728.938
738.771
749.844
775.323
822.206
899.994
941.318
970.808
982.896
990.508
986.381
983.555
977.907
955.702
909.021
862.378
763.505
704.939
684.883
634.947
608.91
618.582
651.114
690.629
697.601
712.788
696.968
691.545
676.247
665.584
662.472
663.194
661.952
659.67
654.172
630.944
598.877
571.756
557.873
554.116
545.522
538.797
540.554
537.98
534.587
531.951
531.318
528.514
522.102
521.094
526.981
530.82
528.589
527.422
528.862
530.934
533.205
535.058
534.321
528.296
520.562
514.092
510.874
506.454
500.387
493.118
485.426
479.577
474.996
470.541
463.378
451.782
433.549
409.591
382.299
354.703
327.312
301.09
275.976
252.978
231.715
212.603
194.894
178.739
163.57
149.305
134.988
120.244
105.279
91.6599
80.0149
69.2523
58.2851
47.494
36.9774
26.739
15.9086
6.30657
728.019
713.453
726.096
735.177
744.743
768.231
816.016
896.441
939.458
969.427
980.513
988.004
983.072
978.758
972.599
951.992
901.866
857.511
755.17
696.523
679.023
627.934
601.046
609.908
644.739
689.362
704.722
719.281
697.462
686.079
667.81
657.396
654.529
655.632
655.024
653.313
648.848
625.421
592.826
565.981
552.915
549.764
541.45
535.165
537.916
535.904
532.32
529.874
528.89
526.083
519.455
518.49
524.1
527.572
524.948
523.781
525.616
528.004
530.768
533.443
533.247
527.165
519.319
513.042
509.977
505.436
499.539
492.517
484.826
478.744
474.069
469.671
462.557
450.971
432.641
408.507
381.1
353.477
326.067
299.779
274.615
251.658
230.522
211.593
194.083
178.154
163.233
149.156
134.939
120.241
105.354
91.7834
80.1538
69.3616
58.3511
47.5521
37.0152
26.7869
15.9262
6.37722
728.997
712.725
723.219
731.422
739.534
760.405
809.063
892.351
937.424
968.034
978.139
985.505
979.675
973.738
967.101
947.902
892.953
853.603
748.036
689.988
673.315
620.87
594.263
602.16
639.564
688.696
712.914
724.424
696.849
680.191
659.719
649.565
646.506
647.887
647.906
646.615
642.975
619.501
586.584
560.164
547.992
545.547
537.604
531.76
535.593
534.133
530.298
528.174
526.875
523.969
517.071
516.204
521.44
524.473
521.391
520.173
522.489
525.041
528.316
532.02
532.404
526.306
518.27
512.185
509.164
504.572
498.95
492.299
484.622
478.291
473.506
469.176
462.096
450.42
431.864
407.473
379.918
352.261
324.825
298.46
273.234
250.32
229.323
210.579
193.272
177.577
162.909
149.028
134.928
120.273
105.454
91.9283
80.3019
69.4796
58.43
47.6102
37.0419
26.8476
15.9471
6.45188
729.965
711.942
720.226
727.285
734.455
752.308
801.86
888.011
935.288
966.656
975.82
983.075
976.335
968.765
961.659
943.65
885.733
850.38
742.177
685.673
666.72
612.978
589.044
595.348
635.779
688.554
721.6
727.948
695.052
674.437
652.475
642.092
638.452
640.029
640.63
639.801
636.601
613.01
579.876
553.977
542.725
541.006
533.581
528.386
533.32
532.299
528.065
526.311
524.758
521.698
514.541
513.705
518.567
521.116
517.54
516.208
519.129
521.761
525.563
530.462
531.372
525.334
517.102
511.228
508.221
503.674
498.42
492.254
484.645
478.063
473.159
468.914
461.855
449.995
431.097
406.377
378.655
350.957
323.485
297.043
271.758
248.904
228.061
209.505
192.411
176.967
162.557
148.875
134.897
120.279
105.514
92.0382
80.415
69.5664
58.4793
47.6264
37.0136
26.8713
15.9175
6.55168
731.232
711.327
717.198
722.662
729.128
743.502
793.838
883.076
932.953
965.275
973.529
980.658
972.972
963.573
956.025
938.624
876.485
849.189
738.773
683.607
659.404
604.608
585.374
589.322
633.312
688.935
731.122
730.117
692.408
668.325
645.329
634.426
630.308
632.039
633.092
632.643
629.688
606.154
573.14
547.812
537.482
536.577
529.772
525.212
531.272
530.658
526.022
524.82
523.134
519.782
512.301
511.538
515.943
517.883
513.752
512.205
515.838
518.517
522.911
529.132
530.492
524.569
516.193
510.524
507.52
503.098
498.276
492.658
485.106
478.22
473.128
468.945
461.893
449.76
430.4
405.282
377.372
349.626
322.113
295.592
270.25
247.461
226.772
208.409
191.543
176.376
162.237
148.758
134.903
120.308
105.588
92.1761
80.5565
69.681
58.5534
47.652
36.9879
26.9141
15.8783
6.74095
732.446
710.702
714.099
717.544
723.547
734.53
785.542
877.903
930.507
963.928
971.318
978.326
969.729
958.503
950.48
933.405
868.271
847.482
737.508
682.516
653.109
597.136
581.194
583.56
632.106
689.542
741.474
730.929
689.058
662.563
638.721
626.824
622.308
624.027
625.269
625.238
622.464
598.519
566.118
541.407
531.911
531.796
525.755
522.032
529.166
528.831
523.717
523.128
521.392
517.678
509.873
509.104
513.054
514.335
509.627
507.809
512.027
515.016
520.114
527.63
529.355
523.604
515.193
509.756
506.791
502.579
498.244
493.224
485.769
478.535
473.198
469.045
461.994
449.532
429.633
404.071
375.963
348.172
320.616
294.023
268.646
245.933
225.399
207.236
190.615
175.755
161.908
148.628
134.881
120.297
105.622
92.288
80.6773
69.7793
58.6118
47.6534
36.9292
26.9243
15.7845
7.01858
733.88
710.403
711.157
712.133
717.402
724.85
776.382
872.161
927.866
962.617
969.212
976.05
966.545
953.271
944.739
927.199
860.904
848.161
739.166
682.972
648.014
590.985
577.609
577.817
631.97
690.051
752.205
730.765
685.302
656.491
631.78
619.168
614.42
616.076
617.268
617.439
614.914
590.299
558.956
535.156
526.395
527.122
521.949
519.021
527.171
527.09
521.552
521.805
520.121
515.848
507.654
506.898
510.347
510.839
505.48
503.465
508.039
511.624
517.697
526.396
528.44
522.833
514.468
509.297
506.401
502.488
498.677
494.254
486.861
479.165
473.452
469.239
462.187
449.366
428.862
402.819
374.51
346.674
319.075
292.417
267.018
244.379
223.988
206.039
189.69
175.167
161.632
148.545
134.882
120.306
105.68
92.4326
80.828
69.9067
58.6995
47.6806
36.8925
26.9428
15.6739
7.34754
735.107
710.087
708.353
706.525
711.035
715.005
766.949
866.189
925.113
961.362
967.186
973.839
963.491
948.146
939.108
920.887
852.036
849.083
742.708
683.99
644.463
585.351
572.534
572.075
632.573
690.392
759.96
728.948
681.342
650.758
624.871
611.84
606.872
608.306
609.169
609.23
607.064
581.528
551.296
528.648
520.561
522.071
517.885
515.948
525.012
525.083
519.126
520.268
518.686
513.76
505.158
504.294
507.341
506.924
500.796
498.815
503.493
507.936
515.271
525.035
527.35
521.869
513.603
508.763
506.023
502.507
499.239
495.387
488.084
479.885
473.663
469.292
462.24
449.074
427.955
401.427
372.926
345.051
317.402
290.687
265.288
242.725
222.48
204.762
188.717
174.561
161.349
148.437
134.833
120.269
105.702
92.5457