/*--------------------------------*- C++ -*----------------------------------*\
| =========                 |                                                 |
| \\      /  F ield         | OpenFOAM: The Open Source CFD Toolbox           |
|  \\    /   O peration     | Version:  4.1                                   |
|   \\  /    A nd           | Web:      www.OpenFOAM.org                      |
|    \\/     M anipulation  |                                                 |
\*---------------------------------------------------------------------------*/
FoamFile
{
    version     2.0;
    format      ascii;
    class       surfaceScalarField;
    location    "29";
    object      phi;
}
// * * * * * * * * * * * * * * * * * * * * * * * * * * * * * * * * * * * * * //

dimensions      [0 3 -1 0 0 0 0];

internalField   nonuniform List<scalar> 
52920
(
-3788.03
87.184
-4230.75
102.531
-4342.18
263.269
-4586.94
238.538
-4157.56
94.4664
-4223.15
-81.0499
-3904.59
56.233
-3939.4
47.2553
-3588.77
47.5511
-3423.58
9.74147
-3043.69
124.082
-3001.21
327.041
-2680.75
410.258
-2960.04
331.284
-2649.84
-6.04393
-729.771
-1586.33
3079.82
-3362.49
4823.01
-1857.59
5505.81
-517.796
5020.86
630.367
3708.97
1512.57
2709.99
1324
2402.93
642.909
2301.23
330.18
2867.43
-763.373
4101.28
-94.5722
690.114
4030.06
-4696.04
5231.78
-5453.52
664.826
-1702.32
-3331.11
3303.69
-4556.67
6454.94
-3011.6
8070.58
-1473.83
8935.54
-685.827
9537.8
-419.3
9941.81
-298.593
10297.6
-255.15
10641.4
-231.496
10956.5
-207.328
11247.2
-182.8
11515.5
-168.101
11799.7
-168
12081.5
-174.197
12366.8
-177.143
12633.6
-178.701
12887.9
-136.651
13146.8
-67.2258
13282
-64.121
13601.7
-149.394
13842.5
-217.583
14116.6
-95.6766
13878.8
225.395
13579.1
498.964
12983.5
589.435
12629.1
518.972
12230.3
372.485
12263.8
116.64
12357.2
-132.733
12750.2
-286.902
13036.5
-338.781
13450.5
-334.268
13706.2
-303.212
14024.7
-266.267
14203.8
-228.712
14438.7
-196.865
14564.5
-170.669
14741.9
-155.219
14844.2
-146.422
15003.2
-146.153
15118
-154.006
15302.8
-182.177
15507.8
-242.763
15848.8
-340.651
16276.6
-459.334
16844.3
-571.959
17473
-653.943
18162.9
-698.253
18854.2
-711.254
19550
-704.187
20223
-687.516
20883.7
-667.452
21521.9
-648.257
22147.8
-630.924
22757
-616.385
23357.6
-604.01
23946
-593.583
24528.2
-584.323
25100
-575.667
25665.9
-567.036
26220.8
-557.938
26768.6
-548.161
27303.6
-537.415
27829.9
-525.923
28341.8
-513.65
28843.5
-501.056
29330.4
-488.3
29807.4
-476.205
30270.4
-463.998
30731.5
-460.249
-440.891
-3674.12
262.113
-4154.3
387.118
-4281.94
682.254
-4570.6
668.328
-4063.47
327.285
-4162.66
36.5104
-3833.87
246.353
-3918.91
277.279
-3538.91
224.859
-3383.11
146.263
-2987.88
307.22
-2924.47
660.981
-2558.79
772.849
-2851.35
627.566
-2457.46
-162.803
-610.472
-3271.98
2245.23
-6056.71
4156.28
-4071.94
4991.47
-1501.24
4755.2
693.388
3971.5
2183.85
2975.22
2461.69
2276.12
1621.41
2242.16
599.638
3021.52
-1686.1
3214.89
559.327
-770.406
8343.52
-3998.59
8207.59
-5101.46
1403.87
-1214.74
-7014.89
2878.64
-8535.16
5867.37
-6074.96
7698.02
-3309.01
8810.78
-1730.06
9578.72
-1090.33
10108.1
-800.746
10555.9
-661.472
10968.8
-571.033
11338
-495.727
11672.4
-429.249
11981.2
-390.843
12298.6
-376.909
12602.9
-373.63
12893.8
-357.661
13151.7
-341.577
13421.9
-279.438
13763.7
-204.344
14009.3
-218.245
14328.8
-280.148
14406.2
-250.778
14476.4
28.5699
14181.7
538.089
13972.9
936.721
13557.2
1061.23
13377
923.6
13124.9
659.011
13211.8
226.262
13328.4
-225.463
13712.4
-511.533
14002.4
-618.84
14417
-616.798
14690.5
-567.621
15026.4
-502.048
15235.6
-437.553
15498.1
-380.338
15660.4
-335.946
15870.4
-308.767
16010.4
-296
16201.3
-297.064
16349.3
-314.484
16558.3
-369.771
16782.4
-486.252
17127.6
-673.149
17550.5
-900.521
18101
-1117.6
18708.5
-1277.5
19374.1
-1366.67
20043.2
-1395.89
20718.6
-1386.24
21374.2
-1357.26
22019.1
-1320.92
22642.9
-1285
23254.8
-1251.98
23850
-1223.36
24435.8
-1198.48
25008.7
-1176.8
25574
-1157.09
26127.7
-1138.34
26674.2
-1119.51
27208.6
-1099.76
27734.6
-1078.57
28246.9
-1055.64
28749.3
-1031.17
29236.6
-1005.42
29713
-978.981
30173.9
-952.521
30624.3
-927.087
31060.7
-902.427
31489.8
-889.202
-856.079
-3705.68
205.234
-4134.71
409.865
-4255.2
908.515
-4538.43
894.146
-4002.53
299.508
-4112.84
-73.6863
-3816.5
299.442
-3929.4
365.365
-3556.36
234.424
-3418.61
154.706
-3054.49
417.625
-2985.6
936.251
-2594.6
1108.76
-2844.79
941.408
-2422.63
-292.99
-727.577
-4751.62
1850.29
-8325.21
3694.1
-5917.45
4538.35
-2102.3
4514
988.278
4152
2803.09
3170.02
3726.14
2433.43
2664.47
2356.35
887.031
2769.96
-2277.14
1705.23
2256.07
-1711.99
12152.6
-3793.51
10217.8
-5064.56
2574.33
-751.703
-10970
3075.09
-12060.2
5812.9
-8672.76
7634.95
-4991.91
8827.25
-2755.99
9655.64
-1745.95
10229.8
-1260.02
10705.5
-1029.36
11135.6
-888
11517
-771.237
11862.9
-670.705
12180.2
-611.557
12496.7
-583.07
12799.9
-575.123
13099.1
-555.693
13372.7
-534.015
13666
-464.579
14030.6
-391.691
14273.1
-401.355
14556.3
-407.513
14615.2
-294.836
14706
91.2802
14486.2
736.824
14342
1234.08
13977.4
1396.75
13825.4
1196.48
13590.9
849.703
13658.5
266.552
13749.1
-373.09
14095.8
-786.296
14359
-950.522
14749.8
-955.531
15011.1
-891.224
15337.9
-799.243
15545.1
-706.998
15805.7
-621.914
15969.9
-555.397
16180.4
-512.204
16322.4
-490.173
16511.6
-485.18
16655.7
-503.119
16854
-572.721
17063
-734.635
17387.1
-1001.4
17787.5
-1332.65
18313.2
-1650.12
18896.7
-1885.81
19538.6
-2017.7
20186.9
-2062.75
20843.4
-2050.67
21483.1
-2009.77
22113.9
-1957.16
22725.3
-1904.43
23325.2
-1855.16
23909
-1811.98
24483.1
-1773.96
25044
-1740.55
25596.7
-1709.96
26137.2
-1680.78
26669.8
-1651.48
27189.6
-1620.86
27700.4
-1588.23
28196.7
-1553.03
28682.7
-1515.71
29153.1
-1476.57
29612.1
-1436.56
30055.3
-1396.55
30487.5
-1357.98
30905.4
-1321.05
31314
-1296.85
-1249.49
-3668.15
415.851
-4082.17
677.864
-4190.87
1314.2
-4458.64
1321.08
-3916.33
550.355
-4047.7
99.2354
-3772.22
554.653
-3899.98
664.945
-3533.32
461.617
-3423.24
342.097
-3108.35
654.312
-3072.96
1265.39
-2711.92
1432.05
-2910.14
1126.58
-2419.91
-597.107
-876.267
-6197.37
1585.11
-10671.5
3317.36
-7863.83
4405.3
-3298.77
4418.9
738.321
4198.9
2867.71
3373.78
4631.95
2607.73
3639.8
2525.61
1243.06
2251.97
-2034.23
304.327
4715.6
-2534.66
15221.3
-3705
11227.2
-3845.43
2431.88
-196.277
-14472.6
3310.11
-15510.4
5850.16
-11267.6
7621.96
-6774.18
8834.32
-3918.95
9690.36
-2523.89
10286.9
-1841.13
10775.8
-1488.37
11213.3
-1262.36
11598.1
-1084.49
11946.9
-940.709
12263.7
-850.447
12576.6
-794.642
12878.5
-777.681
13186.7
-757.557
13471.6
-725.961
13767.6
-633.635
14125.2
-544.98
14363.7
-545.092
14660.5
-515.188
14749.5
-334.642
14862.4
165.317
14664.4
960.067
14535.5
1579.25
14193.5
1801.21
14064.6
1553.76
13842.1
1119.51
13897.5
404.943
13968.3
-408.937
14285.9
-942.478
14524.7
-1166.49
14893
-1185.58
15139.2
-1115.58
15453.5
-1005.55
15652.9
-894.008
15906
-788.691
16064.9
-706.998
16269.5
-653.792
16406.3
-627.787
16587.3
-621.057
16720.2
-641.298
16900.5
-728.077
17088.3
-936.562
17389.1
-1287.6
17768.8
-1727.2
18275.4
-2150.57
18841.9
-2465.84
19467.1
-2645.1
20100.4
-2710.11
20743.1
-2700.19
21371
-2651.51
21990.8
-2586.39
22592.3
-2519.37
23182.5
-2455.77
23756.6
-2398.81
24320.5
-2347.93
24870.8
-2302.41
25412.3
-2260.22
25941
-2219.62
26461.2
-2178.71
26967.8
-2136.04
27464.9
-2090.63
27947
-2041.95
28418.2
-1990.46
28873.3
-1936.83
29316.6
-1882.05
29743.8
-1827.5
30159.6
-1774.66
30560.7
-1724.41
30951.3
-1687.66
-1624.07
-3607.61
318.638
-4019.88
668.826
-4115.9
1468.79
-4363.76
1482.47
-3785.96
460.401
-3932.21
-26.0716
-3677.11
615.954
-3822.95
763.234
-3454.42
473.32
-3356.23
373.14
-3053.38
814.331
-3032.01
1578.13
-2680.27
1805.51
-2901.12
1415.76
-2389.17
-865.742
-925.517
-7480.64
1392.28
-12715.3
3021.73
-9434.39
4375.7
-4384.72
4256.47
1305.37
4059.76
3377.51
3275.79
5684.28
2070.63
5115.98
2027.96
1579.04
1533.15
-1642.51
-634.525
7312.49
-2770.77
17713.2
-3490.73
11932.3
-2951.91
1905.1
275.297
-17402.4
3509.69
-18488.5
5897.89
-13505.9
7606.4
-8335.15
8809.32
-4953.82
9671.08
-3210.93
10275.8
-2322.36
10770.1
-1868.46
11210.1
-1586.35
11596.1
-1364.31
11946.5
-1188.38
12263.4
-1073.09
12576.8
-1000.99
12881.1
-984.233
13196.9
-976.541
13490.2
-942.697
13788.7
-828.341
14145.4
-731.841
14393.8
-744.962
14714.3
-694.003
14830.3
-445.202
14953.6
177.095
14766.3
1117.22
14643.3
1831.21
14312.5
2087.6
14195.7
1766.75
13977.1
1280.32
14019.1
449.47
14071.5
-531.377
14362.9
-1181
14578.4
-1462.98
14925.3
-1496.53
15155.9
-1420.27
15457.3
-1291.12
15647.3
-1156.78
15891.4
-1025.53
16042.6
-922.375
16239.2
-852.914
16368.1
-816.355
16538.5
-798.012
16656.2
-808.535
16815
-896.524
16978.5
-1141.72
17256
-1572.06
17618.2
-2121.93
18111.2
-2652.01
18666.8
-3046.3
19281.4
-3269.32
19904.9
-3351.46
20538.2
-3341
21157.8
-3282.53
21769.8
-3202.79
22363.9
-3119.86
22946.5
-3040.11
23512.7
-2968.14
24068.4
-2903.28
24609.8
-2845.02
25141.8
-2790.83
25660.4
-2738.65
26169.9
-2686.15
26665.4
-2631.53
27150.7
-2573.64
27620.4
-2511.74
28078.8
-2446.53
28520.7
-2378.75
28950.4
-2309.72
29363.5
-2240.98
29764.9
-2174.34
30150.9
-2110.89
30525.8
-2061.47
-1981.29
-3543.61
591.517
-3941.84
963.661
-4032.39
1859.17
-4250.01
1874.1
-3658.14
716.16
-3817.44
184.346
-3559.23
891.322
-3696.09
1101.28
-3322.74
748.916
-3252.11
611.255
-2999.95
1113.2
-3039.07
1970.72
-2738.35
2178.05
-2921.17
1574.57
-2354.81
-1254.66
-974.685
-8757.46
1157.67
-14728.1
2677.13
-11095.4
3940.15
-5689.87
3999.81
991.844
3946.8
3257.99
3383.64
6319.54
2040.24
6621.51
1795.98
2110.38
871.888
-680.182
-1292.83
9874.19
-2904.94
19545.4
-3249.08
12202.6
-2346.02
880.133
701.656
-20319.3
3696.85
-21425.3
5938.82
-15772.3
7571.88
-9962.61
8750.04
-6078.13
9609.86
-3993.52
10218.1
-2919.14
10716.5
-2343.29
11159.4
-1971.67
11546.9
-1686.13
11897.1
-1466.63
12212.4
-1316.88
12526
-1218.99
12832
-1195.07
13151.4
-1191.79
13448.4
-1146.34
13748.4
-999.439
14110
-884.964
14370.7
-907.236
14712.9
-843.594
14851.3
-529.371
14985.8
227.592
14804.9
1328.66
14685.1
2164.22
14361.3
2480.56
14255.7
2111.14
14037.8
1557.2
14069
616.973
14105.6
-522.613
14374.7
-1282.42
14568.8
-1622.82
14895.3
-1676.11
15109.9
-1601.13
15397.5
-1460.96
15576.6
-1311.99
15810.1
-1163.72
15951.8
-1046.97
16139.1
-969.296
16259.4
-928.96
16418.2
-905.262
16519.9
-908.765
16655.7
-1003.46
16794.8
-1290.58
17051
-1812.01
17400.3
-2483.66
17885.8
-3130.66
18436.7
-3609.16
19045.9
-3880.58
19664.2
-3983.15
20291.8
-3976.08
20906.5
-3911.24
21513.4
-3820.19
22102.7
-3723.45
22680
-3629.23
23240.7
-3542.78
23790.1
-3464.11
24324.8
-3392.64
24849.6
-3325.67
25360.4
-3260.87
25861.7
-3195.58
26348.3
-3127.73
26824.3
-3055.91
27284.2
-2979.41
27732.4
-2898.91
28163.4
-2815.63
28582
-2730.9
28983.4
-2646.7
29372.8
-2564.87
29746.1
-2486.82
30107.6
-2423.31
-2324.31
-3479.2
493.753
-3867.87
914.857
-3944.25
1961.22
-4134
1940.19
-3504.74
546.329
-3677.98
33.9816
-3414.24
900.376
-3534.22
1140.47
-3142.83
718.376
-3079.86
653.736
-2839.11
1331.09
-2916.93
2381.51
-2663.95
2695.62
-2904.03
1889.68
-2328.66
-1625.31
-1014.27
-9918.75
982.108
-16487.1
2435.36
-12480.3
3573.54
-6573.33
3748.89
1310.07
3783.44
3581.8
3426.82
6925.89
2194
8065.34
1507.63
2975.16
110.008
639.115
-1681.11
12010.3
-2856.08
21057.3
-2954.19
12286.8
-1866.59
-189.5
1072.44
-23013.1
3865.12
-23998.1
5967.47
-17734.1
7519.13
-11372.1
8662.18
-7059.93
9511.23
-4671.92
10118.1
-3399.3
10619
-2725.5
11064.7
-2298.62
11455.2
-1969.29
11806.6
-1714.98
12123.3
-1539.2
12440.8
-1430.59
12752.6
-1411.17
13078.1
-1423.77
13381.1
-1377.19
13686.2
-1207.06
14056.9
-1092.12
14334.2
-1148.21
14696.3
-1076.61
14850.3
-688.361
14987.1
210.723
14807.9
1467.88
14685.3
2398.01
14363.3
2744.65
14264.8
2284.43
14047.5
1702.57
14070
664.457
14094.1
-628.98
14343.9
-1494.86
14519
-1890.8
14827.3
-1962.47
15027.5
-1886.79
15302.7
-1732.89
15471.8
-1564.38
15695.4
-1391.06
15827.8
-1252.72
16006.2
-1159.25
16117.8
-1107.88
16265.2
-1066.86
16350.1
-1048.36
16462.2
-1130.26
16576.2
-1448.57
16812.3
-2057.65
17151.3
-2856.04
17633.1
-3622.2
18183.2
-4183.94
18791.2
-4498.59
19408.6
-4617.4
20035.2
-4609.62
20649.4
-4535.29
21255.6
-4429.67
21844.2
-4316.6
22420.1
-4205.34
22978.8
-4102.68
23525.5
-4008.77
24056.7
-3923.31
24577.3
-3843.23
25083.4
-3765.76
25579.2
-3687.88
26059.7
-3607.07
26529.1
-3521.84
26981.8
-3431.14
27422.2
-3335.98
27844.9
-3237.65
28254.5
-3137.85
28646.5
-3038.63
29026
-2942.18
29388.6
-2849.66
29738.8
-2772.27
-2654.24
-3429.87
770.671
-3809.17
1228.15
-3881.07
2327.76
-4038.92
2285.51
-3410.04
806.172
-3584.79
253.089
-3289.59
1121.78
-3349.35
1421
-2918
974.255
-2853.22
911.702
-2638.28
1687.55
-2779.23
2893.84
-2607.11
3249.17
-2879
2132.54
-2304.9
-2006.08
-1068.58
-11029.2
816.534
-18234.8
2178.56
-13927.3
3080.04
-7457.15
3500.51
714.249
3685.09
3253.08
3543.85
7167.17
2611.53
9135.67
1501.81
4235.25
-419.221
2594.74
-1914.71
13853.9
-2790.3
22160.8
-2619.07
12126.2
-1412.23
-1414.01
1415.04
-25704.2
4019.54
-26527.8
5978.14
-19684.1
7440.8
-12804.3
8542.33
-8091.25
9379.15
-5420.34
9984.19
-3989.05
10488.6
-3205.97
10939.7
-2692.11
11334.6
-2300.03
11686.6
-1998.87
12003.2
-1788.95
12323.7
-1659.53
12639.6
-1635.42
12968.6
-1650.5
13273.8
-1589.75
13581.1
-1383.71
13962.4
-1261.2
14258.8
-1343.61
14643.8
-1264.19
14811
-797.112
14948.9
257.186
14766.5
1684.16
14641.7
2735.01
14322.8
3137.69
14235.6
2621.36
14020.7
1985.64
14038.8
850.825
14054
-589.971
14288.2
-1555.27
14446.7
-2005.53
14738.4
-2099.33
14924.7
-2029.18
15187.7
-1869.21
15346.6
-1689.16
15559.7
-1500.56
15682.3
-1349.37
15851.5
-1249.94
15955.4
-1196.11
16092.4
-1146.22
16161.6
-1109.66
16249.6
-1186.02
16338.1
-1543.03
16554.2
-2256.38
16885.7
-3198.08
17368.3
-4097.41
17923.7
-4749.88
18537.2
-5114.53
19160.9
-5254.13
19793.4
-5250.35
20413.5
-5169.82
21024.7
-5052.5
21617.3
-4924.32
22195.7
-4796.79
22755.6
-4677.54
23301.9
-4567.72
23831.7
-4467.12
24349.9
-4372.52
24852.6
-4280.84
25344.4
-4188.7
25820.1
-4093.29
26284.1
-3992.79
26730.7
-3886.21
27164.5
-3774.48
27579.9
-3659.44
27981.8
-3542.81
28365.6
-3427.04
28736.3
-3314.31
29089.6
-3205.74
29430
-3113.18
-2973.96
-3380.42
640.189
-3756.78
1167.42
-3815.21
2375.39
-3949.24
2273.09
-3298.95
601.058
-3500.99
101.484
-3202.23
1057.27
-3219.97
1333.36
-2745.4
819.766
-2641.89
892.52
-2377.81
1884.88
-2500.66
3374.92
-2350.35
4011.36
-2752.25
2626.21
-2231.78
-2337.15
-1065.97
-12059.2
731.378
-19818.6
2009.46
-15130.2
2757.22
-7957.09
3293.18
676.112
3557.55
3405.04
3392.35
7589.1
2596.73
10114.8
1288.38
5650.41
-787.431
4603.31
-1962.93
15344.7
-2548.06
23077.1
-2251.92
11826.9
-965.439
-2690.12
1725.01
-28185
4153.65
-28757.8
5968.75
-21361.7
7338.44
-14030.3
8393.76
-8984.31
9214.39
-6067.27
9816.78
-4460.2
10325
-3590.84
10782.6
-3027.47
11183.4
-2591.86
11538.4
-2250.94
11858.3
-2015.26
12185.1
-1881.52
12509.2
-1866.08
12845.3
-1895.95
13156.7
-1833.26
13470.7
-1604.39
13865.7
-1498.93
14184.4
-1639.44
14590.9
-1554.26
14766.4
-988.757
14898.1
232.048
14710.2
1822.06
14579
2962.89
14261.1
3385.58
14182.5
2754.65
13971.6
2110.76
13987.5
890.174
13996.4
-692.561
14217.2
-1752.6
14361.2
-2253.65
14638.2
-2367.3
14812.4
-2300.11
15065.1
-2130.49
15215.1
-1932.96
15418.8
-1718.77
15532
-1545.05
15693
-1431.52
15790.3
-1368.54
15918.3
-1296.29
15971.4
-1222.65
16033.4
-1267.85
16093.2
-1649.07
16288.9
-2464.09
16615.7
-3558.74
17105.2
-4597.77
17673.9
-5342.58
18301.8
-5752.58
18940.3
-5908.16
19586.1
-5902.2
20217.9
-5809.77
20838
-5674.48
21437
-5525.98
22019
-5377.23
22580
-5237.81
23125.3
-5109.34
23652.5
-4991.96
24166.8
-4882.05
24664.6
-4775.95
25150.7
-4669.81
25620.2
-4560.27
26077.5
-4445.38
26516.9
-4323.71
26943.2
-4196.49
27350.7
-4065.62
27744.5
-3933.27
28119.8
-3801.83
28481.9
-3673.8
28826
-3549.77
29157
-3442.73
-3282.64
-3351.18
935.958
-3720.61
1500.86
-3775.17
2718.22
-3882.06
2586.2
-3249.78
909.638
-3460.01
349.162
-3154.97
1250.87
-3137.09
1549.64
-2639.32
1001.27
-2503.76
1082.36
-2226.2
2183.94
-2347.79
3901.72
-2201.63
4707.02
-2653.89
3064.37
-2153.07
-2606.7
-1027.51
-13031.3
613.098
-21300.3
1745.37
-16296.3
2392.18
-8530.01
3012.65
-20.2692
3460.84
2868.41
3400.12
7796.47
2773.41
10896.9
1290.62
7249.53
-953.612
6874.6
-1920.38
16641.7
-2277.35
23692.2
-1851.43
11521.9
-511.073
-3973.71
2021.11
-30569.7
4271.41
-30911.5
5936.4
-22983.6
7207
-15240.4
8212.48
-9895.09
9017.48
-6764.92
9618.45
-5037.72
10132.8
-4078.17
10600.1
-3435.15
11008.4
-2936.69
11366.4
-2544.79
11687.8
-2275.02
12019.2
-2125.93
12349.8
-2108.63
12690.5
-2136
13003.9
-2053.5
13320.6
-1788.08
13729.6
-1690.94
14071.4
-1878.85
14503.9
-1784.16
14690.3
-1113.52
14819.9
285.844
14625.7
2051.68
14491.4
3308.55
14176.9
3777.82
14111.7
3080
13906.6
2391.22
13924
1082.78
13929.1
-635.852
14139.2
-1783.11
14270.5
-2332.7
14533.9
-2468.64
14696.9
-2409.74
14939.3
-2237.68
15080.5
-2030.27
15273.9
-1800.47
15377.4
-1614
15530.5
-1498.77
15623.6
-1437.81
15744.2
-1353.13
15781.4
-1245.38
15814.8
-1265.57
15843.9
-1680.42
16020.3
-2621.91
16349.4
-3896.35
16855.6
-5096.28
17448
-5944.05
18099.2
-6406.7
18759.1
-6580.76
19421.9
-6574.08
20066.6
-6469.15
20694.6
-6315.2
21297.3
-6144.48
21878.9
-5972.9
22436.4
-5811.23
22975.9
-5662.33
23495.4
-5526.4
24001
-5399.55
24489.5
-5277.55
24965.9
-5156.01
25425.5
-5031.1
25873
-4900.37
26302.7
-4762.4
26719.3
-4618.23
27117.2
-4470.39
27501.7
-4320.97
27867.7
-4172.78
28220.5
-4028.14
28555.2
-3887.51
28876.9
-3764.97
-3582.11
-3313.51
821.595
-3674.84
1421.79
-3712.16
2719.67
-3789.78
2488.43
-3133.95
656.449
-3382.23
215.029
-3089.34
1158.32
-3060.13
1388.06
-2558.37
751.853
-2399.2
968.863
-2086.58
2279.44
-2161.59
4312.45
-1994.34
5557.19
-2567.45
3745.76
-2112.43
-2869.71
-1046.64
-13981.1
480.419
-22650
1434.27
-17196.4
1967.22
-8848.94
2635.75
-224.693
3205.02
2731.5
3175.74
8073.27
2621.03
11614.7
1121.52
8825.65
-1028.27
8958.64
-1738.34
17651
-1850.43
24127.5
-1449.27
11098
-82.2164
-5357.31
2293.01
-32779.1
4366.3
-32820.8
5878.12
-24381
7045.95
-16282
7998.38
-10700.6
8785.83
-7388.64
9386.2
-5511.86
9908.88
-4478.27
10387.2
-3790.53
10805.1
-3244.88
11169.4
-2805.41
11496.5
-2507.86
11836.3
-2360.82
12178.1
-2358.28
12528
-2397.57
12848.4
-2310.24
13173.2
-2025.4
13598.7
-1964.8
13965.7
-2237.18
14421.2
-2136.01
14614.2
-1333.93
14737.2
257.245
14537.9
2191.42
14398.7
3532.27
14087.1
4008.39
14032.1
3171
13834.3
2490.01
13854.5
1104.57
13857.4
-743.196
14057.8
-1972.72
14177.6
-2567.22
14429
-2723.21
14582.2
-2670.27
14816.2
-2491.98
14949.6
-2267.71
15133.6
-2009.8
15228
-1799.98
15375.4
-1675.89
15466.1
-1611.41
15580.1
-1497.58
15598.7
-1329.38
15599.6
-1291.55
15595.7
-1724.69
15756.8
-2797.51
16096.8
-4270.14
16629.4
-5640.54
17253.1
-6590.74
17932.2
-7095.81
18614.8
-7277.23
19292.9
-7257.33
19946.5
-7128.98
20576.9
-6946.01
21176.9
-6745.1
21751.3
-6544.03
22298.4
-6355.75
22825.2
-6183.59
23330.8
-6027.93
23821.9
-5884.22
24295.8
-5747.19
24757.9
-5611.72
25203.7
-5473.16
25638
-5328.77
26054.9
-5176.47
26459.5
-5017.64
26845.8
-4854.76
27219.3
-4690.43
27574.8
-4527.28
27917.5
-4367.86
28242.3
-4212.04
28554.4
-4075.36
-3870.85
-3296.93
1168.55
-3643.87
1761.9
-3676.73
3032.62
-3740.59
2775.43
-3121.67
992.355
-3343.81
467.889
-3036.12
1334.66
-2972.94
1562.45
-2455.88
885.418
-2266.54
1093.04
-1926.62
2494.6
-1960.19
4768.65
-1796.65
6356.06
-2421.82
4385.58
-2068.46
-2958.49
-1118.93
-14761.5
380.466
-23975.1
1248.37
-18057.6
1640.25
-9112.9
2245.61
-805.128
2929.81
2036.51
2999.75
8204.3
2566.43
12238.3
1131.97
10377.4
-938.553
11055
-1550.54
18589.1
-1530.85
24392.9
-1099.87
10919.2
330.904
-6692.98
2555.28
-34849.4
4441.99
-34593.4
5792.27
-25659.5
6851.05
-17253
7747.24
-11477.2
8518.1
-8030.07
9119.45
-6078.88
9654.28
-4979.6
10148.5
-4219.87
10578.5
-3609.13
10949.3
-3113.9
11280.8
-2781.26
11627.3
-2623.68
11977.9
-2623.87
12334.3
-2655.12
12657.3
-2541.43
12984.8
-2218.36
13425.4
-2185.19
13817.4
-2526.71
14301.8
-2413.04
14507.2
-1475.93
14631
314.836
14428.3
2429.25
14289.5
3880.96
13984.2
4393.09
13944
3480.13
13755.3
2759.13
13781.7
1292.83
13784.1
-677.556
13976.8
-1980.87
14086.5
-2617.35
14326.8
-2794.85
14470.7
-2752.43
14696.2
-2574.32
14821.6
-2339.79
14995.1
-2063.97
15080.8
-1842.77
15223.6
-1725.73
15314.2
-1670.05
15421.7
-1535.13
15420.1
-1306.79
15386.2
-1218.53
15351
-1687.73
15503.2
-2929.95
15863.2
-4636.25
16429.5
-6198.56
17088.2
-7256.99
17794.9
-7806.08
18496.7
-7991.49
19184.6
-7955.27
19840.3
-7799.6
20465.6
-7585
21055.3
-7351.09
21615.1
-7118.8
22145
-6902.21
22652.9
-6705.75
23138.9
-6529.56
23610.5
-6368.37
24065.5
-6215.93
24509.6
-6066.15
24938.3
-5913.66
25356.7
-5754.98
25758.6
-5587.94
26149.2
-5413.61
26522.4
-5235.14
26883.6
-5055.03
27227.5
-4876.33
27559.3
-4701.22
27873.5
-4529.47
28175.6
-4378.04
-4150.59
-3264.84
1030.29
-3602.99
1668.15
-3616.99
2979.03
-3657.6
2619.02
-3025.8
710.426
-3281.71
329.569
-2984.61
1219.7
-2913.25
1340.05
-2390.31
562.655
-2168.21
889.298
-1756.87
2445.69
-1633.69
4958.03
-1247.12
7095.04
-2024.86
5314.35
-1839.79
-2923.03
-1064.05
-15440
327.823
-25219.3
1192.37
-18880.4
1547.67
-9268.77
2021.91
-831.998
2664.09
1828.24
2716.91
8412.63
2389.78
12729.7
1107.35
11734.9
-805.783
12915.3
-1283.56
19364.3
-1117.78
24550.7
-769.536
10529.5
720.04
-8222.48
2798
-36793.6
4491.9
-36147.6
5674.46
-26742
6619.19
-18080.5
7455.81
-12174.1
8208.43
-8622.55
8813.49
-6561.93
9364.12
-5409.12
9877.73
-4610.68
10323.3
-3945.22
10705.2
-3393
11046.8
-3029.47
11405.3
-2878.16
11769.8
-2898.07
12138.3
-2938.08
12471
-2815.04
12807.4
-2471.55
13264.9
-2496.27
13682.6
-2949.97
14191
-2830.3
14403.6
-1726.66
14524.2
277.59
14321.2
2563.88
14182.4
4093.83
13884.2
4600.75
13855.1
3527.69
13676.9
2825.81
13710
1289.64
13712.7
-794.75
13897.8
-2166.93
13997.9
-2842.11
14228.1
-3039.6
14364.1
-3006.14
14582.6
-2824.5
14700.6
-2571.98
14864.6
-2264.33
14942.8
-2021.32
15083.4
-1905.16
15174.4
-1851.99
15274.3
-1674.14
15249.5
-1353.33
15179.5
-1179.09
15114.7
-1672.68
15264.2
-3096.3
15650.5
-5056.1
16253.5
-6813.7
16946.4
-7971.54
17677.1
-8546.47
18392.6
-8719.15
19083.7
-8650.4
19734.6
-8454.78
20348.3
-8197.63
20921.6
-7923.08
21461.4
-7653.66
21969.1
-7405.45
22453.7
-7183.07
22916.3
-6986.47
23365.2
-6809.19
23798.4
-6643.46
24222.1
-6482.02
24631.6
-6318.37
25032.2
-6148.5
25417.6
-5969.54
25792.8
-5782.76
26151.5
-5591.28
26499.4
-5398.17
26830.6
-5206.23
27150.6
-5017.78
27453.5
-4831.87
27744.8
-4667.51
-4419.18
-3260.28
1400.68
-3586.94
2013.3
-3595.31
3262.17
-3626.1
2888.19
-3040.32
1071.26
-3262.15
588.325
-2954.46
1391.43
-2866.17
1493.22
-2339.76
659.702
-2095.17
949.659
-1676.33
2565.55
-1527.6
5244.94
-1015.21
7645.23
-1784.59
6148.43
-1689.05
-2676.29
-1013.53
-15933.1
229.296
-26275.3
1007.79
-19614.9
1351.63
-9434.11
1831.97
-1208.72
2576.36
1187.55
2628.69
8610.02
2364.3
13226.1
1235.06
13004.7
-550.27
14743.3
-968.37
20112
-755.46
24656.9
-448.358
10637.3
1105.05
-9659.14
3031.92
-38558.9
4518.42
-37500.5
5523.04
-27644.4
6346.49
-18784.8
7119.97
-12797.5
7854.3
-9200.55
8465.33
-7125.65
9037.13
-5940.82
9577.48
-5081.07
10043
-4343.31
10437.3
-3728.19
10788.7
-3327.93
11158.6
-3168.95
11535.2
-3193.4
11913.5
-3219.67
12250
-3060.58
12587.1
-2672.51
13059
-2744.18
13501.7
-3291.12
14041.3
-3157.97
14269.3
-1890.49
14396.2
329.305
14195.1
2798.18
14062.8
4433.72
13775.1
4967.9
13761.8
3816.95
13596.3
3075.05
13639.5
1464.64
13643.6
-725.634
13822.8
-2157.13
13914.3
-2867.43
14135
-3085.36
14263.3
-3064.35
14474.4
-2884.38
14584.7
-2619.39
14738.5
-2291.03
14809.7
-2041.11
14948.7
-1944.08
15041.1
-1904.05
15132.4
-1688.69
15084.2
-1276.9
14978.6
-1030.31
14887.9
-1575.59
15040.3
-3227.52
15458.1
-5477.11
16098.9
-7445.84
16823.7
-8702.4
17573.2
-9300.25
18295.8
-9453.97
18983.2
-9348.75
19622.9
-9109.54
20219
-8808.34
20770.8
-8491.59
21286
-8184.64
21767.8
-7904.32
22225.8
-7656.07
22662.4
-7439.21
23086.2
-7246.1
23495.8
-7067.41
23897.6
-6894.49
24286.8
-6719.86
24668.6
-6538.52
25036.5
-6347.42
25395.7
-6147.49
25739.4
-5942.53
26073.3
-5735.57
26391.4
-5529.81
26699.2
-5327.14
26990.4
-5126.25
27270.4
-4948.21
-4678.24
-3241.65
1265.05
-3563.15
1911.11
-3545.62
3155.04
-3560.02
2677.79
-2972.41
744.501
-3206.71
414.103
-2907.82
1253.74
-2822.21
1236.35
-2298.82
291.805
-2031.38
673.275
-1573.94
2413.63
-1364.11
5289.48
-739.425
8093.12
-1580.48
7155.1
-1598.99
-2388.23
-1003.99
-16440
136.758
-27302.2
874.992
-20341
1077.4
-9475.7
1532.41
-1310.14
2556.11
580.639
2610.2
8797.78
2305.66
13670.1
1296.68
14071.6
-288.323
16272.4
-571.015
20663.2
-239.5
24637.3
-84.5354
10376.2
1479.65
-11282.4
3245.81
-40224.8
4513.77
-38661
5332
-28390.7
6027.89
-19387.4
6733.68
-13384.9
7447.39
-9768.71
8067.79
-7635.61
8666.85
-6423.59
9239.38
-5532.12
9731.09
-4725.24
10145.3
-4038.63
10515.1
-3603.05
10904.1
-3453.41
11300
-3499.74
11694.9
-3530.67
12043
-3353.32
12390.4
-2941.62
12880.7
-3092.24
13346.9
-3776.48
13908.7
-3640.31
14143.5
-2173.33
14271.2
275.612
14075.8
2917
13950.4
4624.61
13675.1
5144.24
13672.8
3821.62
13521.2
3103.42
13574.6
1430.36
13580.1
-855.124
13752.9
-2341.6
13835.8
-3084.61
14047.7
-3322.62
14168.9
-3313.67
14373.9
-3132.32
14477.1
-2847.14
14622.1
-2483.39
14687.3
-2215.63
14825.8
-2130.65
14919.1
-2096.27
15001.1
-1818.91
14928.2
-1281.88
14786.8
-925.525
14672.8
-1512.72
14834.3
-3408.41
15287.1
-5962.85
15964.5
-8135.95
16715.6
-9473.69
17476.4
-10070.3
18197.8
-10185.8
18873.8
-10027.7
19495.6
-9733.57
20068.7
-9379.02
20594.5
-9014.19
21081.7
-8665.28
21534.6
-8350.9
21963.7
-8076.34
22372.3
-7840.43
22769.7
-7633.87
23154.5
-7445.23
23533.5
-7264.26
23901.7
-7082.1
24264.3
-6892.99
24614.5
-6693.01
24957.4
-6483.37
25285.9
-6267.89
25605.9
-6050.17
25910.9
-5833.14
26206.5
-5618.84
26485.8
-5404.83
26754.4
-5214.83
-4925.73
-3261.3
1682.94
-3573.7
2268.94
-3546.79
3396.41
-3552.65
2930.91
-3010.68
1108.25
-3199.76
650.965
-2885.07
1414.08
-2788.39
1378.65
-2262.64
358.718
-1966.05
667.842
-1482.57
2448.24
-1244.87
5484.33
-631.834
8558.05
-1420.57
8049.76
-1493.1
-1872.14
-986.209
-16759.7
13.7084
-28112.3
753.973
-21009.6
914.795
-9409.57
1321.2
-1516.94
2516.46
-288.693
2673.62
8951.57
2342.07
14269.5
1453
15129.7
26.8508
17765.8
-403.993
21412.8
-107.292
24665.7
222.958
10615.6
1854.97
-12799.2
3446.25
-41653.7
4478.91
-39547.4
5100
-28886.5
5660.76
-19803.4
6293.78
-13841.4
6985.87
-10279.4
7617.39
-8208.76
8251.84
-7011.6
8866.01
-6070.27
9391.06
-5180.02
9828.41
-4419.16
10217.1
-3942.89
10625.8
-3786.23
11039.5
-3835.48
11447.5
-3844.71
11800.9
-3618.82
12151.7
-3155.8
12658.6
-3373.62
13148.6
-4167.45
13741.2
-4016.32
13991.1
-2359.24
14128.3
313.428
13939.9
3135.22
13827.9
4941.21
13568.2
5481.71
13581.5
4088.29
13446.6
3323.35
13513.4
1584.07
13521.2
-785.936
13688.9
-2316.67
13764.1
-3088.01
13967.4
-3345.19
14081.9
-3350.45
14280.2
-3171.67
14376.5
-2871.03
14511.7
-2483.78
14570.8
-2215.01
14708.5
-2161.87
14803.3
-2142.08
14875.4
-1807.32
14777.9
-1148.25
14602.8
-702.79
14472.5
-1370.94
14650.8
-3563.99
15140.5
-6452.84
15848.7
-8835.43
16616.5
-10246.1
17376.9
-10835.9
18086.6
-10907.5
18742.2
-10695.1
19339
-10345.5
19883.8
-9939.12
20379.8
-9527.07
20835.8
-9137.75
21257.6
-8790.21
21656.2
-8490.45
22035.5
-8236.48
22405.5
-8017.36
22765.1
-7819.65
23121
-7631.21
23468.1
-7441.98
23811.6
-7244.92
24144.1
-7035.9
24470.9
-6815.86
24784.6
-6589.44
25090.9
-6360.07
25383.2
-6131.15
25667.1
-5904.18
25934.9
-5676.1
26192.6
-5473.19
-5164.19
-3263.73
1582.22
-3566.71
2170.65
-3508.98
3225.81
-3508.22
2679.3
-2969.08
748.933
-3158.34
433.524
-2849.14
1253.08
-2761.66
1107.34
-2243.28
-35.1792
-1925.55
323.889
-1397.11
2184.39
-1070.74
5368.08
-316.49
8798.94
-1126.88
9038.05
-1294.41
-1328.48
-947.739
-17019.5
-97.0092
-28876.7
504.419
-21618.1
779.457
-9540.68
1196.73
-1619.97
2213.56
-757.852
2511.55
8908.87
2278.68
14635.7
1537.72
15926
287.737
18966
-153.787
22094.4
251.412
24550.9
605.431
10120.1
2222.1
-14481.2
3620.37
-42974.7
4405.58
-40246.9
4820.61
-29248
5239.9
-20144.8
5794.23
-14291
6461.73
-10810.9
7107.29
-8756.2
7785.46
-7580.84
8449.54
-6616.92
9017.11
-5640.32
9487.52
-4788.37
9905.57
-4268.47
10342.8
-4120.5
10782.5
-4188.32
11210.9
-4192.59
11578.4
-3936.15
11944.6
-3447.72
12473.5
-3763.91
12985.2
-4710.88
13597.1
-4559.48
13851.7
-2670.68
13992.2
239.024
13815.1
3228.37
13717.3
5097.5
13476.6
5615.99
13499.9
4052.56
13381.2
3307.78
13460.4
1514.23
13470.2
-928.607
13632.3
-2500.5
13699.6
-3298.84
13894.8
-3576.23
14003.2
-3597.26
14196.5
-3419.58
14286.5
-3095.9
14412.5
-2668.49
14465.6
-2386.3
14603.5
-2357.51
14699.6
-2345.31
14761
-1925.99
14637.9
-1110.77
14432.1
-540.101
14293.9
-1285.29
14494.6
-3786.67
15016
-7006.59
15742.6
-9575.38
16511.9
-11034
17258.7
-11591.7
17945.8
-11603.3
18573.4
-11324.6
19140.1
-10912.6
19653.5
-10448.6
20117.7
-9986.15
20541.8
-9553.77
20932.1
-9172.38
21300
-8847.87
21650.2
-8577.72
21993
-8349.04
22327.5
-8145.8
22660.7
-7953.77
22986.9
-7761.24
23311.5
-7560.15
23626.5
-7345.48
23937.2
-7118.77
24236.2
-6884.68
24529.1
-6646.94
24808.8
-6408.76
25080.7
-6171.76
25337.1
-5931.58
25584.1
-5717.96
-5391.99
-3302.67
2029.73
-3596.96
2533.59
-3530.53
3424.77
-3525.49
2926.94
-3025.36
1108.72
-3161.25
638.28
-2834.44
1401.97
-2742.49
1254.94
-2228.14
19.0377
-1888.7
266.687
-1340.52
2140.68
-985.644
5443.66
-257.019
9133.96
-991.865
9928.06
-1188.37
-504.47
-905.699
-17113.2
-187.56
-29405.2
264.161
-21971.2
488.343
-9481.95
973.999
-1778.65
2063.17
-1219.99
2467.28
8941.57
2301.92
15119.5
1692.13
16746.7
643.7
20119.9
288.604
22769.4
597.29
24582.7
961.12
10442.6
2592.3
-15997.8
3771.86
-43988.1
4293.4
-40606.7
4493.14
-29296.3
4765.09
-20242.1
5235.88
-14554.7
5876.46
-11243.2
6536.77
-9348.84
7267.24
-8261.83
7993.14
-7264.53
8611.45
-6189.63
9117.99
-5244.64
9565.92
-4675.2
10031.9
-4516.68
10495.6
-4579.45
10940.3
-4547.75
11316.2
-4227.87
11690.7
-3686.04
12240.7
-4086.68
12776.9
-5151.76
13419.9
-4981.16
13688.5
-2876
13840.9
257.978
13675.3
3419.26
13598.1
5376.04
13378.2
5910.87
13416.7
4294.09
13317.8
3491.12
13412.4
1641.46
13424.5
-861.063
13582.3
-2462.32
13642.4
-3282.03
13830.1