/*--------------------------------*- C++ -*----------------------------------*\
| =========                 |                                                 |
| \\      /  F ield         | OpenFOAM: The Open Source CFD Toolbox           |
|  \\    /   O peration     | Version:  4.1                                   |
|   \\  /    A nd           | Web:      www.OpenFOAM.org                      |
|    \\/     M anipulation  |                                                 |
\*---------------------------------------------------------------------------*/
FoamFile
{
    version     2.0;
    format      ascii;
    class       volVectorField;
    location    "29";
    object      U;
}
// * * * * * * * * * * * * * * * * * * * * * * * * * * * * * * * * * * * * * //

dimensions      [0 1 -1 0 0 0 0];

internalField   nonuniform List<vector> 
26785
(
(-2.13987e-13 -0.386452 -30.7059)
(-2.01722e-13 -0.444495 -31.0853)
(-1.23587e-13 -0.456517 -32.431)
(-2.40843e-13 -0.546388 -32.744)
(-2.08015e-13 -0.691549 -31.1629)
(-2.73764e-13 -0.827211 -28.6363)
(-2.18314e-13 -0.864344 -27.0601)
(-2.88659e-13 -1.02315 -24.8883)
(-2.43905e-13 -1.19778 -23.3635)
(-1.48578e-13 -1.36714 -21.2461)
(-1.53093e-13 -1.51365 -18.8949)
(-1.54544e-13 -1.74087 -17.3767)
(-1.20037e-13 -2.07135 -16.3932)
(-6.98397e-14 -2.4441 -15.1546)
(-3.92302e-14 -2.75343 -15.1505)
(-8.41139e-14 -3.2259 -7.67807)
(-1.35932e-13 -4.09794 6.38855)
(-2.36751e-13 -3.77383 16.4981)
(-2.68431e-13 -3.2719 25.6184)
(-3.60466e-13 -1.52296 25.7272)
(-3.24568e-13 -0.443154 20.5846)
(-2.28106e-13 -0.503052 14.3001)
(-1.95312e-13 -0.884653 11.8927)
(-2.31572e-13 -0.744494 9.33859)
(-4.02516e-14 -0.679053 9.68261)
(-3.65994e-13 -0.401568 22.7218)
(-1.59776e-13 -0.326205 7.61538)
(-4.6792e-14 -1.03625 -14.2499)
(1.63833e-13 -4.22876 -21.6201)
(-1.52326e-13 -5.35297 -10.0387)
(2.78092e-13 -4.35169 1.9617)
(2.82399e-13 -3.07804 17.3173)
(-1.72465e-14 -1.44033 26.5477)
(9.30091e-14 -0.537443 30.4998)
(-2.21497e-14 -0.330907 32.5645)
(3.4219e-14 -0.253565 33.674)
(-1.16598e-14 -0.217556 34.3464)
(-1.17441e-14 -0.195373 34.9601)
(-2.39767e-14 -0.175922 35.4682)
(-3.37976e-14 -0.158399 35.8683)
(-1.0397e-13 -0.148341 36.2249)
(-1.97755e-14 -0.149322 36.5721)
(-2.14882e-14 -0.141368 36.8582)
(4.01446e-14 -0.132941 37.1458)
(-4.12119e-14 -0.137345 37.4652)
(1.31697e-14 -0.122183 37.767)
(-7.14567e-14 -0.0910143 38.0061)
(-7.18762e-14 -0.0581641 37.9671)
(-5.9315e-14 -0.0627268 38.0008)
(-7.84597e-14 -0.133906 38.3682)
(-1.71156e-13 -0.149755 38.7826)
(-7.17257e-14 -0.0208261 38.3527)
(-3.18058e-14 0.126967 37.0804)
(-3.21411e-14 0.208714 35.2544)
(-4.45174e-14 0.223872 33.3678)
(-4.79498e-14 0.195515 31.9803)
(2.03458e-14 0.113038 31.2122)
(-7.58736e-14 0.027001 31.0346)
(-8.61019e-14 -0.0242904 31.3243)
(-6.48714e-14 -0.0384505 31.7873)
(-5.27016e-14 -0.0325574 32.2867)
(-8.93481e-14 -0.0183531 32.7111)
(-1.09158e-13 -0.00313538 33.0239)
(-7.93376e-14 0.0113893 33.2329)
(-6.71383e-14 0.0231517 33.3446)
(-1.03048e-13 0.0323657 33.3886)
(-1.08256e-13 0.0372378 33.3662)
(-1.07947e-13 0.0394765 33.3179)
(-1.09069e-13 0.0383904 33.249)
(-1.21349e-13 0.0344541 33.1948)
(-1.06245e-13 0.0232289 33.1626)
(-9.76781e-14 0.000477314 33.2314)
(-1.1525e-13 -0.0357511 33.4624)
(-1.1558e-13 -0.0795708 33.9367)
(-1.14826e-13 -0.121275 34.6402)
(-1.03867e-13 -0.151883 35.5439)
(-1.02505e-13 -0.168782 36.5531)
(-1.04928e-13 -0.174246 37.6078)
(-1.02765e-13 -0.172329 38.6454)
(-9.97508e-14 -0.166857 39.6443)
(-1.06601e-13 -0.160071 40.5878)
(-1.3738e-13 -0.153538 41.4792)
(-8.21407e-14 -0.147607 42.3193)
(-8.90599e-14 -0.142631 43.1161)
(-9.30397e-14 -0.138376 43.8736)
(-9.72246e-14 -0.134781 44.5981)
(-9.49612e-14 -0.131553 45.292)
(-9.20356e-14 -0.128497 45.9584)
(-9.42352e-14 -0.125391 46.5979)
(-9.43794e-14 -0.12206 47.2112)
(-9.36353e-14 -0.118431 47.7973)
(-9.27426e-14 -0.114403 48.3556)
(-9.20741e-14 -0.110068 48.885)
(-9.12833e-14 -0.105425 49.3849)
(-9.10607e-14 -0.100655 49.8552)
(-9.13244e-14 -0.0958191 50.2951)
(-9.00408e-14 -0.0912366 50.7081)
(-8.9188e-14 -0.086519 51.096)
(-8.90019e-14 -0.0851683 51.4329)
(-8.82887e-14 -0.0776979 51.9007)
(-1.34882e-13 0.312225 -30.0089)
(-2.32537e-13 0.449014 -30.1538)
(-1.76093e-13 0.669728 -31.8464)
(-2.16196e-13 0.698026 -32.4941)
(-1.85478e-13 0.653963 -30.8154)
(-2.01792e-13 0.565317 -28.0127)
(-2.18306e-13 0.720249 -26.6484)
(-1.73232e-13 0.773219 -24.5969)
(-2.02762e-13 0.797269 -23.1349)
(-2.15565e-13 0.762159 -20.9486)
(-2.27681e-13 0.842675 -18.6146)
(-2.43648e-13 1.03643 -17.0378)
(-2.9112e-13 1.0787 -15.8592)
(-3.05461e-13 0.871894 -14.5585)
(1.11155e-13 0.217057 -14.5091)
(-1.36295e-13 -1.67783 -7.141)
(-1.16285e-13 -3.59575 4.49348)
(-3.30895e-13 -2.18026 12.8587)
(-4.2147e-13 -0.200665 23.1755)
(-3.93635e-13 0.932111 23.6861)
(-1.57804e-13 1.53317 20.5796)
(-2.0333e-13 1.4926 16.3935)
(-2.01265e-13 1.03402 11.8619)
(2.75335e-14 0.731939 8.18119)
(-1.29249e-13 -0.584248 10.2862)
(-3.03052e-13 -0.261637 23.0781)
(-1.33675e-13 3.6429 -0.974525)
(-1.55704e-14 4.18048 -14.6343)
(-9.02853e-14 0.854774 -19.4393)
(-9.75976e-14 -3.574 -8.29843)
(4.76562e-14 -4.93185 1.80754)
(9.16854e-14 -3.25494 15.9495)
(3.08924e-14 -1.50078 24.8885)
(-3.81827e-15 -0.613368 29.6863)
(-8.19487e-15 -0.266883 32.4427)
(1.51441e-13 -0.107113 34.0499)
(7.20787e-14 -0.0327536 35.0831)
(5.17148e-14 0.0153802 35.9453)
(4.38291e-14 0.0555888 36.6382)
(3.35561e-14 0.0925461 37.1794)
(2.64162e-14 0.114812 37.6415)
(-5.3757e-15 0.11222 38.0812)
(4.34288e-14 0.112687 38.4478)
(1.53782e-14 0.124134 38.7605)
(6.30236e-14 0.130996 39.0327)
(4.11812e-15 0.176797 39.2844)
(1.29361e-14 0.239386 39.6204)
(-4.85303e-15 0.219785 39.9251)
(-5.24693e-14 0.127999 40.1937)
(-3.07091e-14 0.104808 40.2718)
(5.32538e-14 0.261171 40.0013)
(-3.52279e-14 0.554849 39.117)
(-2.99034e-14 0.783308 37.9336)
(6.62957e-14 0.848182 36.5343)
(-6.21278e-15 0.762599 35.1089)
(-1.69056e-13 0.603257 34.1737)
(-1.45866e-13 0.350393 33.5997)
(-5.30375e-14 0.0981991 33.4755)
(-9.26693e-14 -0.0600402 33.7349)
(-8.59998e-15 -0.118197 34.1636)
(-3.56319e-14 -0.117853 34.6369)
(-2.64294e-14 -0.0917749 35.0591)
(-8.87077e-14 -0.0581197 35.3868)
(-5.75034e-14 -0.0247374 35.6262)
(-7.49149e-14 0.00399858 35.7785)
(-5.47996e-14 0.0263322 35.8699)
(-5.74199e-14 0.0389167 35.8996)
(-7.48013e-14 0.0442489 35.9033)
(-2.84653e-14 0.0417924 35.885)
(-3.71975e-15 0.0307328 35.8749)
(-4.79642e-14 -0.000878379 35.879)
(-5.16387e-14 -0.0653572 35.9672)
(-3.28597e-14 -0.167326 36.1965)
(-2.66046e-14 -0.289927 36.6414)
(-1.77064e-14 -0.405549 37.2935)
(-1.93153e-14 -0.489053 38.129)
(-1.6027e-14 -0.533419 39.0649)
(-2.20509e-14 -0.544968 40.047)
(-5.19447e-14 -0.535333 41.018)
(2.67827e-15 -0.515286 41.9563)
(-7.81808e-15 -0.491362 42.8452)
(2.85049e-14 -0.467894 43.6861)
(-1.6158e-14 -0.446159 44.4784)
(-7.29057e-15 -0.427051 45.2284)
(-1.54908e-14 -0.410133 45.9393)
(-2.12012e-14 -0.395162 46.6165)
(-1.75497e-14 -0.381431 47.2619)
(-2.18762e-14 -0.368379 47.8785)
(-2.22481e-14 -0.355433 48.4668)
(-2.15292e-14 -0.342124 49.0274)
(-2.207e-14 -0.328203 49.5596)
(-2.28096e-14 -0.313468 50.0629)
(-2.33172e-14 -0.298075 50.5364)
(-1.77151e-14 -0.282109 50.9798)
(-2.73784e-14 -0.265944 51.3932)
(-2.8879e-14 -0.249881 51.7758)
(-2.86412e-14 -0.234576 52.1318)
(-2.88734e-14 -0.219547 52.4609)
(-3.05438e-14 -0.21211 52.7476)
(-3.21982e-14 -0.191489 53.1265)
(-1.38376e-13 -0.133964 -30.5736)
(-1.55569e-13 -0.0105729 -30.099)
(-1.91842e-13 0.276641 -31.5982)
(-2.14473e-13 0.249726 -32.3108)
(-1.73301e-13 -0.145772 -30.4894)
(-5.25062e-14 -0.40658 -27.5437)
(-6.24169e-14 -0.17847 -26.3758)
(-8.44176e-14 -0.107922 -24.6322)
(-1.01935e-13 -0.141198 -23.215)
(-1.19984e-13 -0.172535 -21.0551)
(-1.31644e-13 0.00143106 -18.9292)
(-1.35781e-13 0.323775 -17.4475)
(-1.46695e-13 0.454423 -16.1389)
(-1.93494e-13 0.45656 -14.6616)
(-1.72738e-13 -0.116804 -14.2929)
(-2.23514e-13 -3.08475 -7.58876)
(-2.82459e-13 -5.37469 2.84501)
(-3.59123e-13 -3.66388 11.5348)
(-4.73488e-13 -1.14347 20.2984)
(-2.21241e-13 0.574519 21.8175)
(-2.364e-13 2.03476 20.8344)
(-4.11761e-13 2.57522 17.7563)
(-1.06805e-13 1.92585 12.1146)
(-5.72088e-14 0.667524 9.09706)
(-1.39378e-13 -1.43906 10.3397)
(-2.56212e-13 1.01828 18.5743)
(-7.71403e-14 7.34402 -7.17693)
(-3.84212e-14 6.56773 -14.8031)
(-4.18031e-15 2.31924 -19.6086)
(-1.93446e-15 -6.5274 -7.33893)
(-2.84133e-14 -7.59085 3.73692)
(8.57838e-15 -5.43222 16.332)
(-6.27225e-14 -2.95489 24.621)
(2.81657e-14 -1.49342 29.6043)
(-2.43747e-14 -0.848248 32.6075)
(-1.85691e-14 -0.543969 34.3935)
(-3.09189e-14 -0.394164 35.5462)
(-4.88329e-14 -0.293882 36.4717)
(-4.34914e-14 -0.208903 37.2044)
(-3.64222e-14 -0.133062 37.7765)
(-4.00534e-14 -0.0885858 38.2608)
(-4.19041e-14 -0.0680897 38.7038)
(-4.17527e-14 -0.0551326 39.0582)
(-3.94575e-14 -0.0289821 39.3673)
(-3.76215e-14 -0.00508908 39.6663)
(-3.89759e-14 0.0460911 39.9641)
(-4.43989e-14 0.0980297 40.3705)
(-3.49481e-14 0.0877707 40.7205)
(-2.37311e-14 0.0712545 40.8983)
(-2.06507e-14 0.136708 40.8556)
(-2.92739e-14 0.385921 40.5659)
(-4.07441e-14 0.809692 39.8282)
(-4.89369e-14 1.13576 38.8536)
(-5.76922e-14 1.23068 37.6116)
(-5.88283e-14 1.09729 36.2488)
(1.55262e-14 0.865987 35.3861)
(-5.32188e-14 0.494125 34.7793)
(8.30654e-15 0.100057 34.579)
(-5.46087e-14 -0.150603 34.737)
(-6.84227e-14 -0.247352 35.0746)
(1.86858e-14 -0.247974 35.474)
(3.42559e-14 -0.207046 35.8452)
(4.30501e-14 -0.150576 36.1389)
(5.88661e-14 -0.0944566 36.3579)
(1.12131e-13 -0.0436351 36.4981)
(3.75116e-15 -0.00405582 36.582)
(-4.21988e-14 0.0210852 36.6068)
(5.50964e-14 0.03363 36.6058)
(5.12814e-14 0.0351528 36.5809)
(4.90923e-14 0.0226864 36.5578)
(5.66065e-14 -0.0214218 36.5396)
(5.25691e-14 -0.119474 36.5931)
(6.49371e-14 -0.278736 36.7774)
(5.55275e-14 -0.473979 37.1692)
(4.69998e-14 -0.659492 37.7653)
(5.00247e-14 -0.794795 38.5442)
(4.02076e-14 -0.867493 39.4265)
(3.38114e-14 -0.887618 40.3594)
(2.74755e-14 -0.873346 41.2873)
(2.18318e-14 -0.841822 42.1886)
(1.59304e-14 -0.803496 43.0458)
(2.09214e-14 -0.765347 43.8589)
(1.88194e-14 -0.729602 44.6261)
(-1.35948e-14 -0.697778 45.3524)
(-4.79903e-15 -0.669334 46.0402)
(-5.51003e-15 -0.643907 46.6942)
(-7.58107e-15 -0.620425 47.316)
(-8.9814e-15 -0.59803 47.9082)
(-1.20232e-14 -0.575809 48.4714)
(-2.1762e-14 -0.553049 49.0061)
(-1.10801e-14 -0.529331 49.5116)
(-1.24442e-14 -0.504372 49.9874)
(-1.64573e-14 -0.478402 50.4329)
(-1.73571e-14 -0.451621 50.8477)
(-1.75935e-14 -0.424557 51.2322)
(-1.78217e-14 -0.397772 51.5857)
(-2.07309e-14 -0.372094 51.9128)
(-2.19488e-14 -0.34753 52.2114)
(-2.17073e-14 -0.331878 52.4731)
(-2.29206e-14 -0.300698 52.8034)
(-1.36051e-13 -0.309597 -30.3241)
(-1.489e-13 -0.129189 -29.7741)
(-2.46258e-14 0.308032 -31.0978)
(-1.13179e-13 0.355028 -31.7952)
(-1.62578e-13 -0.105651 -29.8607)
(-1.41743e-13 -0.371947 -26.9881)
(-1.5374e-13 -0.0558953 -26.0255)
(-1.29731e-13 0.0144898 -24.4096)
(-8.51103e-14 -0.0898332 -23.0273)
(-9.54038e-14 -0.148335 -20.9523)
(-1.28918e-13 0.0823727 -19.0844)
(-1.46061e-13 0.502867 -17.8757)
(-1.06357e-13 0.630683 -16.6824)
(-1.16062e-13 0.416859 -15.176)
(-1.87017e-13 -0.693907 -14.3508)
(-2.02229e-13 -4.19947 -8.34578)
(-2.06987e-13 -6.94808 1.46955)
(-4.75281e-13 -4.97783 10.9652)
(-5.05605e-13 -2.02389 18.0586)
(-5.87322e-13 0.518071 21.797)
(-4.88536e-13 2.19494 20.6245)
(-3.29626e-13 3.17686 18.2908)
(-1.61703e-13 2.48465 13.3059)
(-4.2364e-14 0.796001 9.13709)
(-1.83182e-13 -1.46737 11.6385)
(-2.5229e-13 2.7516 12.2723)
(-1.05518e-13 9.77915 -11.7707)
(2.49874e-14 7.30137 -16.083)
(-7.6417e-15 1.5966 -15.3691)
(-1.08756e-14 -9.14569 -5.54049)
(-1.09743e-13 -9.89673 5.67964)
(1.18105e-15 -7.02168 16.8829)
(-3.49177e-14 -3.98582 24.6195)
(-3.43895e-14 -2.08494 29.571)
(1.49079e-13 -1.16684 32.6679)
(-9.65562e-14 -0.71294 34.5464)
(-5.36386e-14 -0.480722 35.7602)
(-4.25065e-14 -0.332246 36.7147)
(-8.51903e-14 -0.212321 37.4629)
(5.06505e-14 -0.111105 38.0416)
(-4.11232e-14 -0.0497428 38.5253)
(-1.06762e-13 -0.010799 38.9578)
(-4.57008e-14 0.00464641 39.3002)
(-2.43909e-14 0.0285757 39.6156)
(-1.28976e-14 0.0574863 39.9483)
(-4.95359e-14 0.119543 40.2678)
(-1.31784e-13 0.178296 40.6618)
(-5.24108e-14 0.179037 40.976)
(3.02239e-14 0.1887 41.159)
(3.97108e-14 0.286609 41.1832)
(-2.08329e-14 0.595699 40.9753)
(1.48953e-14 1.10342 40.2891)
(-1.1808e-13 1.49558 39.356)
(-1.11512e-13 1.62435 38.1626)
(-2.82636e-14 1.45499 36.8428)
(-4.45242e-14 1.16641 36.0423)
(-1.14561e-13 0.697494 35.4197)
(-5.7371e-14 0.179357 35.1676)
(2.00213e-14 -0.156746 35.2506)
(-9.30418e-15 -0.29315 35.5142)
(2.46723e-14 -0.299553 35.8502)
(1.04647e-13 -0.249907 36.1727)
(8.39771e-14 -0.176484 36.4302)
(5.90072e-14 -0.102893 36.6228)
(7.74196e-14 -0.0345243 36.7427)
(5.47412e-14 0.0183808 36.8094)
(5.23674e-14 0.0525424 36.8189)
(4.41817e-14 0.069222 36.8032)
(3.60372e-14 0.0726273 36.7618)
(3.63587e-14 0.057849 36.7159)
(-4.04239e-15 0.000862366 36.6644)
(4.92888e-14 -0.131721 36.674)
(-2.05742e-14 -0.351024 36.8093)
(3.14497e-14 -0.622944 37.1533)
(1.31471e-14 -0.882505 37.707)
(2.26227e-15 -1.07318 38.4481)
(-5.1595e-15 -1.17747 39.2962)
(-5.74257e-15 -1.2093 40.1981)
(-1.01811e-14 -1.19345 41.0987)
(-1.75851e-14 -1.15313 41.9763)
(-2.23822e-14 -1.1026 42.8132)
(-2.50174e-14 -1.05132 43.6082)
(-2.72297e-14 -1.00261 44.3587)
(-2.39757e-14 -0.958635 45.0688)
(-2.45133e-14 -0.918927 45.7403)
(-3.0864e-14 -0.883065 46.3774)
(-4.80893e-14 -0.849716 46.9817)
(-2.832e-14 -0.817772 47.5556)
(-3.13966e-14 -0.786034 48.0996)
(-3.50113e-14 -0.753574 48.6143)
(-3.00165e-14 -0.719816 49.099)
(-1.84685e-14 -0.684399 49.5534)
(-2.87017e-14 -0.647641 49.9768)
(-2.75536e-14 -0.609869 50.3689)
(-2.55256e-14 -0.571743 50.7305)
(-2.50209e-14 -0.534062 51.0607)
(-2.61818e-14 -0.497789 51.3645)
(-2.52871e-14 -0.463351 51.6384)
(-2.49954e-14 -0.438674 51.8799)
(-2.46897e-14 -0.395856 52.1718)
(-6.15888e-14 -0.334542 -29.8209)
(-2.89753e-14 -0.0728745 -29.3243)
(-7.32557e-14 0.45982 -30.5798)
(-9.31055e-14 0.461347 -31.1675)
(-8.02239e-14 -0.17851 -29.0388)
(-8.58471e-14 -0.506623 -26.0817)
(-9.98958e-14 -0.072428 -25.3166)
(-1.30502e-13 0.0641899 -23.8919)
(-7.85191e-14 -0.0693376 -22.5202)
(-6.19451e-14 -0.114465 -20.4911)
(-1.44914e-13 0.179834 -18.7273)
(-1.5959e-13 0.686779 -17.6084)
(-1.63131e-13 0.867253 -16.4791)
(-1.45133e-13 0.720622 -15.048)
(-1.3076e-13 -0.623839 -14.19)
(-6.91307e-14 -5.04546 -8.58602)
(-2.31813e-13 -8.43634 0.769414)
(-4.43336e-13 -6.14946 10.1263)
(-5.07644e-13 -2.67802 16.3337)
(-4.74328e-13 1.28241 22.0727)
(-4.17559e-13 2.65726 19.7083)
(-5.26231e-13 4.03828 17.8243)
(-1.68361e-13 3.47616 13.1082)
(-5.17225e-14 1.45783 4.43289)
(-2.45656e-13 -1.18896 11.8967)
(-1.8581e-13 4.5511 6.16901)
(-9.6436e-15 11.5543 -13.3464)
(-4.85887e-14 7.959 -16.0981)
(6.17912e-15 1.12758 -12.2525)
(-6.59132e-15 -11.4092 -3.73749)
(1.11654e-14 -12.0788 7.11517)
(-1.05647e-14 -8.65322 17.3661)
(-3.12431e-14 -5.09187 24.6413)
(-9.96859e-14 -2.77818 29.4716)
(7.90194e-14 -1.59638 32.5739)
(1.32324e-14 -0.994662 34.4849)
(1.60784e-14 -0.67737 35.7266)
(3.15228e-14 -0.475446 36.6935)
(3.22601e-14 -0.317228 37.4502)
(2.57229e-14 -0.190466 38.0346)
(1.48152e-14 -0.105838 38.5212)
(9.85238e-15 -0.0476939 38.955)
(6.24678e-14 -0.0256135 39.3033)
(-1.77412e-14 -0.00546085 39.6351)
(-2.29844e-14 0.0279045 39.9933)
(-2.60962e-14 0.108222 40.33)
(-2.95538e-14 0.17859 40.7215)
(-4.14544e-14 0.17877 41.0364)
(-4.16079e-14 0.213979 41.2712)
(-4.70569e-14 0.37426 41.3757)
(-4.08509e-14 0.774619 41.2237)
(-8.63157e-15 1.38679 40.5554)
(-8.19449e-14 1.85349 39.642)
(-7.37432e-14 2.00934 38.4731)
(-3.50949e-14 1.79154 37.1676)
(1.58084e-15 1.45121 36.4042)
(-7.94021e-14 0.892553 35.7602)
(-2.06813e-14 0.248071 35.4623)
(-1.57273e-14 -0.175426 35.48)
(-9.21593e-14 -0.355943 35.6784)
(-3.6846e-14 -0.373843 35.9565)
(3.09443e-15 -0.320392 36.2338)
(-7.12026e-15 -0.23376 36.4568)
(-3.3029e-14 -0.144859 36.6235)
(-3.34278e-14 -0.0597153 36.7223)
(4.85298e-14 0.00655338 36.7701)
(-9.13354e-15 0.0503631 36.762)
(-5.17291e-14 0.0725288 36.7292)
(-3.56608e-14 0.080876 36.6685)
(-5.29358e-14 0.0687294 36.5956)
(-5.42223e-14 0.00502126 36.5052)
(-3.38653e-14 -0.157345 36.466)
(-2.07414e-14 -0.434702 36.5518)
(-2.93723e-14 -0.783892 36.8543)
(7.05685e-15 -1.11821 37.3776)
(-3.88087e-14 -1.36408 38.0961)
(-4.64179e-14 -1.49912 38.9254)
(-4.3695e-14 -1.54207 39.81)
(-3.31839e-14 -1.52438 40.6952)
(-6.95017e-15 -1.47517 41.5591)
(-6.01349e-14 -1.41223 42.384)
(-3.75042e-14 -1.34746 43.1681)
(-3.78704e-14 -1.28518 43.9081)
(-4.51465e-14 -1.22833 44.6076)
(-4.53733e-14 -1.17655 45.268)
(-4.27699e-14 -1.12945 45.8932)
(-3.94934e-14 -1.08543 46.4847)
(-4.02515e-14 -1.04318 47.0449)
(-3.38056e-14 -1.0012 47.5744)
(-2.81627e-14 -0.958365 48.0738)
(-3.81115e-14 -0.913932 48.5425)
(-3.19008e-14 -0.86747 48.9802)
(-3.17875e-14 -0.819382 49.3862)
(-2.88215e-14 -0.770149 49.7603)
(-2.69385e-14 -0.720539 50.1035)
(-2.45299e-14 -0.671566 50.4149)
(-2.0774e-14 -0.624327 50.6997)
(-2.49846e-14 -0.579597 50.9536)
(-2.28781e-14 -0.545191 51.178)
(-2.27395e-14 -0.489949 51.4389)
(-8.23382e-14 -0.424036 -29.3632)
(-7.57065e-14 -0.158194 -28.7391)
(-1.18775e-13 0.47427 -29.9787)
(-5.51873e-16 0.542659 -30.4709)
(2.96859e-14 -0.194036 -28.0838)
(-1.64013e-14 -0.523458 -25.2609)
(2.36229e-14 -0.0149244 -24.5963)
(-6.26564e-14 0.12041 -23.0833)
(-1.00311e-14 -0.0849351 -21.6668)
(-2.91486e-14 -0.140674 -19.7359)
(3.52827e-15 0.23409 -18.2266)
(-2.04598e-13 0.829137 -17.4925)
(-1.34964e-13 0.98899 -16.6582)
(-1.15613e-13 0.636168 -15.3144)
(-1.17626e-13 -1.17455 -14.1134)
(-1.4331e-13 -6.06847 -8.75282)
(-2.42005e-13 -9.96157 0.0667888)
(-3.20386e-13 -7.39912 8.8463)
(-5.44672e-13 -3.586 14.5793)
(-5.44935e-13 1.02043 20.2891)
(-4.50231e-13 2.57881 18.4147)
(-2.83435e-13 4.56059 18.0195)
(-1.31432e-14 4.61967 13.7894)
(-1.71269e-13 1.81174 3.38509)
(-2.21412e-13 -0.430648 11.0494)
(-1.36539e-13 6.34049 1.40277)
(-2.08443e-14 12.9361 -14.1336)
(-1.38912e-13 8.24852 -15.8081)
(-5.37241e-14 0.665331 -10.2574)
(6.02998e-14 -13.4741 -1.99794)
(1.28915e-14 -14.1202 8.35987)
(1.00537e-13 -10.1804 17.7995)
(-2.06612e-15 -6.14073 24.6201)
(-2.64672e-14 -3.45241 29.2731)
(-9.80712e-14 -2.01509 32.342)
(-6.96865e-14 -1.26272 34.2695)
(1.38799e-14 -0.858096 35.5312)
(-4.05452e-15 -0.598101 36.5123)
(-7.87561e-15 -0.397423 37.2817)
(-1.81189e-14 -0.241446 37.8722)
(3.55351e-14 -0.131642 38.3586)
(1.62313e-14 -0.0575054 38.793)
(-5.26815e-14 -0.0316726 39.1489)
(2.73491e-15 -0.0170578 39.4924)
(-7.38471e-14 0.0231503 39.8634)
(-7.46494e-14 0.126889 40.2083)
(-7.70803e-14 0.20915 40.6086)
(-8.07136e-14 0.202971 40.9482)
(-7.87148e-14 0.249739 41.2327)
(-7.7448e-14 0.454786 41.4048)
(-6.45814e-14 0.945215 41.3076)
(-6.29911e-14 1.66307 40.6592)
(-6.0771e-14 2.20268 39.7558)
(-5.37193e-14 2.39073 38.6027)
(-4.87512e-14 2.12863 37.307)
(-3.76456e-14 1.74331 36.5758)
(-4.01294e-14 1.10291 35.9146)
(-4.23615e-14 0.344752 35.5797)
(3.57623e-15 -0.159474 35.5435)
(-7.11609e-14 -0.382367 35.6848)
(-6.51511e-14 -0.413347 35.911)
(-8.03383e-14 -0.35931 36.145)
(-7.95138e-14 -0.263019 36.3335)
(-5.61524e-14 -0.161964 36.4731)
(-3.83713e-14 -0.0626373 36.5489)
(-6.49169e-14 0.0149303 36.5753)
(-9.40942e-14 0.0662568 36.5477)
(-3.38551e-14 0.0922603 36.497)
(-2.29281e-14 0.105353 36.4169)
(-8.38075e-14 0.0977813 36.3165)
(-1.40197e-13 0.0298947 36.1859)
(-5.51432e-14 -0.161607 36.0978)
(-6.54092e-14 -0.500375 36.1377)
(-7.30742e-14 -0.932325 36.4077)
(-6.66686e-14 -1.3458 36.9136)
(-7.33939e-14 -1.64865 37.6234)
(-7.82017e-14 -1.81473 38.4468)
(-5.36425e-14 -1.86871 39.3252)
(-5.71407e-14 -1.84934 40.2043)
(-6.99222e-14 -1.79149 41.0624)
(-6.88047e-14 -1.71641 41.8821)
(-8.69279e-14 -1.63819 42.6612)
(-8.29171e-14 -1.56227 43.3961)
(-5.4133e-14 -1.49232 44.0898)
(-5.0621e-14 -1.42821 44.7438)
(-5.93088e-14 -1.36958 45.3615)
(-5.97351e-14 -1.31462 45.9448)
(-5.49898e-14 -1.2618 46.4959)
(-5.14569e-14 -1.20932 47.0155)
(-4.67182e-14 -1.15585 47.5043)
(-4.42496e-14 -1.10049 47.9618)
(-5.4687e-14 -1.04274 48.3875)
(-4.91558e-14 -0.983089 48.7807)
(-4.84863e-14 -0.922193 49.1414)
(-4.78954e-14 -0.860913 49.4706)
(-5.25891e-14 -0.800465 49.7674)
(-4.66958e-14 -0.742061 50.0374)
(-4.51586e-14 -0.686686 50.2754)
(-4.45219e-14 -0.64213 50.4857)
(-4.40956e-14 -0.57365 50.7214)
(-7.76372e-14 -0.445203 -28.8863)
(-1.12687e-13 -0.104045 -28.1957)
(-1.70118e-13 0.622724 -29.3957)
(3.53919e-15 0.622206 -29.7172)
(2.45187e-14 -0.284154 -27.044)
(1.41905e-13 -0.636641 -24.2587)
(-1.40869e-14 -0.012632 -23.6837)
(-1.45938e-14 0.192789 -22.1074)
(3.27543e-14 -0.0473139 -20.5484)
(4.70251e-14 -0.0811707 -18.6498)
(1.9217e-14 0.365409 -17.2375)
(-8.8622e-15 1.04772 -16.6679)
(-5.35812e-14 1.26035 -16.1)
(-9.34511e-14 0.858697 -15.0925)
(-9.33127e-14 -1.29175 -13.9873)
(-1.05771e-13 -6.90849 -8.8435)
(-2.35225e-13 -11.2738 -0.542498)
(-4.91684e-13 -8.35219 7.90786)
(-6.03469e-13 -4.22413 13.2988)
(-8.21314e-13 1.44096 18.5145)
(-3.19534e-13 2.96725 17.1095)
(-2.64246e-13 5.36991 17.8797)
(-1.44393e-13 5.78879 14.2962)
(-1.42991e-13 2.24787 4.09489)
(-2.00271e-13 0.391493 8.16464)
(-1.18094e-13 7.85199 -2.033)
(-1.38213e-13 14.0723 -14.2213)
(-1.00838e-15 8.39853 -14.9984)
(-1.69808e-15 0.0469003 -8.60031)
(-3.4824e-14 -15.4231 -0.386368)
(1.58307e-16 -15.9981 9.42703)
(2.06885e-16 -11.5957 18.1624)
(-5.58238e-15 -7.12601 24.5438)
(9.13463e-15 -4.0999 28.9908)
(-9.36124e-15 -2.43059 31.9942)
(1.71074e-14 -1.54301 33.9148)
(-5.1065e-14 -1.05706 35.1878)
(-2.85026e-14 -0.742592 36.1832)
(-4.66447e-14 -0.500032 36.9699)
(-3.54676e-14 -0.312033 37.5746)
(2.22667e-14 -0.177619 38.0702)
(-5.25595e-14 -0.0888165 38.5162)
(4.85815e-15 -0.0605714 38.894)
(-6.95165e-14 -0.0508985 39.2623)
(-7.20718e-14 -0.00238245 39.6545)
(-7.71422e-14 0.125343 40.0154)
(-8.5272e-14 0.219278 40.4376)
(-6.65458e-14 0.202551 40.8196)
(-1.07427e-13 0.259255 41.159)
(-9.14451e-14 0.517645 41.387)
(-4.61422e-14 1.1082 41.3172)
(-6.92486e-14 1.9392 40.6714)
(-1.55524e-14 2.55381 39.7672)
(-2.31885e-14 2.76773 38.6148)
(-2.66553e-14 2.45152 37.319)
(-2.95318e-14 2.02972 36.6152)
(-3.7184e-14 1.31333 35.9411)
(-8.10942e-14 0.437487 35.5786)
(-1.10497e-14 -0.147707 35.4978)
(-7.8744e-14 -0.413879 35.5906)
(-5.75788e-14 -0.460227 35.771)
(-6.5075e-14 -0.407054 35.9675)
(-5.75889e-14 -0.302035 36.1259)
(-7.1419e-14 -0.188385 36.2422)
(-7.69227e-14 -0.0736652 36.2976)
(-8.38921e-14 0.0168015 36.3046)
(-7.60325e-14 0.0770201 36.2586)
(-4.562e-14 0.108744 36.1913)
(-9.1366e-14 0.130224 36.0927)
(-1.00216e-13 0.132906 35.9649)
(-1.03872e-13 0.0665427 35.793)
(-1.19928e-13 -0.151977 35.6549)
(-1.2015e-13 -0.555192 35.6503)
(-1.34114e-13 -1.07589 35.8924)
(-1.28085e-13 -1.57303 36.3878)
(-1.1909e-13 -1.93441 37.0973)
(-1.50866e-13 -2.13136 37.9238)
(-1.00979e-13 -2.19609 38.8055)
(-9.74699e-14 -2.17503 39.6879)
(-9.30751e-14 -2.10873 40.5495)
(-1.23204e-13 -2.0216 41.373)
(-8.31972e-14 -1.92986 42.1555)
(-9.21469e-14 -1.84004 42.8931)
(-7.63381e-14 -1.75662 43.5882)
(-5.66868e-14 -1.67976 44.2421)
(-5.49547e-14 -1.60921 44.8585)
(-5.05015e-14 -1.54293 45.4392)
(-4.96649e-14 -1.47914 45.9865)
(-5.90296e-14 -1.41581 46.5013)
(-3.85365e-14 -1.35135 46.9842)
(-3.36693e-14 -1.28473 47.4349)
(-4.39141e-14 -1.21538 47.8528)
(-4.56119e-14 -1.14387 48.2373)
(-4.51085e-14 -1.07105 48.5883)
(-4.65679e-14 -0.997887 48.907)
(-4.92527e-14 -0.925762 49.1926)
(-5.02688e-14 -0.856019 49.4508)
(-4.73282e-14 -0.789678 49.6761)
(-4.64365e-14 -0.734649 49.8745)
(-4.64168e-14 -0.652406 50.0898)
(9.22918e-15 -0.525169 -28.5152)
(-5.44725e-14 -0.199057 -27.7798)
(-3.01529e-15 0.599775 -28.9524)
(1.1622e-13 0.657629 -29.1584)
(6.20905e-14 -0.303968 -26.2404)
(1.92599e-14 -0.638723 -23.6967)
(1.01495e-14 0.0181376 -23.0419)
(8.16861e-15 0.236631 -21.0976)
(2.71502e-14 -0.0377967 -19.1972)
(2.54005e-14 -0.0471457 -17.2376)
(4.93635e-14 0.513302 -15.9327)
(5.71685e-14 1.31801 -15.686)
(2.66765e-14 1.53038 -15.5266)
(-2.24736e-14 0.83735 -14.9339)
(-3.76614e-14 -1.83763 -13.8594)
(-5.69771e-14 -7.83376 -8.96851)
(-2.18613e-13 -12.5684 -1.2213)
(-5.02421e-13 -9.43847 7.13939)
(-6.13402e-13 -4.95284 11.8266)
(-5.9764e-13 0.751336 16.0903)
(-5.54862e-13 2.67305 16.4069)
(-4.45184e-13 5.37835 17.6225)
(-5.41754e-13 6.4464 15.288)
(-4.13493e-13 2.8744 6.77153)
(-1.98238e-13 1.61747 5.86974)
(-6.61253e-14 9.20366 -4.36334)
(-3.73022e-14 14.9211 -14.1403)
(1.64833e-14 8.29077 -14.0416)
(-2.36088e-14 -0.697189 -6.98438)
(-2.56573e-14 -17.3166 1.18699)
(1.20556e-14 -17.7609 10.4058)
(1.03165e-14 -12.9225 18.4605)
(3.92279e-14 -8.06276 24.3895)
(1.40732e-16 -4.73335 28.6055)
(-1.19285e-14 -2.84621 31.5294)
(6.48175e-14 -1.82309 33.443)
(-7.27658e-15 -1.25762 34.7305)
(-1.49786e-14 -0.885717 35.7482)
(9.75495e-16 -0.599436 36.5614)
(8.58224e-15 -0.376863 37.1835)
(-2.98627e-15 -0.217818 37.6857)
(-3.18732e-14 -0.115849 38.141)
(1.28366e-14 -0.0866056 38.538)
(-4.36841e-14 -0.0823116 38.9262)
(-5.58472e-14 -0.0270218 39.332)
(-6.02661e-14 0.122602 39.6987)
(-6.16049e-14 0.219143 40.1427)
(-7.50086e-14 0.181667 40.577)
(-1.30364e-13 0.245593 40.9815)
(-5.30688e-14 0.559145 41.2673)
(-5.14131e-14 1.25736 41.2212)
(-1.56251e-14 2.20236 40.5702)
(-4.16063e-14 2.89073 39.6584)
(-6.53405e-14 3.1356 38.5124)
(-5.59622e-14 2.7657 37.2245)
(-5.59214e-14 2.31228 36.558)
(-1.80835e-14 1.5249 35.8807)
(-9.27654e-14 0.544714 35.501)
(-3.36811e-14 -0.113934 35.3861)
(-1.1972e-13 -0.42051 35.4381)
(-4.36472e-14 -0.482562 35.5791)
(-5.22597e-14 -0.432742 35.7407)
(-6.47512e-14 -0.322131 35.8704)
(-7.61244e-14 -0.198963 35.9636)
(-8.83027e-14 -0.0713315 35.9985)
(-6.94375e-14 0.0298897 35.9848)
(-1.44608e-14 0.0964381 35.9199)
(-1.64431e-13 0.131596 35.837)
(-1.9134e-13 0.161065 35.7229)
(-1.59355e-13 0.176488 35.5705)
(-1.34245e-13 0.11499 35.3585)
(-1.53402e-13 -0.129976 35.1703)
(-1.59711e-13 -0.602535 35.1211)
(-1.43943e-13 -1.21942 35.3384)
(-1.40322e-13 -1.8055 35.8308)
(-1.26954e-13 -2.22708 36.5513)
(-8.98702e-14 -2.45473 37.3944)
(-5.09422e-14 -2.52963 38.294)
(-7.48968e-14 -2.50642 39.1942)
(-4.75299e-14 -2.43117 40.0727)
(-3.86563e-14 -2.33137 40.9117)
(-4.14132e-14 -2.22529 41.7072)
(-3.11222e-14 -2.12064 42.4552)
(-1.20743e-14 -2.02278 43.1577)
(-7.83069e-15 -1.93228 43.8164)
(-8.00877e-15 -1.84901 44.435)
(-8.28752e-15 -1.77071 45.0158)
(-1.12442e-14 -1.69534 45.5615)
(-1.74499e-14 -1.6206 46.0732)
(-1.83226e-14 -1.54463 46.5519)
(-9.61607e-15 -1.46627 46.9972)
(-1.58938e-14 -1.38485 47.4087)
(-7.74385e-15 -1.30104 47.7857)
(-1.70411e-14 -1.21586 48.1284)
(-2.25965e-14 -1.13039 48.4378)
(-2.18043e-14 -1.04617 48.7136)
(-2.35101e-14 -0.964635 48.9613)
(-2.26897e-14 -0.886737 49.1752)
(-2.30144e-14 -0.820779 49.3628)
(-2.27478e-14 -0.723763 49.5603)
(-9.36105e-14 -0.561581 -28.0957)
(-5.95195e-14 -0.143052 -27.4132)
(-1.3966e-13 0.727314 -28.536)
(4.29575e-15 0.691227 -28.5681)
(2.99507e-14 -0.436803 -25.3891)
(4.36756e-14 -0.777335 -23.0885)
(-4.14266e-14 -0.0458644 -22.5132)
(3.12441e-14 0.223402 -20.4498)
(4.46586e-14 -0.0672851 -18.2137)
(6.27564e-14 -0.0132712 -16.0766)
(4.84818e-14 0.660862 -14.5616)
(5.06416e-14 1.63428 -14.116)
(3.28114e-14 2.00133 -13.9696)
(4.80934e-15 1.179 -13.8397)
(2.71934e-15 -1.96319 -13.3264)
(-4.95111e-14 -8.55747 -8.86728)
(-1.79406e-13 -13.761 -1.53733)
(-4.44485e-13 -10.3879 6.71187)
(-4.54678e-13 -5.29199 10.8141)
(-6.3836e-13 0.801694 14.2534)
(-5.53229e-13 2.95102 15.8866)
(-5.27802e-13 5.93906 16.8745)
(-4.74297e-13 7.65104 14.6085)
(-5.28761e-13 4.03629 7.24569)
(-2.06358e-13 2.93828 4.05865)
(-1.19138e-13 10.3014 -5.77682)
(4.51571e-14 15.6219 -13.4256)
(-1.48302e-13 8.10473 -12.6405)
(-4.66485e-14 -1.54171 -5.3546)
(-6.49693e-15 -19.1056 2.71065)
(-1.21417e-14 -19.3774 11.2708)
(2.29505e-14 -14.1308 18.6771)
(5.26202e-15 -8.9214 24.1537)
(9.57196e-14 -5.325 28.1263)
(-7.04059e-14 -3.24735 30.958)
(-1.8581e-13 -2.10424 32.856)
(-4.55354e-14 -1.47073 34.1591)
(-4.48e-14 -1.04714 35.204)
(-4.71334e-14 -0.719071 36.0489)
(-4.70269e-14 -0.461294 36.6975)
(-4.63407e-14 -0.277058 37.2177)
(-3.28926e-14 -0.162783 37.6919)
(-5.8853e-14 -0.131365 38.1208)
(-1.22526e-13 -0.129173 38.5437)
(-7.18123e-14 -0.0637679 38.9748)
(-6.98957e-14 0.111913 39.3597)
(-7.20635e-14 0.211328 39.8383)
(-7.59707e-14 0.149657 40.335)
(-8.65951e-14 0.22169 40.8091)
(-8.78034e-14 0.601232 41.1444)
(-5.76871e-14 1.41274 41.0988)
(-4.41638e-14 2.4753 40.4301)
(-5.98582e-14 3.23673 39.505)
(-6.19892e-14 3.5021 38.3559)
(-5.57576e-14 3.06798 37.072)
(-5.79752e-14 2.58995 36.4416)
(-9.72566e-14 1.7355 35.7659)
(-1.02495e-13 0.645001 35.3767)
(-8.129e-14 -0.0870026 35.2341)
(-1.41898e-13 -0.433826 35.2518)
(-7.0757e-14 -0.512766 35.3578)
(-8.54958e-14 -0.466575 35.4896)
(-1.09305e-13 -0.350361 35.595)
(-1.23129e-13 -0.216301 35.6695)
(-9.56676e-14 -0.0736784 35.6866)
(-5.03417e-14 0.0405203 35.654)
(-4.20749e-14 0.114688 35.5715)
(-1.30635e-13 0.154738 35.4758)
(-1.73865e-13 0.195863 35.3493)
(-1.32476e-13 0.230564 35.1739)
(-1.45336e-13 0.180568 34.9191)
(-1.39694e-13 -0.0888609 34.6746)
(-1.10652e-13 -0.63617 34.5762)
(-8.5055e-14 -1.35884 34.7702)
(-5.95713e-14 -2.04147 35.2691)
(-1.36003e-14 -2.5268 36.0158)
(-8.15531e-14 -2.78619 36.8938)
(-9.14845e-15 -2.87135 37.8293)
(2.28879e-14 -2.84562 38.7632)
(1.56699e-14 -2.76062 39.6711)
(1.61283e-14 -2.64702 40.5343)
(2.10695e-14 -2.5252 41.3482)
(3.20419e-14 -2.40428 42.109)
(1.6297e-14 -2.29061 42.819)
(2.16428e-15 -2.1853 43.4808)
(-2.96782e-15 -2.08837 44.0989)
(-6.49892e-15 -1.99734 44.6765)
(-1.23703e-14 -1.90983 45.217)
(-1.56339e-14 -1.82324 45.7221)
(-1.82439e-14 -1.7354 46.1929)
(-1.97549e-14 -1.64502 46.6298)
(-2.06465e-14 -1.5513 47.0322)
(-1.21786e-14 -1.45495 47.3995)
(-2.28052e-14 -1.35721 47.7318)
(-2.98125e-14 -1.25926 48.0305)
(-2.97575e-14 -1.16278 48.2954)
(-2.64894e-14 -1.06929 48.5319)
(-2.20399e-14 -0.979557 48.7342)
(-2.35015e-14 -0.902551 48.911)
(-2.29134e-14 -0.790199 49.0914)
(-1.67404e-14 -0.635375 -27.8492)
(-1.04243e-13 -0.232018 -27.1822)
(-1.05722e-13 0.668778 -28.2668)
(-3.80383e-14 0.679867 -28.1767)
(1.01004e-14 -0.430314 -24.8367)