/*--------------------------------*- C++ -*----------------------------------*\
| =========                 |                                                 |
| \\      /  F ield         | OpenFOAM: The Open Source CFD Toolbox           |
|  \\    /   O peration     | Version:  4.1                                   |
|   \\  /    A nd           | Web:      www.OpenFOAM.org                      |
|    \\/     M anipulation  |                                                 |
\*---------------------------------------------------------------------------*/
FoamFile
{
    version     2.0;
    format      ascii;
    class       volScalarField;
    location    "5";
    object      p;
}
// * * * * * * * * * * * * * * * * * * * * * * * * * * * * * * * * * * * * * //

dimensions      [0 2 -2 0 0 0 0];

internalField   nonuniform List<scalar> 
26785
(
0.105917
0.100541
0.0954389
0.0907236
0.0864335
0.082538
0.0789953
0.0757471
0.0727432
0.0699402
0.0673102
0.064824
0.0624701
0.060224
0.0580791
0.0560155
0.0540305
0.0521122
0.0502621
0.0484783
0.0467626
0.045114
0.0435377
0.0420311
0.0405966
0.0392317
0.0379385
0.0367089
0.0355427
0.0344278
0.0333639
0.0323448
0.0313706
0.030436
0.029539
0.0286726
0.0278368
0.0270314
0.0262558
0.0255107
0.0247964
0.0241116
0.0234552
0.0228242
0.0222137
0.0216197
0.0210403
0.0204764
0.0199298
0.0194008
0.0188867
0.0183831
0.0178846
0.0173879
0.0168924
0.016399
0.0159099
0.0154283
0.0149561
0.0144947
0.0140447
0.0136061
0.0131786
0.0127618
0.0123554
0.0119593
0.011574
0.0112002
0.0108387
0.010491
0.0101577
0.00983896
0.00953399
0.00923969
0.00895041
0.00866152
0.00836909
0.00807069
0.00776468
0.00745006
0.00712655
0.00679476
0.00645597
0.00611167
0.00576312
0.00541115
0.0050561
0.00469798
0.00433659
0.00397171
0.00360311
0.00323074
0.00285488
0.0024765
0.00209719
0.00171853
0.00133899
0.000958484
0.000576714
0.000193006
0.105917
0.100539
0.0954353
0.0907196
0.0864297
0.0825349
0.0789928
0.075745
0.0727416
0.0699391
0.0673095
0.0648236
0.0624701
0.0602243
0.0580796
0.0560161
0.0540312
0.052113
0.0502629
0.0484792
0.0467635
0.0451148
0.0435385
0.0420319
0.0405975
0.0392325
0.0379395
0.03671
0.035544
0.0344291
0.0333653
0.0323463
0.0313723
0.0304378
0.0295409
0.0286747
0.0278389
0.0270335
0.0262579
0.0255127
0.0247981
0.0241134
0.0234571
0.0228265
0.0222163
0.0216224
0.0210429
0.0204789
0.0199324
0.0194035
0.0188898
0.0183864
0.0178881
0.0173913
0.0168957
0.0164021
0.0159127
0.0154308
0.0149584
0.0144969
0.0140469
0.0136084
0.0131808
0.0127638
0.0123572
0.0119609
0.0115754
0.0112015
0.01084
0.0104921
0.0101587
0.00983965
0.00953432
0.0092398
0.00895028
0.00866129
0.0083688
0.00807034
0.00776427
0.00744957
0.00712601
0.00679421
0.00645546
0.00611128
0.0057629
0.00541112
0.00505626
0.0046983
0.00433701
0.00397218
0.00360358
0.00323114
0.00285519
0.00247673
0.00209734
0.00171857
0.00133896
0.000958451
0.000576661
0.000192958
0.105916
0.100534
0.0954281
0.0907118
0.0864224
0.0825286
0.0789875
0.0757408
0.0727383
0.0699367
0.067308
0.0648229
0.06247
0.0602248
0.0580805
0.0560174
0.0540327
0.0521147
0.0502647
0.048481
0.0467654
0.0451167
0.0435404
0.0420337
0.0405993
0.0392342
0.0379415
0.0367121
0.0355464
0.0344316
0.033368
0.0323492
0.0313757
0.0304415
0.0295448
0.0286788
0.0278432
0.0270378
0.0262622
0.0255166
0.0248018
0.024117
0.0234611
0.022831
0.0222215
0.0216279
0.0210483
0.0204842
0.0199376
0.019409
0.0188957
0.0183928
0.0178948
0.017398
0.016902
0.0164081
0.0159182
0.0154357
0.0149629
0.0145012
0.0140512
0.0136126
0.0131849
0.0127675
0.0123605
0.0119639
0.0115783
0.0112042
0.0108427
0.0104947
0.010161
0.00984138
0.00953533
0.00924023
0.00895012
0.00866078
0.00836799
0.0080693
0.00776308
0.00744832
0.0071248
0.00679313
0.00645461
0.00611078
0.00576281
0.00541141
0.00505683
0.00469903
0.00433779
0.00397288
0.00360416
0.0032316
0.00285552
0.00247692
0.00209748
0.00171868
0.00133898
0.000958405
0.000576586
0.00019288
0.105914
0.100526
0.0954172
0.0907002
0.0864115
0.0825191
0.0789796
0.0757344
0.0727334
0.0699332
0.0673058
0.0648218
0.0624698
0.0602255
0.0580818
0.0560192
0.0540348
0.0521173
0.0502674
0.0484838
0.0467682
0.0451196
0.0435432
0.0420364
0.0406021
0.039237
0.0379444
0.0367153
0.0355498
0.0344353
0.0333721
0.0323537
0.0313806
0.0304469
0.0295506
0.028685
0.0278497
0.0270443
0.0262685
0.0255226
0.0248073
0.0241224
0.023467
0.0228378
0.0222292
0.021636
0.0210565
0.020492
0.0199454
0.0194171
0.0189045
0.0184023
0.0179047
0.0174078
0.0169116
0.0164171
0.0159264
0.015443
0.0149696
0.0145077
0.0140577
0.0136189
0.0131908
0.0127729
0.0123654
0.0119684
0.0115826
0.0112085
0.0108469
0.0104987
0.0101645
0.00984411
0.00953702
0.00924095
0.00894994
0.00865997
0.00836666
0.00806758
0.00776115
0.00744634
0.00712291
0.00679149
0.00645341
0.00611013
0.00576275
0.0054119
0.00505772
0.00470011
0.00433888
0.00397384
0.00360488
0.00323211
0.00285592
0.00247724
0.00209775
0.00171884
0.00133912
0.000958478
0.000576552
0.000192804
0.105911
0.100516
0.0954027
0.0906847
0.0863969
0.0825065
0.0789691
0.0757259
0.0727268
0.0699285
0.0673028
0.0648203
0.0624695
0.0602264
0.0580836
0.0560217
0.0540377
0.0521206
0.050271
0.0484876
0.0467719
0.0451235
0.0435469
0.0420401
0.0406057
0.0392406
0.0379482
0.0367195
0.0355544
0.0344402
0.0333775
0.0323597
0.0313872
0.0304541
0.0295583
0.0286933
0.0278584
0.0270531
0.026277
0.0255307
0.0248147
0.0241296
0.0234748
0.0228468
0.0222393
0.0216468
0.0210672
0.0205025
0.0199558
0.0194279
0.0189163
0.018415
0.0179179
0.0174209
0.0169243
0.016429
0.0159372
0.0154527
0.0149785
0.0145163
0.0140662
0.0136273
0.0131987
0.0127801
0.0123719
0.0119744
0.0115883
0.0112142
0.0108526
0.0105041
0.0101692
0.00984788
0.00953945
0.00924202
0.00894977
0.00865889
0.00836483
0.0080652
0.00775845
0.0074436
0.00712035
0.0067893
0.0064518
0.00610927
0.0057627
0.00541253
0.00505886
0.00470148
0.00434021
0.00397496
0.00360577
0.00323279
0.00285644
0.00247768
0.00209823
0.00171925
0.00133937
0.000958619
0.000576602
0.000192764
0.105909
0.100503
0.0953844
0.0906653
0.0863787
0.0824908
0.0789558
0.0757153
0.0727185
0.0699226
0.067299
0.0648185
0.0624692
0.0602276
0.0580857
0.0560248
0.0540413
0.0521248
0.0502754
0.0484922
0.0467767
0.0451283
0.0435517
0.0420447
0.0406104
0.0392452
0.037953
0.0367247
0.03556
0.0344463
0.0333843
0.0323671
0.0313954
0.0304631
0.029568
0.0287037
0.0278694
0.0270642
0.0262877
0.0255408
0.024824
0.0241386
0.0234846
0.022858
0.022252
0.0216603
0.0210807
0.0205157
0.0199688
0.0194414
0.0189309
0.0184309
0.0179343
0.0174373
0.0169401
0.0164439
0.0159507
0.0154648
0.0149896
0.0145271
0.0140768
0.0136377
0.0132086
0.0127891
0.0123799
0.0119818
0.0115955
0.0112214
0.0108597
0.010511
0.0101754
0.00985281
0.00954275
0.00924353
0.00894972
0.00865757
0.00836248
0.00806212
0.00775498
0.00744008
0.00711709
0.00678654
0.00644977
0.0061082
0.00576257
0.00541321
0.00506007
0.00470295
0.00434168
0.00397624
0.00360678
0.00323363
0.00285725
0.00247848
0.002099
0.00171991
0.00133987
0.000958933
0.000576741
0.000192768
0.105905
0.100488
0.0953624
0.0906421
0.0863569
0.0824719
0.07894
0.0757025
0.0727086
0.0699156
0.0672945
0.0648164
0.0624689
0.0602291
0.0580883
0.0560285
0.0540456
0.0521298
0.0502807
0.0484978
0.0467824
0.0451342
0.0435575
0.0420504
0.040616
0.0392508
0.0379587
0.0367309
0.0355667
0.0344536
0.0333923
0.0323761
0.0314051
0.0304738
0.0295796
0.0287162
0.0278827
0.0270775
0.0263007
0.025553
0.0248353
0.0241495
0.0234963
0.0228714
0.022267
0.0216763
0.0210967
0.0205314
0.0199843
0.0194575
0.0189484
0.0184499
0.0179541
0.0174568
0.016959
0.0164618
0.0159669
0.0154792
0.0150028
0.0145398
0.0140895
0.0136501
0.0132204
0.0127997
0.0123894
0.0119907
0.0116042
0.0112301
0.0108684
0.0105193
0.0101829
0.00985897
0.00954702
0.00924562
0.00894987
0.00865605
0.00835958
0.00805828
0.00775068
0.00743576
0.00711311
0.00678319
0.00644734
0.00610681
0.00576222
0.00541375
0.00506124
0.00470443
0.00434318
0.00397761
0.00360801
0.0032348
0.00285845
0.00247967
0.00210022
0.00172099
0.00134072
0.000959485
0.000577026
0.000192835
0.105902
0.100469
0.0953367
0.0906149
0.0863314
0.0824498
0.0789214
0.0756877
0.0726971
0.0699075
0.0672893
0.0648139
0.0624686
0.0602309
0.0580914
0.056033
0.0540507
0.0521357
0.0502868
0.0485044
0.046789
0.0451411
0.0435644
0.042057
0.0406225
0.0392573
0.0379655
0.0367381
0.0355745
0.0344621
0.0334017
0.0323865
0.0314165
0.0304863
0.0295933
0.0287308
0.0278982
0.0270933
0.0263159
0.0255673
0.0248486
0.0241623
0.0235099
0.0228869
0.0222845
0.0216949
0.0211154
0.0205497
0.0200025
0.0194764
0.0189689
0.0184722
0.0179772
0.0174795
0.016981
0.0164827
0.0159858
0.0154959
0.0150182
0.0145546
0.0141042
0.0136646
0.0132339
0.0128121
0.0124005
0.012001
0.0116144
0.0112403
0.0108786
0.0105291
0.0101918
0.00986642
0.00955238
0.00924842
0.00895026
0.0086543
0.00835611
0.00805366
0.00774552
0.00743062
0.00710843
0.00677926
0.00644442
0.006105
0.00576152
0.00541402
0.00506223
0.00470582
0.00434471
0.00397915
0.00360956
0.00323641
0.00286015
0.00248144
0.00210194
0.00172251
0.00134192
0.000960286
0.000577484
0.000192971
0.105898
0.100448
0.0953071
0.0905838
0.0863023
0.0824246
0.0789002
0.0756706
0.072684
0.0698982
0.0672833
0.0648112
0.0624682
0.0602329
0.058095
0.056038
0.0540565
0.0521424
0.0502939
0.0485119
0.0467967
0.045149
0.0435723
0.0420647
0.0406301
0.0392648
0.0379731
0.0367463
0.0355833
0.0344718
0.0334125
0.0323983
0.0314294
0.0305005
0.0296089
0.0287477
0.027916
0.0271114
0.0263335
0.0255838
0.024864
0.0241771
0.0235255
0.0229044
0.0223042
0.021716
0.0211368
0.0205706
0.0200232
0.0194979
0.0189924
0.0184977
0.0180035
0.0175052
0.0170062
0.0165065
0.0160072
0.0155149
0.0150356
0.0145714
0.0141208
0.0136808
0.0132492
0.012826
0.0124132
0.0120129
0.0116261
0.0112522
0.0108904
0.0105406
0.0102023
0.00987522
0.00955887
0.009252
0.00895091
0.00865231
0.00835204
0.00804821
0.00773947
0.00742467
0.00710307
0.00677478
0.00644098
0.00610272
0.00576043
0.00541399
0.005063
0.00470712
0.00434631
0.00398095
0.00361153
0.00323854
0.00286225
0.00248352
0.00210412
0.00172456
0.00134357
0.000961419
0.000578131
0.000193164
0.105893
0.100425
0.0952737
0.0905487
0.0862695
0.0823961
0.0788764
0.0756515
0.0726692
0.0698879
0.0672767
0.0648081
0.0624679
0.0602353
0.0580991
0.0560438
0.0540631
0.0521499
0.0503018
0.0485203
0.0468054
0.045158
0.0435812
0.0420735
0.0406386
0.0392732
0.0379818
0.0367555
0.0355933
0.0344828
0.0334246
0.0324117
0.031444
0.0305166
0.0296264
0.0287667
0.0279361
0.0271318
0.0263533
0.0256025
0.0248814
0.0241938
0.023543
0.0229241
0.0223262
0.0217396
0.0211607
0.0205941
0.0200466
0.0195222
0.0190188
0.0185264
0.018033
0.0175339
0.0170343
0.0165331
0.0160311
0.0155361
0.0150549
0.01459
0.0141393
0.0136988
0.0132662
0.0128416
0.0124275
0.0120265
0.0116395
0.0112657
0.010904
0.0105537
0.0102143
0.00988542
0.00956647
0.00925636
0.00895177
0.00865
0.00834729
0.00804191
0.00773255
0.00741794
0.00709708
0.00676974
0.00643701
0.00609997
0.00575894
0.00541365
0.0050636
0.0047084
0.00434809
0.00398311
0.00361379
0.0032407
0.0028646
0.00248624
0.00210703
0.00172725
0.00134569
0.000962822
0.000578898
0.000193374
0.105889
0.100398
0.0952363
0.0905096
0.086233
0.0823645
0.0788498
0.0756303
0.0726528
0.0698764
0.0672693
0.0648048
0.0624676
0.0602379
0.0581036
0.0560502
0.0540704
0.0521583
0.0503106
0.0485297
0.0468151
0.0451681
0.0435913
0.0420833
0.0406481
0.0392826
0.0379914
0.0367657
0.0356044
0.034495
0.033438
0.0324265
0.0314603
0.0305343
0.0296459
0.0287879
0.0279585
0.0271545
0.0263755
0.0256235
0.024901
0.0242126
0.0235624
0.0229458
0.0223506
0.0217658
0.0211875
0.0206204
0.0200727
0.0195493
0.0190482
0.0185582
0.0180655
0.0175655
0.0170652
0.0165623
0.0160573
0.0155593
0.0150762
0.0146103
0.0141593
0.0137185
0.0132849
0.0128589
0.0124436
0.0120419
0.0116547
0.011281
0.0109192
0.0105685
0.010228
0.00989707
0.00957524
0.00926147
0.00895276
0.00864726
0.00834175
0.0080347
0.00772476
0.0074105
0.00709053
0.00676417
0.00643255
0.00609679
0.00575712
0.00541311
0.00506411
0.00470972
0.00434993
0.00398516
0.00361604
0.00324334
0.00286777
0.00248985
0.00211066
0.00173041
0.00134804
0.000964308
0.000579654
0.000193549
0.105885
0.100368
0.0951949
0.0904664
0.0861929
0.0823297
0.0788207
0.075607
0.0726349
0.0698638
0.0672613
0.0648012
0.0624674
0.0602409
0.0581087
0.0560573
0.0540785
0.0521675
0.0503204
0.0485401
0.0468258
0.0451793
0.0436024
0.0420942
0.0406585
0.039293
0.038002
0.0367769
0.0356167
0.0345086
0.0334529
0.0324429
0.0314783
0.0305539
0.0296674
0.0288113
0.027983
0.0271795
0.0263999
0.0256466
0.0249227
0.0242335
0.0235839
0.0229696
0.0223773
0.0217946
0.021217
0.0206495
0.0201016
0.0195793
0.0190805
0.0185928
0.0181009
0.0175996
0.0170988
0.0165939
0.0160856
0.0155844
0.0150992
0.0146324
0.014181
0.0137397
0.0133051
0.012878
0.0124616
0.0120592
0.0116719
0.0112982
0.0109363
0.010585
0.0102432
0.00991013
0.00958515
0.00926728
0.00895383
0.00864407
0.0083354
0.00802652
0.00771607
0.00740234
0.00708346
0.00675809
0.00642756
0.00609314
0.00575496
0.00541235
0.00506448
0.00471094
0.00435179
0.00398757
0.00361902
0.00324697
0.00287194
0.00249426
0.00211473
0.00173367
0.00135029
0.000965632
0.000580273
0.000193648
0.105881
0.100335
0.0951494
0.0904192
0.086149
0.0822918
0.0787889
0.0755817
0.0726154
0.0698502
0.0672526
0.0647974
0.0624672
0.0602442
0.0581143
0.0560651
0.0540875
0.0521777
0.0503311
0.0485515
0.0468376
0.0451915
0.0436146
0.0421061
0.04067
0.0393042
0.0380136
0.0367892
0.0356301
0.0345235
0.0334694
0.0324609
0.031498
0.0305753
0.0296907
0.0288367
0.0280097
0.0272067
0.0264267
0.025672
0.0249466
0.0242565
0.0236075
0.0229957
0.0224065
0.0218261
0.0212494
0.0206816
0.0201334
0.0196121
0.0191156
0.0186302
0.0181387
0.0176362
0.0171347
0.0166277
0.0161159
0.0156114
0.015124
0.014656
0.0142041
0.0137624
0.0133271
0.0128989
0.0124816
0.0120786
0.011691
0.0113173
0.0109551
0.0106031
0.0102599
0.00992448
0.00959603
0.0092736
0.00895486
0.00864035
0.00832826
0.00801746
0.00770658
0.00739359
0.00707599
0.00675157
0.00642208
0.00608906
0.00575248
0.00541139
0.00506483
0.00471236
0.00435414
0.00399077
0.00362305
0.00325169
0.00287701
0.00249915
0.00211879
0.00173657
0.00135209
0.000966628
0.000580714
0.000193675
0.105877
0.100299
0.0950997
0.0903678
0.0861013
0.0822506
0.0787545
0.0755543
0.0725943
0.0698356
0.0672434
0.0647933
0.0624671
0.0602478
0.0581204
0.0560736
0.0540972
0.0521888
0.0503429
0.048564
0.0468506
0.0452049
0.0436278
0.042119
0.0406824
0.0393163
0.0380261
0.0368025
0.0356447
0.0345398
0.0334874
0.0324806
0.0315195
0.0305985
0.029716
0.0288641
0.0280385
0.027236
0.0264556
0.0256996
0.0249727
0.0242817
0.0236333
0.023024
0.0224382
0.0218605
0.0212848
0.0207168
0.0201683
0.0196479
0.0191535
0.01867
0.0181787
0.0176749
0.0171726
0.0166633
0.016148
0.0156402
0.0151505
0.0146812
0.0142287
0.0137866
0.0133508
0.0129218
0.0125038
0.0121003
0.0117123
0.0113382
0.0109757
0.0106228
0.010278
0.0099399
0.00960762
0.00928016
0.00895569
0.00863609
0.00832042
0.00800772
0.00769652
0.00738446
0.00706828
0.00674475
0.00641632
0.00608479
0.0057499
0.00541048
0.0050654
0.00471422
0.00435718
0.00399491
0.00362812
0.00325731
0.00288258
0.00250401
0.00212236
0.00173876
0.0013533
0.000967322
0.00058107
0.000193679
0.105873
0.10026
0.0950457
0.0903122
0.08605
0.0822063
0.0787174
0.0755248
0.0725718
0.0698199
0.0672335
0.064789
0.0624671
0.0602518
0.058127
0.0560828
0.0541078
0.0522009
0.0503557
0.0485776
0.0468647
0.0452193
0.0436421
0.0421329
0.0406957
0.0393294
0.0380396
0.0368169
0.0356605
0.0345576
0.033507
0.032502
0.0315428
0.0306236
0.029743
0.0288934
0.0280693
0.0272673
0.0264868
0.0257296
0.025001
0.0243092
0.0236615
0.0230547
0.0224726
0.0218978
0.0213234
0.0207553
0.0202064
0.0196866
0.0191938
0.0187119
0.0182207
0.0177155
0.0172123
0.0167004
0.0161818
0.0156707
0.0151787
0.014708
0.0142547
0.0138123
0.0133763
0.0129469
0.0125282
0.0121242
0.0117357
0.0113611
0.0109978
0.0106439
0.0102972
0.00995604
0.00961951
0.0092866
0.00895613
0.00863131
0.00831212
0.00799764
0.00768627
0.00737527
0.00706056
0.00673789
0.0064106
0.00608065
0.00574755
0.00540985
0.00506635
0.00471662
0.00436093
0.00399985
0.00363392
0.00326338
0.00288816
0.00250835
0.0021251
0.00174019
0.00135407
0.000967947
0.000581535
0.000193734
0.105871
0.100216
0.0949873
0.0902523
0.0859948
0.0821587
0.0786778
0.0754934
0.0725477
0.0698033
0.0672231
0.0647846
0.0624672
0.0602561
0.0581342
0.0560928
0.0541193
0.052214
0.0503697
0.0485924
0.0468799
0.0452349
0.0436575
0.0421478
0.0407099
0.0393432
0.038054
0.0368324
0.0356776
0.034577
0.0335284
0.0325252
0.031568
0.0306506
0.0297719
0.0289245
0.028102
0.0273008
0.0265202
0.0257619
0.0250318
0.0243392
0.0236922
0.0230881
0.0225098
0.0219382
0.0213653
0.0207971
0.0202477
0.0197281
0.0192365
0.0187556
0.0182641
0.0177579
0.0172535
0.016739
0.0162171
0.015703
0.0152086
0.0147364
0.0142822
0.0138396
0.0134035
0.0129741
0.0125551
0.0121504
0.0117612
0.0113857
0.0110213
0.010666
0.0103171
0.00997248
0.00963123
0.00929253
0.00895608
0.00862611
0.00830366
0.00798768
0.00767631
0.0073664
0.00705308
0.0067313
0.00640527
0.00607698
0.00574563
0.00540961
0.00506768
0.00471944
0.00436513
0.00400521
0.00363998
0.0032694
0.00289327
0.00251188
0.00212707
0.00174117
0.00135485
0.000968881
0.000582299
0.000193906
0.10587
0.10017
0.0949245
0.0901882
0.0859359
0.082108
0.0786356
0.0754599
0.0725223
0.0697858
0.0672122
0.0647799
0.0624674
0.0602607
0.0581419
0.0561035
0.0541316
0.052228
0.0503848
0.0486084
0.0468964
0.0452516
0.0436738
0.0421636
0.040725
0.039358
0.0380693
0.0368489
0.0356959
0.0345978
0.0335515
0.0325502
0.031595
0.0306795
0.0298027
0.0289575
0.0281367
0.0273363
0.0265559
0.0257967
0.025065
0.0243717
0.0237257
0.0231242
0.0225499
0.0219817
0.0214104
0.0208423
0.0202922
0.0197723
0.0192811
0.0188007
0.0183089
0.0178018
0.017296
0.0167788
0.0162541
0.0157372
0.0152404
0.0147663
0.0143112
0.0138683
0.0134325
0.0130033
0.0125841
0.0121788
0.0117886
0.0114118
0.011046
0.0106888
0.0103372
0.00998874
0.00964233
0.00929766
0.00895552
0.00862074
0.00829547
0.00797836
0.00766715
0.00735824
0.0070461
0.00672526
0.00640059
0.00607392
0.00574418
0.00540968
0.00506919
0.00472234
0.00436934
0.00401049
0.00364579
0.00327493
0.00289769
0.0025147
0.00212872
0.00174251
0.00135627
0.000970304
0.000583453
0.000194232
0.10587
0.10012
0.094857
0.0901197
0.0858732
0.0820541
0.0785907
0.0754245
0.0724954
0.0697673
0.0672008
0.0647752
0.0624678
0.0602657
0.0581502
0.0561149
0.0541448
0.0522431
0.050401
0.0486256
0.0469141
0.0452695
0.0436912
0.0421804
0.040741
0.0393735
0.0380855
0.0368665
0.0357156
0.0346202
0.0335764
0.032577
0.0316239
0.0307102
0.0298352
0.0289922
0.0281732
0.027374
0.0265941
0.0258341
0.0251009
0.0244071
0.0237621
0.0231632
0.0225929
0.0220283
0.0214587
0.0208906
0.0203397
0.019819
0.0193276
0.0188471
0.0183549
0.0178471
0.0173398
0.01682
0.0162927
0.0157734
0.0152741
0.014798
0.0143416
0.0138985
0.0134632
0.0130346
0.0126154
0.0122093
0.0118177
0.0114393
0.0110716
0.010712
0.0103572
0.0100044
0.00965245
0.00930184
0.00895458
0.00861554
0.00828801
0.0079702
0.00765924
0.00735109
0.00703976
0.00671992
0.00639662
0.0060714
0.00574302
0.00540975
0.00507049
0.0047249
0.00437313
0.00401528
0.00365104
0.00327984
0.00290161
0.00251754
0.00213134
0.00174464
0.00135819
0.000972365
0.000585242
0.000194771
0.105871
0.100065
0.0947847
0.0900468
0.0858066
0.081997
0.0785434
0.0753871
0.072467
0.0697479
0.0671889
0.0647704
0.0624683
0.0602712
0.058159
0.056127
0.0541589
0.0522592
0.0504184
0.0486442
0.0469331
0.0452886
0.0437097
0.0421981
0.0407579
0.0393899
0.0381025
0.0368851
0.0357364
0.034644
0.0336028
0.0326056
0.0316546
0.0307428
0.0298696
0.0290288
0.0282118
0.0274141
0.0266348
0.0258743
0.0251398
0.0244457
0.0238019
0.0232055
0.022639
0.0220779
0.02151
0.020942
0.0203901
0.0198679
0.0193755
0.0188945
0.018402
0.0178938
0.0173848
0.0168627
0.0163333
0.0158118
0.0153099
0.0148315
0.0143736
0.0139302
0.0134955
0.0130676
0.0126485
0.0122416
0.0118483
0.0114679
0.0110978
0.0107352
0.0103766
0.010019
0.00966141
0.00930511
0.00895356
0.00861096
0.00828181
0.00796366
0.00765294
0.00734512
0.00703413
0.00671524
0.00639317
0.0060691
0.00574173
0.0054094
0.00507118
0.00472677
0.00437622
0.0040194
0.00365572
0.00328453
0.00290629
0.00252161
0.00213449
0.00174728
0.00136092
0.000975404
0.000587899
0.000195614
0.105873
0.100007
0.0947076
0.0899694
0.0857363
0.0819368
0.0784935
0.0753478
0.0724374
0.0697277
0.0671767
0.0647655
0.062469
0.060277
0.0581685
0.0561399
0.054174
0.0522764
0.050437
0.048664
0.0469534
0.0453088
0.0437292
0.0422168
0.0407757
0.0394072
0.0381205
0.0369048
0.0357586
0.0346693
0.0336308
0.0326358
0.031687
0.0307772
0.029906
0.0290673
0.0282526
0.0274566
0.0266783
0.0259174
0.025182
0.0244878
0.0238453
0.0232511
0.0226879
0.0221302
0.021564
0.0209959
0.0204428
0.0199188
0.0194247
0.0189429
0.0184503
0.0179421
0.0174312
0.0169073
0.0163761
0.0158524
0.0153479
0.0148666
0.0144069
0.0139633
0.0135292
0.0131022
0.0126833
0.0122754
0.0118802
0.0114972
0.0111241
0.010758
0.0103951
0.0100324
0.0096692
0.00930775
0.00895294
0.00860752
0.00827734
0.00795907
0.00764838
0.00734032
0.00702911
0.00671096
0.00638983
0.00606654
0.00573984
0.00540821
0.00507094
0.00472776
0.0043786
0.00402321
0.00366082
0.00329038
0.00291168
0.00252597
0.0021383
0.001751
0.00136492
0.000979645
0.000591528
0.000196908
0.105879
0.0999429
0.0946254
0.0898875
0.0856621
0.0818734
0.078441
0.0753065
0.0724064
0.0697067
0.067164
0.0647606
0.06247
0.0602834
0.0581786
0.0561535
0.0541899
0.0522946
0.0504567
0.0486851
0.0469749
0.0453303
0.0437498
0.0422364
0.0407944
0.0394254
0.0381394
0.0369254
0.0357818
0.0346958
0.0336602
0.0326676
0.031721
0.0308134
0.0299442
0.0291078
0.0282956
0.0275017
0.0267247
0.0259639
0.0252279
0.0245338
0.0238926
0.0233001
0.0227395
0.0221849
0.0216202
0.0210521
0.0204977
0.0199714
0.0194751
0.0189923
0.0184999
0.017992
0.0174795
0.016954
0.0164214
0.0158956
0.0153879
0.0149033
0.0144417
0.0139977
0.0135643
0.0131381
0.0127194
0.0123105
0.011913
0.0115269
0.0111504
0.0107801
0.0104124
0.0100446
0.00967605
0.00931018
0.00895327
0.00860576
0.00827499
0.00795659
0.00764549
0.0073365
0.00702448
0.00670669
0.00638609
0.00606321
0.00573693
0.00540599
0.00506995
0.00472836
0.00438105
0.0040274
0.00366623
0.00329626
0.00291729
0.00253111
0.00214344
0.00175633
0.00137029
0.000984856
0.000596541
0.000198822
0.105886
0.0998754
0.0945381
0.0898009
0.085584
0.0818068
0.0783861
0.0752634
0.0723741
0.0696849
0.0671511
0.0647558
0.0624713
0.0602902
0.0581893
0.0561679
0.0542068
0.052314
0.0504777
0.0487075
0.0469978
0.045353
0.0437716
0.0422571
0.040814
0.0394445
0.0381591
0.036947
0.0358062
0.0347235
0.0336909
0.0327008
0.0317567
0.0308514
0.0299845
0.0291505
0.0283411
0.0275497
0.0267743
0.026014
0.0252781
0.0245843
0.023944
0.0233526
0.0227937
0.0222415
0.0216783
0.02111
0.0205543
0.0200255
0.0195267
0.0190427
0.018551
0.018044
0.0175298
0.0170032
0.0164694
0.0159412
0.0154297
0.0149413
0.0144778
0.0140337
0.0136008
0.0131753
0.0127567
0.0123465
0.0119464
0.0115569
0.0111763
0.0108013
0.0104286
0.0100555
0.00968231
0.00931297
0.00895513
0.00860611
0.00827497
0.00795615
0.00764398
0.00733333
0.00701993
0.006702
0.0063815
0.00605888
0.00573327
0.00540334
0.00506844
0.00472842
0.00438304
0.00403131
0.00367163
0.0033025
0.0029238
0.00253754
0.00215058
0.00176332
0.0013764
0.000991651
0.000603228
0.000201395
0.105895
0.0998033
0.0944454
0.0897097
0.0855021
0.0817371
0.0783287
0.0752185
0.0723405
0.0696623
0.0671378
0.064751
0.0624729
0.0602975
0.0582007
0.056183
0.0542247
0.0523345
0.0505
0.0487312
0.047022
0.0453769
0.0437946
0.0422788
0.0408347
0.0394646
0.0381799
0.0369696
0.0358316
0.0347522
0.0337227
0.0327353
0.0317938
0.0308912
0.0300268
0.0291956
0.0283893
0.0276008
0.0268274
0.0260682
0.0253328
0.0246396
0.0239998
0.0234086
0.0228502
0.0222995
0.0217376
0.0211692
0.0206122
0.020081
0.0195794
0.0190943
0.0186036
0.0180981
0.0175828
0.0170553
0.0165202
0.015989
0.0154727
0.0149804
0.0145151
0.0140712
0.0136391
0.0132138
0.0127949
0.0123833
0.0119803
0.0115868
0.0112016
0.0108216
0.0104436
0.0100656
0.00968847
0.00931669
0.00895884
0.00860884
0.00827728
0.00795744
0.0076434
0.0073304
0.00701515
0.0066966
0.00637606
0.00605375
0.00572863
0.00539952
0.00506592
0.00472781
0.00438477
0.00403529
0.00367746
0.00330967
0.00293199
0.00254677
0.00215972
0.00177087
0.0013843
0.00100044
0.000611395
0.000204433
0.105907
0.0997259
0.0943472
0.0896138
0.0854163
0.0816643
0.0782689
0.0751717
0.0723056
0.069639
0.0671243
0.0647463
0.062475
0.0603054
0.0582128
0.056199
0.0542435
0.0523562
0.0505234
0.0487561
0.0470475
0.0454021
0.0438187
0.0423016
0.0408564
0.0394857
0.0382016
0.0369932
0.0358579
0.0347818
0.0337555
0.0327711
0.0318325
0.0309328
0.0300713
0.029243
0.0284402
0.0276551
0.0268843
0.0261269
0.0253927
0.0247001
0.0240601
0.0234679
0.0229087
0.0223585
0.0217976
0.0212294
0.0206713
0.0201377
0.0196332
0.0191471
0.018658
0.0181546
0.017639
0.0171106
0.0165739
0.0160386
0.0155174
0.0150209
0.0145533
0.0141096
0.0136788
0.0132541
0.0128343
0.0124207
0.0120146
0.0116166
0.0112264
0.010841
0.0104577
0.0100753
0.009695
0.0093218
0.00896424
0.00861392
0.0082816
0.00795992
0.00764317
0.00732729
0.00700989
0.00669037
0.00636952
0.00604726
0.00572258
0.00539451
0.00506264
0.00472692
0.00438667
0.00403988
0.00368437
0.0033185
0.00294238
0.00255734
0.00216936
0.00178052
0.00139467
0.0010111
0.000620355
0.000207537
0.105923
0.0996429
0.0942432
0.0895131
0.0853267
0.0815884
0.0782067
0.0751231
0.0722696
0.069615
0.0671105
0.0647418
0.0624774
0.060314
0.0582257
0.0562158
0.0542633
0.0523789
0.0505482
0.0487823
0.0470743
0.0454285
0.043844
0.0423256
0.0408792
0.039508
0.0382243
0.0370176
0.0358851
0.0348122
0.0337891
0.032808
0.0318727
0.0309762
0.0301179
0.0292929
0.028494
0.0277128
0.0269453
0.0261903
0.025458
0.0247659
0.024125
0.0235306
0.022969
0.0224181
0.021858
0.0212903
0.0207313
0.0201956
0.0196885
0.0192014
0.0187142
0.0182133
0.0176983
0.0171692
0.0166303
0.0160908
0.0155642
0.015063
0.0145925
0.0141484
0.0137191
0.0132954
0.0128752
0.0124592
0.0120492
0.0116464
0.0112506
0.0108597
0.0104713
0.0100849
0.00970232
0.00932853
0.00897069
0.00862095
0.00828731
0.0079629
0.00764272
0.00732359
0.00700382
0.00668301
0.00636156
0.00603927
0.00571521
0.00538863
0.00505913
0.00472645
0.00438945
0.00404554
0.0036926
0.00332869
0.00295358
0.00256939
0.00218175
0.00179313
0.00140747
0.00102297
0.000629146
0.000210245
0.105943
0.0995523
0.0941333
0.0894075
0.0852332
0.0815094
0.0781421
0.0750728
0.0722324
0.0695903
0.0670965
0.0647374
0.0624803
0.0603232
0.0582393
0.0562334
0.0542841
0.0524028
0.0505742
0.0488099
0.0471022
0.0454561
0.0438705
0.0423506
0.0409031
0.0395314
0.0382481
0.0370429
0.035913
0.0348433
0.0338236
0.0328461
0.0319144
0.0310215
0.0301667
0.0293454
0.0285508
0.0277741
0.0270106
0.0262588
0.0255288
0.0248372
0.0241944
0.0235964
0.0230309
0.022478
0.0219185
0.0213517
0.0207924
0.0202549
0.0197453
0.0192574
0.0187723
0.0182744
0.0177606
0.0172311
0.01669
0.016146
0.0156135
0.0151067
0.0146324
0.0141874
0.0137595
0.0133373
0.012917
0.0124988
0.0120847
0.0116764
0.0112746
0.010878
0.0104847
0.0100948
0.00971068
0.00933685
0.00897848
0.00862926
0.00829359
0.00796566
0.00764153
0.00731894
0.00699666
0.00667433
0.00635218
0.00603
0.00570704
0.00538267
0.00505589
0.00472595
0.00439213
0.00405187
0.00370218
0.00334077
0.00296743
0.00258469
0.00219737
0.00180856
0.00142198
0.00103507
0.000636795
0.00021218
0.105967
0.0994572
0.0940174
0.0892971
0.0851358
0.0814274
0.0780752
0.0750208
0.0721941
0.069565
0.0670824
0.0647333
0.0624838
0.0603331
0.0582538
0.0562521
0.054306
0.0524278
0.0506014
0.0488387
0.0471315
0.0454849
0.0438981
0.0423767
0.0409281
0.039556
0.038273
0.0370691
0.0359417
0.034875
0.0338589
0.0328855
0.0319578
0.0310687
0.0302177
0.0294005
0.0286107
0.0278392
0.0270804
0.0263325
0.0256052
0.0249139
0.0242682
0.0236653
0.0230943
0.0225381
0.0219789
0.0214136
0.0208547
0.0203157
0.019804
0.0193153
0.0188325
0.018338
0.017826
0.0172966
0.0167532
0.0162044
0.0156654
0.0151521
0.0146731
0.0142264
0.0137997
0.0133793
0.0129592
0.0125392
0.0121211
0.0117072
0.0112989
0.0108963
0.0104984
0.0101054
0.00972009
0.0093464
0.00898735
0.00863793
0.00829957
0.00796756
0.0076392
0.00731307
0.00698824
0.00666439
0.00634171
0.00602003
0.00569837
0.00537594
0.00505204
0.00472607
0.00439659
0.00406043
0.0037142
0.00335548
0.00298405
0.00260265
0.00221547
0.00182582
0.00143703
0.0010463
0.000642546
0.00021316
0.105995
0.0993557
0.0938952
0.0891817
0.0850346
0.0813424
0.078006
0.0749672
0.0721548
0.0695392
0.0670682
0.0647294
0.0624878
0.0603438
0.0582692
0.0562716
0.0543289
0.0524539
0.0506299
0.0488688
0.047162
0.0455147
0.0439267
0.0424038
0.0409541
0.0395816
0.0382989
0.0370962
0.0359711
0.0349073
0.033895
0.0329261
0.0320029
0.0311179
0.030271
0.0294583
0.0286739
0.0279082
0.027155
0.0264114
0.0256869
0.0249956
0.0243461
0.0237371
0.0231592
0.0225986
0.0220395
0.0214765
0.0209185
0.0203786
0.019865
0.0193756
0.018895
0.0184042
0.0178945
0.0173654
0.01682
0.0162661
0.0157198
0.0151991
0.0147145
0.0142654
0.0138396
0.0134212
0.0130017
0.01258
0.012158
0.0117385
0.011324
0.0109154
0.0105127
0.0101166
0.00973014
0.00935644
0.00899664
0.00864619
0.00830471
0.00796822
0.00763548
0.00730582
0.00697855
0.00665329
0.00633012
0.00600895
0.00568912
0.00536984
0.0050502
0.00472898
0.00440399
0.00407173
0.00372866
0.00337237
0.00300263
0.00262226
0.00223492
0.00184404
0.00145162
0.00105569
0.000645993
0.00021321
0.106028
0.0992471
0.0937665
0.0890614
0.0849296
0.0812544
0.0779345
0.0749119
0.0721144
0.0695127
0.0670539
0.0647259
0.0624925
0.0603553
0.0582855
0.0562922
0.0543529
0.0524812
0.0506596
0.0489002
0.0471938
0.0455458
0.0439564
0.0424319
0.040981
0.0396083
0.0383258
0.0371242
0.0360013
0.0349403
0.033932
0.0329681
0.0320497
0.0311691
0.0303267
0.0295189
0.0287404
0.0279813
0.0272342
0.0264953
0.0257736
0.0250819
0.024428
0.0238117
0.0232259
0.0226598
0.0221006
0.0215406
0.0209845
0.020444
0.0199288
0.0194388
0.0189602
0.0184731
0.017966
0.0174376
0.0168901
0.0163308
0.0157766
0.0152476
0.0147566
0.0143045
0.0138792
0.0134629
0.0130444