/*--------------------------------*- C++ -*----------------------------------*\
| =========                 |                                                 |
| \\      /  F ield         | OpenFOAM: The Open Source CFD Toolbox           |
|  \\    /   O peration     | Version:  4.1                                   |
|   \\  /    A nd           | Web:      www.OpenFOAM.org                      |
|    \\/     M anipulation  |                                                 |
\*---------------------------------------------------------------------------*/
FoamFile
{
    version     2.0;
    format      ascii;
    class       surfaceScalarField;
    location    "5";
    object      phi;
}
// * * * * * * * * * * * * * * * * * * * * * * * * * * * * * * * * * * * * * //

dimensions      [0 3 -1 0 0 0 0];

internalField   nonuniform List<scalar> 
52920
(
16.8384
-0.00348079
16.8204
0.0179799
16.7814
0.0390247
16.7227
0.058634
16.6458
0.0768984
16.5524
0.0934678
16.4437
0.10862
16.3215
0.122276
16.1867
0.134775
16.0406
0.14608
15.8842
0.156428
15.7185
0.165732
15.5443
0.174106
15.3627
0.181695
15.1744
0.188222
14.9803
0.19415
14.7811
0.199144
14.5776
0.203525
14.3704
0.207243
14.1599
0.210458
13.9469
0.212994
13.7317
0.215252
13.5147
0.217
13.2964
0.218281
13.077
0.219407
12.857
0.219967
12.6367
0.220262
12.4163
0.220407
12.1962
0.220154
11.9765
0.219701
11.7574
0.219101
11.5393
0.21805
11.3225
0.21682
11.107
0.215539
10.8931
0.213907
10.6809
0.212156
10.4707
0.210248
10.2628
0.207831
10.0577
0.205159
9.8553
0.202362
9.65591
0.199388
9.4593
0.196611
9.26519
0.194109
9.07353
0.191661
8.88433
0.189192
8.69787
0.186465
8.51457
0.183294
8.33475
0.179825
8.15839
0.176354
7.98528
0.173114
7.81515
0.170128
7.64788
0.167269
7.48356
0.164321
7.32249
0.161069
7.16506
0.157433
7.01159
0.153478
6.86222
0.149362
6.71691
0.145319
6.57539
0.141511
6.43746
0.137934
6.303
0.13446
6.1721
0.130903
6.04495
0.12715
5.9217
0.123245
5.8024
0.119305
5.68698
0.115418
5.57535
0.111636
5.46743
0.107923
5.36322
0.104209
5.26276
0.100453
5.16613
0.0966348
5.07336
0.09276
4.98447
0.0888895
4.89918
0.0852925
4.81743
0.0817471
4.73956
0.077876
4.66564
0.0739172
4.59572
0.069922
4.5298
0.0659115
4.46791
0.0618959
4.41003
0.0578751
4.35619
0.0538439
4.3064
0.0497862
4.26072
0.0456777
4.21922
0.0415046
4.18196
0.0372592
4.14903
0.0329323
4.12051
0.0285192
4.09649
0.0240191
4.07705
0.0194361
4.06226
0.0147856
4.05218
0.010087
4.04683
0.00534644
4.04627
0.000555083
4.05057
-0.00429142
4.05968
-0.00911194
4.07385
-0.0141724
4.09326
-0.0194123
4.11806
-0.0247982
-0.0302622
16.8382
-0.00711589
16.8202
0.0359567
16.7811
0.0780684
16.7225
0.117281
16.6456
0.153823
16.5521
0.186943
16.4435
0.217251
16.3212
0.244562
16.1864
0.269553
16.0403
0.292168
15.8839
0.312856
15.7181
0.331495
15.544
0.348225
15.3623
0.363436
15.174
0.37647
14.9798
0.388338
14.7807
0.398305
14.5771
0.40705
14.3699
0.414462
14.1595
0.420899
13.9465
0.425991
13.7312
0.430518
13.5141
0.434063
13.2958
0.436608
13.0764
0.438862
12.8563
0.439974
12.6361
0.440519
12.4157
0.440826
12.1955
0.440334
11.9758
0.439386
11.7567
0.438194
11.5387
0.436109
11.3219
0.433602
11.1063
0.431071
10.8924
0.427845
10.6802
0.424308
10.47
0.420533
10.2621
0.41573
10.0569
0.410328
9.85451
0.404741
9.65509
0.398806
9.4585
0.393198
9.26439
0.388218
9.07269
0.38336
8.88348
0.378398
8.69703
0.372914
8.5138
0.366523
8.33408
0.359544
8.15781
0.352626
7.98471
0.346216
7.81454
0.340295
7.64722
0.33459
7.48284
0.328696
7.32173
0.322182
7.16429
0.314873
7.01085
0.306921
6.86156
0.29866
6.7163
0.290575
6.5748
0.28301
6.43683
0.275906
6.30233
0.268962
6.17142
0.26182
6.04429
0.254277
5.92109
0.246446
5.80182
0.238579
5.6864
0.230841
5.57474
0.223294
5.46678
0.215881
5.36253
0.208458
5.26205
0.200936
5.16538
0.193298
5.07259
0.185551
4.98367
0.177809
4.89837
0.17059
4.81659
0.16352
4.7387
0.155769
4.66478
0.14784
4.59486
0.139837
4.52897
0.131801
4.46711
0.123761
4.40927
0.115715
4.35546
0.107649
4.30571
0.0995338
4.26007
0.0913177
4.21861
0.0829695
4.18138
0.0744794
4.14848
0.0658318
4.11999
0.0570083
4.096
0.0480072
4.07659
0.0388448
4.06182
0.0295538
4.05174
0.0201726
4.04637
0.010719
4.04576
0.00116334
4.04998
-0.0085147
4.05903
-0.0181627
4.07314
-0.0282837
4.09248
-0.0387528
4.11719
-0.0495069
-0.0604228
16.8377
-0.0108075
16.8197
0.0539461
16.7807
0.117138
16.722
0.17596
16.645
0.230781
16.5515
0.280446
16.4429
0.325899
16.3206
0.36687
16.1858
0.404336
16.0397
0.438276
15.8832
0.469291
15.7174
0.497304
15.5433
0.5224
15.3614
0.545255
15.1731
0.564803
14.9789
0.582577
14.7797
0.597476
14.5762
0.610546
14.369
0.621622
14.1586
0.63131
13.9456
0.639036
13.7302
0.645858
13.513
0.651252
13.2946
0.655057
13.0751
0.658379
12.855
0.66005
12.6347
0.660809
12.4143
0.661251
12.1941
0.660545
11.9744
0.659057
11.7554
0.657234
11.5373
0.654164
11.3205
0.650372
11.105
0.646572
10.8911
0.641821
10.6789
0.636492
10.4686
0.630841
10.2606
0.623729
10.0553
0.615576
9.85289
0.60717
9.65338
0.598313
9.45674
0.589837
9.26262
0.582333
9.07092
0.575057
8.88179
0.567528
8.69549
0.559215
8.51241
0.549604
8.33278
0.539172
8.15653
0.528878
7.9834
0.519342
7.81319
0.510505
7.64584
0.501939
7.48146
0.493074
7.32036
0.483287
7.16296
0.472274
7.00959
0.460295
6.86034
0.447913
6.71509
0.435826
6.57357
0.424526
6.43558
0.413894
6.30111
0.403438
6.17026
0.392668
6.04321
0.381335
5.92005
0.369605
5.80078
0.357853
5.68531
0.346304
5.5736
0.335008
5.46559
0.323889
5.36129
0.312758
5.26075
0.301478
5.16402
0.290027
5.07114
0.278423
4.98214
0.266811
4.8968
0.255923
4.81497
0.245356
4.73703
0.233705
4.6631
0.221774
4.5932
0.209736
4.52735
0.197648
4.46555
0.185558
4.40779
0.173476
4.35407
0.161366
4.30443
0.149178
4.2589
0.136849
4.21753
0.124335
4.1804
0.111608
4.14759
0.0986456
4.11917
0.0854235
4.09524
0.0719382
4.07586
0.0582199
4.06109
0.0443274
4.05094
0.0303142
4.04548
0.0161825
4.04476
0.00188016
4.04886
-0.0126136
4.05776
-0.0270639
4.07173
-0.0422449
4.0909
-0.057922
4.1154
-0.0740158
-0.0904073
16.8371
-0.0144612
16.8191
0.0719575
16.7799
0.156247
16.7212
0.234686
16.6442
0.307786
16.5507
0.373991
16.442
0.434576
16.3197
0.48921
16.1849
0.539132
16.0387
0.584411
15.8823
0.625745
15.7164
0.663173
15.5421
0.696668
15.3602
0.727177
15.1718
0.75326
14.9774
0.77688
14.7783
0.796649
14.5748
0.814003
14.3677
0.828719
14.1573
0.841695
13.9442
0.852169
13.7287
0.86132
13.5114
0.868608
13.2928
0.873674
13.0732
0.877972
12.853
0.880209
12.6326
0.881167
12.4122
0.881684
12.192
0.880776
11.9723
0.878729
11.7533
0.876214
11.5353
0.872206
11.3185
0.86715
11.103
0.862037
10.889
0.85583
10.6768
0.848734
10.4665
0.841177
10.2583
0.83184
10.053
0.820949
9.85047
0.809668
9.65086
0.797924
9.45413
0.786565
9.26
0.776461
9.06834
0.766713
8.87934
0.75653
8.69324
0.74532
8.51032
0.732514
8.33078
0.718718
8.15452
0.705137
7.98135
0.692506
7.8111
0.680752
7.64373
0.669308
7.47938
0.657433
7.31832
0.644347
7.16099
0.629603
7.00771
0.613578
6.85851
0.597116
6.71325
0.581082
6.57172
0.566056
6.43375
0.551871
6.29933
0.537856
6.16858
0.523415
6.04161
0.508309
5.91848
0.492736
5.79919
0.477147
5.68367
0.461827
5.57188
0.446799
5.46379
0.43197
5.35941
0.417137
5.25878
0.402112
5.16195
0.386857
5.06896
0.371409
4.97984
0.35593
4.89445
0.341307
4.81254
0.327269
4.73455
0.311695
4.6606
0.295718
4.59074
0.279605
4.52494
0.263439
4.46323
0.247273
4.40558
0.231126
4.35199
0.214958
4.30248
0.198689
4.25708
0.182242
4.21585
0.165566
4.17883
0.148624
4.14611
0.131366
4.11777
0.113764
4.09388
0.0958291
4.0745
0.0776008
4.05967
0.0591493
4.04944
0.0405453
4.04384
0.0217879
4.04295
0.00276441
4.04687
-0.0165369
4.05561
-0.0357986
4.06936
-0.0559973
4.0883
-0.0768591
4.11258
-0.0982931
-0.120201
16.8362
-0.0179855
16.8182
0.0899978
16.779
0.195407
16.7202
0.293476
16.6431
0.38485
16.5495
0.467592
16.4408
0.543296
16.3184
0.611597
16.1836
0.673949
16.0374
0.73059
15.8809
0.782235
15.715
0.829119
15.5406
0.871052
15.3586
0.909219
15.17
0.941861
14.9756
0.971257
14.7764
0.99582
14.573
1.01742
14.366
1.03577
14.1556
1.05207
13.9423
1.06543
13.7267
1.07694
13.5092
1.08615
13.2903
1.09249
13.0707
1.09766
12.8504
1.10046
12.63
1.10162
12.4095
1.10213
12.1893
1.10102
11.9696
1.09842
11.7506
1.09515
11.5326
1.09024
11.3158
1.08396
11.1003
1.07748
10.8863
1.06986
10.674
1.06105
10.4636
1.05155
10.2554
1.04005
10.0499
1.02646
9.84731
1.01225
9.64759
0.997642
9.45076
0.983401
9.25661
0.970609
9.06502
0.958302
8.87617
0.945376
8.69027
0.931224
8.50751
0.91527
8.32802
0.898207
8.15173
0.881428
7.97851
0.865722
7.80823
0.85103
7.64086
0.836681
7.47655
0.821743
7.31559
0.805314
7.15837
0.786819
7.00521
0.766744
6.85607
0.746252
6.71082
0.726339
6.56929
0.707587
6.43135
0.689806
6.29702
0.672188
6.16639
0.654049
6.0395
0.635198
5.91638
0.615857
5.79704
0.596488
5.68144
0.577428
5.56955
0.558688
5.46137
0.540152
5.35688
0.521622
5.25612
0.502868
5.15916
0.483817
5.06604
0.464527
4.97679
0.445183
4.89133
0.426761
4.80934
0.409256
4.7313
0.389735
4.65735
0.369675
4.58751
0.349443
4.52178
0.329165
4.46016
0.308897
4.40263
0.288658
4.34917
0.26841
4.29981
0.248056
4.25455
0.2275
4.21343
0.206686
4.1765
0.18555
4.14384
0.164025
4.11553
0.142073
4.09164
0.119719
4.07221
0.0970291
4.05728
0.0740809
4.04689
0.0509371
4.0411
0.0275759
4.04002
0.0038393
4.04374
-0.0202573
4.05227
-0.0443266
4.06583
-0.0695561
4.08456
-0.0955903
4.10863
-0.122364
-0.149825
16.8351
-0.0214108
16.817
0.10806
16.7778
0.234612
16.7189
0.352342
16.6418
0.461986
16.5481
0.561266
16.4394
0.652073
16.3169
0.734047
16.182
0.808806
16.0358
0.876831
15.8793
0.93878
15.7132
0.995154
15.5387
1.04557
15.3565
1.09139
15.1678
1.13061
14.9733
1.16571
14.7742
1.195
14.5708
1.22083
14.3637
1.24281
14.1533
1.26247
13.9399
1.27884
13.7241
1.29275
13.5064
1.30388
13.2873
1.3115
13.0676
1.31744
12.8472
1.32079
12.6267
1.32218
12.4062
1.32262
12.1859
1.32129
11.9662
1.31816
11.7472
1.31409
11.5292
1.30828
11.3123
1.30082
11.0969
1.29291
10.8829
1.2839
10.6705
1.27345
10.4601
1.26195
10.2518
1.24833
10.0461
1.23211
9.84347
1.21492
9.64365
1.19746
9.44669
1.18035
9.25252
1.16478
9.061
1.14982
8.8723
1.13407
8.68657
1.11695
8.50393
1.09791
8.32445
1.07768
8.1481
1.05778
7.97481
1.03901
7.80452
1.02133
7.63718
1.00402
7.47296
0.985959
7.31215
0.966126
7.15511
0.943861
7.0021
0.919754
6.85306
0.895298
6.70782
0.87158
6.5663
0.849106
6.42843
0.827675
6.2942
0.80642
6.16366
0.784587
6.03683
0.762033
5.91369
0.738995
5.79428
0.715901
5.67859
0.693122
5.56659
0.670689
5.45828
0.648455
5.35368
0.626229
5.25278
0.603763
5.15567
0.580926
5.06241
0.557787
4.97302
0.534569
4.88749
0.512289
4.80543
0.491313
4.72735
0.467817
4.65338
0.443644
4.58357
0.419258
4.5179
0.394833
4.45636
0.370438
4.39893
0.346089
4.34559
0.321744
4.29635
0.297302
4.25118
0.272668
4.21012
0.247743
4.17324
0.222434
4.1406
0.196666
4.11227
0.170401
4.08831
0.143676
4.06876
0.116578
4.05366
0.0891842
4.04305
0.0615397
4.03703
0.0335999
4.03572
0.00514634
4.03924
-0.0237721
4.04759
-0.0526823
4.06099
-0.0829503
4.07957
-0.114173
4.10351
-0.146305
-0.179331
16.8338
-0.025012
16.8157
0.12617
16.7764
0.273883
16.7174
0.411298
16.6402
0.539208
16.5465
0.655026
16.4376
0.760926
16.3151
0.856582
16.1801
0.943726
16.0338
1.02316
15.8772
1.0954
15.7111
1.16129
15.5364
1.22022
15.3541
1.27367
15.1652
1.31949
14.9707
1.36026
14.7715
1.3942
14.5681
1.42426
14.361
1.4499
14.1505
1.47294
13.9369
1.49244
13.7209
1.50875
13.503
1.52177
13.2838
1.53071
13.0639
1.53734
12.8435
1.54121
12.6228
1.54286
12.4023
1.54316
12.182
1.54159
11.9621
1.53798
11.7432
1.53307
11.5251
1.52635
11.3081
1.51777
11.0927
1.50836
10.8786
1.49793
10.6662
1.4859
10.4558
1.47238
10.2475
1.45662
10.0417
1.43784
9.83899
1.41766
9.63908
1.39737
9.442
1.37743
9.24778
1.359
9.05632
1.34128
8.86774
1.32265
8.68214
1.30256
8.49954
1.28051
8.32003
1.25719
8.14358
1.23422
7.97021
1.21238
7.79991
1.19163
7.63265
1.17128
7.46859
1.15002
7.308
1.12671
7.15122
1.10065
6.99839
1.07258
6.84945
1.04424
6.70425
1.01678
6.56277
0.990594
6.42497
0.965468
6.29084
0.940558
6.16036
0.915062
6.03355
0.888849
5.91037
0.862174
5.79086
0.83541
5.67506
0.808931
5.56293
0.782813
5.45449
0.756892
5.34975
0.730967
5.24873
0.704786
5.15148
0.678176
5.05808
0.651184
4.96858
0.624068
4.88298
0.597882
4.80087
0.573428
4.72275
0.545936
4.64877
0.517622
4.57896
0.489065
4.51333
0.460471
4.45184
0.431925
4.39448
0.403452
4.34121
0.375011
4.29201
0.346498
4.24687
0.31781
4.20581
0.288799
4.16891
0.259339
4.13622
0.229355
4.1078
0.198818
4.0837
0.167772
4.06397
0.136317
4.04862
0.104532
4.03773
0.0724218
4.03144
0.0398994
4.0299
0.00668258
4.03323
-0.0271014
4.04145
-0.0609076
4.05477
-0.0962658
4.07331
-0.13271
4.09721
-0.170213
-0.208771
16.8323
-0.0286976
16.8141
0.144329
16.7748
0.313229
16.7157
0.470355
16.6384
0.616529
16.5445
0.74889
16.4356
0.869874
16.3129
0.979224
16.1779
1.07874
16.0315
1.1696
15.8747
1.25212
15.7085
1.32754
15.5337
1.395
15.3513
1.45605
15.1623
1.50849
14.9677
1.55489
14.7684
1.59346
14.5649
1.62777
14.3577
1.6571
14.1471
1.68353
13.9333
1.70624
13.7171
1.72495
13.4991
1.73981
13.2797
1.75009
13.0597
1.75735
12.8392
1.7617
12.6184
1.76365
12.3978
1.76378
12.1774
1.76195
11.9575
1.75793
11.7384
1.75216
11.5202
1.7445
11.3032
1.73482
11.0877
1.72387
10.8737
1.71195
10.6612
1.69837
10.4508
1.68279
10.2425
1.66487
10.0367
1.64361
9.83392
1.62048
9.63392
1.59737
9.43672
1.57464
9.24243
1.55329
9.051
1.53271
8.86249
1.51116
8.67693
1.48811
8.49431
1.46313
8.31469
1.43681
8.13813
1.41079
7.96466
1.38584
7.79437
1.36192
7.62726
1.3384
7.46343
1.31385
7.30314
1.287
7.14667
1.25712
6.99406
1.22519
6.84524
1.19306
6.70011
1.16191
6.55868
1.13203
6.42095
1.10319
6.28689
1.07462
6.15645
1.0455
6.02962
1.01569
5.90637
0.985423
5.78674
0.955036
5.6708
0.924877
5.55854
0.895073
5.44996
0.865468
5.34509
0.835836
5.24396
0.805921
5.1466
0.775531
5.0531
0.744684
4.96352
0.71365
4.87788
0.68352
4.79573
0.655577
4.71758
0.624086
4.64358
0.591619
4.57376
0.558889
4.50811
0.526121
4.44662
0.493414
4.38925
0.460818
4.33596
0.428299
4.28672
0.39574
4.24152
0.36301
4.20039
0.329933
4.16338
0.296343
4.13057
0.262165
4.102
0.227395
4.07768
0.192085
4.05767
0.156327
4.04201
0.120192
4.0308
0.0836342
4.02419
0.0465046
4.02244
0.00844035
4.02566
-0.0303283
4.03388
-0.0691209
4.04724
-0.109626
4.06584
-0.151311
4.08979
-0.194165
-0.238182
16.8305
-0.0323942
16.8123
0.162548
16.7729
0.352659
16.7137
0.529527
16.6363
0.693964
16.5423
0.842875
16.4332
0.97894
16.3105
1.102
16.1753
1.21388
16.0287
1.31618
15.8719
1.40897
15.7055
1.4939
15.5306
1.5699
15.3482
1.63851
15.1591
1.69758
14.9644
1.7496
14.765
1.79282
14.5614
1.83143
14.354
1.8645
14.1432
1.8943
13.9292
1.92025
13.7128
1.94133
13.4946
1.95797
13.2751
1.96961
13.055
1.97747
12.8344
1.98226
12.6135
1.98456
12.3928
1.98451
12.1723
1.98241
11.9522
1.97803
11.733
1.97143
11.5147
1.96277
11.2975
1.952
11.0819
1.93945
10.8679
1.92596
10.6555
1.91083
10.4451
1.89317
10.2369
1.87303
10.0312
1.84937
9.8283
1.82335
9.62822
1.79745
9.43088
1.77198
9.23649
1.74768
9.04503
1.72417
8.85651
1.69968
8.67094
1.67368
8.48822
1.64585
8.30844
1.61659
8.13172
1.5875
7.95817
1.55938
7.78793
1.53217
7.62101
1.50532
7.45748
1.47737
7.29756
1.44692
7.14146
1.41323
6.98909
1.37756
6.84041
1.34174
6.69537
1.30695
6.55399
1.27342
6.41632
1.24086
6.28231
1.20863
6.15187
1.17595
6.02497
1.14258
5.90163
1.10877
5.78187
1.0748
5.66577
1.04098
5.55337
1.00748
5.44466
0.974175
5.33968
0.940821
5.23846
0.907141
5.14104
0.87294
5.0475
0.838222
4.95789
0.80326
4.87224
0.769172
4.79009
0.737729
4.71191
0.702263
4.63787
0.665656
4.56799
0.628767
4.50227
0.591845
4.44069
0.554991
4.38323
0.518282
4.32981
0.481716
4.28041
0.445139
4.23505
0.408375
4.19374
0.371235
4.15656
0.333528
4.12355
0.295176
4.09473
0.25621
4.07013
0.216688
4.04977
0.176682
4.03373
0.136232
4.02216
0.0952123
4.01532
0.0533358
4.01351
0.0102554
4.01677
-0.0335916
4.02508
-0.0774343
4.03857
-0.123116
4.0573
-0.170036
4.08133
-0.218192
-0.267565
16.8286
-0.0360057
16.8103
0.18081
16.7708
0.392181
16.7115
0.588823
16.634
0.771526
16.5398
0.936998
16.4306
1.08815
16.3077
1.22495
16.1724
1.34918
16.0256
1.46294
15.8686
1.56597
15.7021
1.66037
15.5272
1.74488
15.3447
1.821
15.1555
1.88671
14.9607
1.94441
14.7612
1.99232
14.5574
2.0353
14.3497
2.07219
14.1387
2.1053
13.9244
2.13447
13.7079
2.15789
13.4896
2.17622
13.27
2.18923
13.0498
2.1977
12.8291
2.20289
12.6081
2.20556
12.3873
2.20537
12.1667
2.203
11.9464
2.19834
11.7269
2.19092
11.5085
2.1812
11.2911
2.16933
11.0755
2.15513
10.8615
2.13994
10.6491
2.12323
10.4388
2.10346
10.2308
2.08105
10.0251
2.05507
9.82215
2.02627
9.62197
1.99762
9.42447
1.96948
9.22993
1.94221
9.0384
1.9157
8.8498
1.88828
8.66412
1.85936
8.48124
1.82872
8.30126
1.79658
8.12438
1.76438
7.95077
1.73299
7.78059
1.70235
7.61392
1.67199
7.45077
1.64053
7.29127
1.60643
7.13556
1.56894
6.98346
1.52966
6.83492
1.49028
6.68998
1.45189
6.54866
1.41473
6.41102
1.3785
6.27702
1.34263
6.14654
1.30643
6.01955
1.26957
5.89609
1.23224
5.77619
1.1947
5.65993
1.15723
5.54738
1.12002
5.43856
1.083
5.33349
1.04589
5.23222
1.00841
5.13482
0.970347
5.04131
0.931726
4.95175
0.89282
4.86614
0.854783
4.78402
0.819842
4.70582
0.780463
4.63171
0.739769
4.56172
0.698761
4.49583
0.657727
4.43406
0.616763
4.37638
0.575969
4.3227
0.53539
4.27302
0.49482
4.22737
0.454024
4.1858
0.412806
4.14835
0.370979
4.11506
0.32847
4.08593
0.285337
4.06097
0.241652
4.04021
0.197439
4.02384
0.1526
4.01213
0.106928
4.00529
0.0601762
4.00352
0.0120181
4.0069
-0.0369642
4.01536
-0.0858979
4.02901
-0.136763
4.04785
-0.188884
4.07193
-0.242267
-0.296886
16.8263
-0.0393904
16.8081
0.199018
16.7685
0.431776
16.7091
0.648256
16.6314
0.849228
16.5371
1.03128
16.4277
1.19752
16.3046
1.34809
16.1691
1.4847
16.0221
1.60992
15.8649
1.72314
15.6983
1.82698
15.5233
1.91992
15.3408
2.00349
15.1516
2.07585
14.9568
2.1393
14.7571
2.19202
14.5529
2.23945
14.3449
2.28022
14.1336
2.31661
13.9191
2.34893
13.7024
2.37461
13.4841
2.39455
13.2644
2.40893
13.044
2.41802
12.8234
2.42358
12.6023
2.42666
12.3812
2.42637
12.1605
2.42375
11.94
2.41888
11.7202
2.41067
11.5016
2.39985
11.2841
2.38681
11.0683
2.37093
10.8543
2.3539
10.642
2.33553
10.4318
2.31364
10.224
2.28889
10.0184
2.26065
9.81544
2.22924
9.61515
2.19791
9.41747
2.16716
9.22274
2.13694
9.03106
2.10737
8.84232
2.07702
8.65647
2.04521
8.47339
2.0118
8.29318
1.97679
8.11614
1.94141
7.9425
1.90663
7.77243
1.87242
7.60605
1.83837
7.44332
1.80326
7.28427
1.76547
7.12896
1.72426
6.97713
1.68149
6.82873
1.63868
6.68386
1.59676
6.5426
1.556
6.40497
1.51613
6.27094
1.47666
6.1404
1.43697
6.0133
1.39668
5.88969
1.35585
5.76964
1.31474
5.65324
1.27364
5.54055
1.23271
5.43164
1.19191
5.32653
1.151
5.22527
1.10966
5.12793
1.06769
5.03453
1.02512
4.94508
0.982265
4.85955
0.940312
4.77752
0.901875
4.69932
0.858661
4.62511
0.813982
4.55493
0.768941
4.48879
0.723862
4.42671
0.678848
4.36867
0.634008
4.31461
0.589451
4.26452
0.54491
4.21846
0.500077
4.17652
0.454751
4.13872
0.408781
4.10508
0.362113
4.0756
0.314813
4.05033
0.266927
4.02938
0.218389
4.01294
0.169031
4.00125
0.118626
3.99448
0.0669453
3.99282
0.0136762
3.99633
-0.0404738
4.00495
-0.0945162
4.01873
-0.150548
4.03765
-0.207803
4.06169
-0.266312
-0.32607
16.824
-0.0430697
16.8057
0.217322
16.766
0.471475
16.7064
0.707838
16.6286
0.927086
16.5341
1.12574
16.4246
1.30708
16.3012
1.47145
16.1654
1.62046
16.0182
1.75714
15.8608
1.88053
15.6941
1.99371
15.519
2.09501
15.3365
2.18596
15.1474
2.26498
14.9524
2.33427
14.7525
2.39195
14.548
2.44395
14.3396
2.48868
14.1279
2.52827
13.9132
2.56361
13.6963
2.59149
13.4779
2.61294
13.2582
2.62868
13.0378
2.63842
12.817
2.64433
12.5959
2.64784
12.3747
2.64753
12.1537
2.6447
11.933
2.63966
11.7129
2.63072
11.494
2.61873
11.2764
2.60444
11.0605
2.58685
10.8465
2.56786
10.6344
2.5477
10.4243
2.52368
10.2166
2.49655
10.0112
2.46613
9.80814
2.43227
9.60771
2.39835
9.40981
2.36505
9.21484
2.33191
9.02298
2.29924
8.83404
2.26595
8.64797
2.23128
8.46469
2.19508
8.28425
2.15722
8.10708
2.11859
7.93345
2.08027
7.76352
2.04235
7.59744
2.00446
7.43514
1.96556
7.27656
1.92406
7.12162
1.8792
6.97004
1.83307
6.82176
1.78696
6.67695
1.74157
6.53572
1.69723
6.39808
1.65378
6.26399
1.61074
6.13337
1.56759
6.00615
1.5239
5.8824
1.4796
5.76221
1.43493
5.64567
1.39018
5.53287
1.34551
5.4239
1.30088
5.31879
1.2561
5.2176
1.21085
5.12038
1.16491
5.02715
1.11836
4.93787
1.07154
4.85244
1.02574
4.77049
0.983827
4.69228
0.936864
4.61794
0.888322
4.54753
0.839358
4.48107
0.790319
4.41859
0.741332
4.36009
0.692503
4.30554
0.643996
4.25497
0.595481
4.20847
0.546586
4.16611
0.497108
4.12795
0.446944
4.09399
0.396066
4.06428
0.344529
4.03886
0.292343
4.01787
0.239384
4.00147
0.185432
3.98985
0.130246
3.98318
0.0736093
3.98165
0.0152144
3.98529
-0.0441178
3.99403
-0.103262
4.0079
-0.16441
4.02679
-0.226698
4.05069
-0.290211
-0.355014
16.8215
-0.0469627
16.8031
0.235716
16.7633
0.511289
16.7036
0.767581
16.6255
1.00511
16.5309
1.22039
16.4211
1.41686
16.2975
1.59507
16.1615
1.75651
16.0139
1.90464
15.8563
2.03815
15.6894
2.16059
15.5143
2.27012
15.3319
2.36839
15.1428
2.45406
14.9478
2.5293
14.7476
2.59215
14.5427
2.64885
14.3338
2.69761
14.1217
2.74032
13.9068
2.77853
13.6898
2.80852
13.4713
2.8314
13.2515
2.84848
13.031
2.8589
12.8102
2.86514
12.5889
2.8691
12.3676
2.86886
12.1464
2.86586
11.9254
2.86069
11.7051
2.85105
11.486
2.83786
11.2682
2.82223
11.0521
2.80288
10.8382
2.78182
10.6261
2.75974
10.4162
2.73359
10.2087
2.70406
10.0033
2.6715
9.80022
2.6354
9.59959
2.59898
9.40145
2.56319
9.2062
2.52716
9.01409
2.49134
8.82494
2.4551
8.63864
2.41758
8.45515
2.37857
8.27455
2.33782
8.09727
2.29586
7.92368
2.25385
7.75393
2.2121
7.58815
2.17024
7.42628
2.12742
7.26815
2.08219
7.11353
2.03383
6.96215
1.98445
6.81396
1.93515
6.66918
1.88636
6.52795
1.83846
6.39027
1.79145
6.2561
1.74491
6.12538
1.69831
5.99805
1.65123
5.87417
1.60349
5.75385
1.55525
5.6372
1.50683
5.52432
1.45838
5.41533
1.40988
5.31028
1.36115
5.20922
1.31191
5.11217
1.26196
5.01914
1.21139
4.93004
1.16064
4.84472
1.11106
4.76284
1.06571
4.68461
1.01509
4.61012
0.962812
4.53943
0.91005
4.4726
0.85715
4.40966
0.804269
4.35065
0.751517
4.29557
0.69907
4.24452
0.646536
4.19759
0.593519
4.15487
0.539824
4.11642
0.485396
4.08225
0.430235
4.0524
0.374378
4.02694
0.317802
4.00598
0.260345
3.98966
0.201753
3.97814
0.141765
3.97159
0.0801632
3.97017
0.0166375
3.97392
-0.047876
3.98275
-0.112087
3.9966
-0.178258
4.01534
-0.245439
4.03894
-0.313816
-0.383598
16.8189
-0.0510427
16.8003
0.254239
16.7604
0.551227
16.7005
0.8275
16.6223
1.08332
16.5274
1.31526
16.4174
1.52687
16.2935
1.71896
16.1571
1.89288
16.0093
2.05245
15.8514
2.19604
15.6844
2.32763
15.5092
2.44526
15.3269
2.55075
15.1379
2.64307
14.9428
2.7244
14.7423
2.79264
14.537
2.85418
14.3275
2.90704
14.115
2.95281
13.8999
2.99372
13.6827
3.02571
13.4641
3.04996
13.2443
3.06832
13.0237
3.07948
12.8028
3.08605
12.5814
3.09043
12.36
3.09034
12.1386
3.08724
11.9173
3.08194
11.6967
3.07164
11.4774
3.05722
11.2595
3.04016
11.0433
3.01902
10.8293
2.99582
10.6174
2.97167
10.4076
2.94338
10.2002
2.91146
9.99487
2.87681
9.7916
2.83866
9.59072
2.79986
9.3923
2.7616
9.19673
2.72273
9.00436
2.68371
8.81499
2.64447
8.62848
2.60409
8.44484
2.56221
8.26412
2.51853
8.0868
2.47318
7.91329
2.42736
7.74373
2.38166
7.57824
2.33574
7.41677
2.28889
7.25904
2.23992
7.10466
2.18821
6.9534
2.13571
6.80526
2.08329
6.66045
2.03117
6.51918
1.97973
6.38146
1.92918
6.24721
1.87916
6.11639
1.82913
5.98897
1.77865
5.86497
1.72748
5.74455
1.67568
5.62783
1.62355
5.51492
1.57129
5.40595
1.51885
5.30101
1.46609
5.20013
1.4128
5.10329
1.3588
5.01046
1.30421
4.92154
1.24956
4.8363
1.19629
4.75446
1.14755
4.67618
1.09338
4.60152
1.03747
4.53053
0.981032
4.46331
0.924372
4.3999
0.867678
4.34036
0.811061
4.28478
0.754653
4.23329
0.69802
4.18602
0.640796
4.14303
0.582809
4.10439
0.524042
4.0701
0.464522
4.04021
0.404268
4.01478
0.343232
3.9939
0.28123
3.97767
0.217978
3.96626
0.153184
3.9598
0.0866136
3.95848
0.0179578
3.96232
-0.0517148
3.97115
-0.120914
3.98486
-0.191964
4.00328
-0.263861
4.02642
-0.336963
-0.411697
16.816
-0.0552166
16.7974
0.272861
16.7573
0.591302
16.6972
0.887609
16.6188
1.16173
16.5237
1.41036
16.4134
1.63715
16.2892
1.84315
16.1525
2.02959
16.0043
2.2006
15.8462
2.35423
15.6789
2.49487
15.5037
2.62044
15.3214
2.73306
15.1325
2.83202
14.9374
2.91953
14.7366
2.99342
14.5308
3.05995
14.3209
3.11698
14.1079
3.16576
13.8925
3.20918
13.6751
3.24307
13.4564
3.26865
13.2365
3.28822
13.0158
3.30015
12.7948
3.30706
12.5734
3.31186
12.3517
3.31198
12.1301
3.30882
11.9087
3.30337
11.6879
3.29244
11.4684
3.27679
11.2503
3.25821
11.0341
3.23526
10.82
3.20987
10.6082
3.18352
10.3984
3.1531
10.191
3.11885
9.9857
3.08216
9.78222
3.04214
9.58102
3.00106
9.38229
2.96033
9.1864
2.91862
8.99376
2.87635
8.8042
2.83403
8.61753
2.79076
8.43379
2.74595
8.25305
2.69927
8.07575
2.65049
7.90235
2.60075
7.73299
2.55102
7.56775
2.50098
7.40661
2.45004
7.2492
2.39733
7.09496
2.34244
6.94374
2.28693
6.79559
2.23145
6.65072
2.17604
6.50937
2.12108
6.37157
2.06697
6.23725
2.01349
6.10635
1.96003
5.97886
1.90614
5.8548
1.85154
5.73431
1.79618
5.61756
1.7403
5.50468
1.68417
5.39578
1.62775
5.29098
1.57089
5.19031
1.51348
5.09369
1.45542
5.00105
1.39685
4.91226
1.33835
4.82707
1.28148
4.74525
1.22937
4.66688
1.17175
4.59203
1.11232
4.52076
1.0523
4.45316
0.991976
4.3893
0.931537
4.32927
0.871092
4.27326
0.810668
4.22144
0.749837
4.17392
0.688314
4.13077
0.625961
4.09203
0.562789
4.05771
0.498841
4.02785
0.43413
4.00249
0.368589
3.9817
0.30202
3.96558
0.234103
3.95426
0.164505
3.9479
0.0929674
3.94666
0.019195
3.95052
-0.0555747
3.95923
-0.129622
3.97262
-0.205349
3.99053
-0.281772
4.01305
-0.359491
-0.439205
16.8124
-0.058866
16.7941
0.291095
16.754
0.631484
16.6936
0.947925
16.615
1.24035
16.5197
1.50572
16.4091
1.74769
16.2846
1.96765
16.1475
2.16667
15.999
2.34909
15.8405
2.51273
15.6731
2.66233
15.4978
2.79568
15.3155
2.91535
15.1266
3.02092
14.9315
3.1147
14.7304
3.19448
14.5242
3.26613
14.3138
3.32741
14.1004
3.37918
13.8846
3.42494
13.667
3.46065
13.4482
3.48752
13.2282
3.50824
13.0074
3.52094
12.7862
3.52822
12.5647
3.53339
12.3429
3.53376
12.1211
3.53059
11.8996
3.52494
11.6786
3.51336
11.4589
3.49651
11.2408
3.47635
11.0245
3.45159
10.8103
3.424
10.5985
3.39537
10.3888
3.36283
10.1813
3.32633
9.97579
3.28765
9.77203
3.2459
9.57044
3.20265
9.37136
3.15941
9.17516
3.11482
8.98226
3.06925
8.79256
3.02373
8.60582
2.97751
8.42206
2.92971
8.24139
2.87994
8.06416
2.82771
7.8909
2.77402
7.72174
2.72017
7.55672
2.666
7.39581
2.61095
7.2386
2.55454
7.08441
2.49664
6.93313
2.43821
6.7849
2.37968
6.63991
2.32103
6.49843
2.26255
6.36055
2.20485
6.22617
2.14787
6.09522
2.09098
5.9677
2.03366
5.84363
1.97561
5.72313
1.91668
5.6064
1.85704
5.4936
1.79697
5.38484
1.73651
5.28021
1.67552
5.17975
1.61394
5.08334
1.55183
4.99084
1.48934
4.90212
1.42707
4.81694
1.36666
4.7351
1.31121
4.65662
1.25023
4.58158
1.18736
4.51005
1.12384
4.4421
1.05992
4.37785
0.995786
4.31743
0.931513
4.26111
0.866992
4.20908
0.801867
4.16143
0.73596
4.11822
0.66918
4.07946
0.601549
4.04518
0.533122
4.0154
0.463913
3.99014
0.393848
3.96945
0.322706
3.95343
0.250128
3.9422
0.175731
3.93593
0.0992356
3.93473
0.0203933
3.9385
-0.0593389
3.94688
-0.138005
3.9597
-0.218171
3.9769
-0.298967
3.99869
-0.381284
-0.466059
16.8092
-0.0630622
16.7908
0.309527
16.7504
0.671829
16.6899
1.00847
16.611
1.31921
16.5154
1.60135
16.4046
1.85853
16.2797
2.09247
16.1423
2.30412
15.9934
2.49795
15.8346
2.67158
15.6669
2.83005
15.4915
2.97104
15.3092
3.09766
15.1203
3.20979
14.9251
3.30991
14.7238
3.39578
14.5172
3.47269
14.3064
3.53829
14.0925
3.59306
13.8764
3.64103
13.6586
3.67847
13.4395
3.70662
13.2193
3.72841
12.9983
3.7419
12.777
3.74957
12.5553
3.75504
12.3334
3.75566
12.1115
3.75249
11.8899
3.74656
11.6689
3.73433
11.4491
3.71631
11.2309
3.69454
11.0145
3.66798
10.8003
3.63824
10.5884
3.60727
10.3786
3.57264
10.1709
3.53402
9.96512
3.49342
9.76097
3.45005
9.55893
3.4047
9.35949
3.35885
9.163
3.31131
8.96989
3.26236
8.78011
3.21351
8.59338
3.16424
8.4097
3.11338
8.22918
3.06046
8.0521
3.00479
7.87897
2.94715
7.71
2.88914
7.54515
2.83086
7.38436
2.77174
7.22723
2.71168
7.07296
2.6509
6.92153
2.58965
6.77313
2.52809
6.62798
2.46618
6.48633
2.4042
6.34835
2.34284
6.21393
2.28228
6.08298
2.22194
5.95548
2.16116
5.83146
2.09963
5.71102
2.03712
5.59437
1.97369
5.4817
1.90963
5.37312
1.8451
5.26869
1.77995
5.16842
1.71421
5.07218
1.64807
4.97977
1.58174
4.89106
1.51579
4.80583
1.45189
4.72396
1.39308
4.64534
1.32884
4.57011
1.26259
4.49833
1.19561
4.43011
1.12814
4.36557
1.06033
4.30489
0.992186
4.24841
0.923476
4.1963
0.853975
4.14864
0.783621
4.10546
0.712369
4.06676
0.640243
4.03258
0.567305
4.00291
0.493581
3.97777
0.418991
3.95719
0.343286
3.94126
0.266056
3.93013
0.186871
3.92391
0.105454
3.92264
0.0216587
3.92608
-0.0627765
3.93378
-0.145709
3.94574
-0.230125
3.9621
-0.315336
3.98316
-0.402338
-0.492261
16.8058
-0.0677279
16.7872
0.328148
16.7467
0.712352
16.6859
1.06926
16.6068
1.39832
16.5109
1.69727
16.3997
1.96966
16.2746
2.21761
16.1368
2.44195
15.9875
2.64717
15.8283
2.83079
15.6603
2.99807
15.4848
3.14657
15.3024
3.28006
15.1135
3.39869
14.9182
3.50516
14.7167
3.59729
14.5098
3.67956
14.2986
3.74957
14.0842
3.8074
13.8678
3.85747
13.6497
3.89657
13.4303
3.92601
13.2099
3.9488
12.9887
3.96308
12.7671
3.97116
12.5453
3.97686
12.3233
3.97768
12.1013
3.97448
11.8797
3.96816
11.6588
3.95524
11.439
3.93613
11.2208
3.91276
11.0043
3.88444
10.7899
3.85263
10.5779
3.8193
10.3679
3.78264
10.1598
3.74206
9.95366
3.6996
9.74904
3.65467
9.5465
3.60724
9.34668
3.55867
9.14995
3.50804
8.95668
3.45563
8.76689
3.40329
8.58027
3.35086
8.39675
3.2969
8.21645
3.24076
8.03957
3.18166
7.86659
3.12013
7.69776
3.05797
7.53302
2.9956
7.37224
2.93252
7.21502
2.8689
7.06058
2.80535
6.90889
2.74134
6.76025
2.67673
6.61488
2.61155
6.47303
2.54605
6.33491
2.48095
6.20049
2.41671
6.06959
2.35284
5.94217
2.28858
5.81828
2.22352
5.69798
2.15742
5.58148
2.09019
5.469
2.02212
5.36063
1.95346
5.2564
1.88418
5.15629
1.81432
5.06016
1.74421
4.96778
1.67412
4.87901
1.60456
4.79369
1.53721
4.71176
1.47501
4.633
1.4076
4.55757
1.33802
4.48559
1.26759
4.41716
1.19657