/*--------------------------------*- C++ -*----------------------------------*\
| =========                 |                                                 |
| \\      /  F ield         | OpenFOAM: The Open Source CFD Toolbox           |
|  \\    /   O peration     | Version:  4.1                                   |
|   \\  /    A nd           | Web:      www.OpenFOAM.org                      |
|    \\/     M anipulation  |                                                 |
\*---------------------------------------------------------------------------*/
FoamFile
{
    version     2.0;
    format      ascii;
    class       volVectorField;
    location    "5";
    object      U;
}
// * * * * * * * * * * * * * * * * * * * * * * * * * * * * * * * * * * * * * //

dimensions      [0 1 -1 0 0 0 0];

internalField   nonuniform List<vector> 
26785
(
(1.68553e-20 0.000234721 0.137514)
(-3.25818e-18 0.000233299 0.132306)
(-1.0936e-19 0.000232266 0.127279)
(2.43381e-17 0.000231065 0.122457)
(2.07895e-17 0.000229718 0.117827)
(-4.46531e-15 0.000228065 0.113383)
(-1.55388e-17 0.000226222 0.109115)
(-7.46244e-18 0.000224116 0.105018)
(2.03594e-15 0.000221891 0.101084)
(-1.83904e-15 0.00021948 0.0973059)
(-6.1742e-18 0.000216997 0.0936773)
(-1.00764e-20 0.000214361 0.0901914)
(-1.5089e-23 0.000211651 0.0868424)
(2.64593e-21 0.000208853 0.0836241)
(-8.23162e-19 0.00020591 0.0805315)
(-4.54794e-21 0.000202934 0.0775596)
(7.20751e-19 0.000199829 0.0747035)
(2.20568e-21 0.000196703 0.0719589)
(-3.00739e-19 0.000193519 0.069321)
(1.25242e-16 0.000190329 0.0667854)
(-2.47326e-19 0.000187059 0.0643481)
(-2.93492e-19 0.000183848 0.0620049)
(1.17104e-16 0.000180603 0.0597516)
(2.80441e-18 0.000177353 0.0575847)
(-1.28197e-15 0.000174182 0.0555004)
(-2.63626e-18 0.000170943 0.053495)
(-3.49002e-21 0.000167751 0.0515659)
(8.5736e-19 0.000164616 0.0497093)
(-4.95996e-16 0.000161461 0.0479223)
(-4.87161e-16 0.000158357 0.0462023)
(-5.17505e-16 0.000155294 0.0445462)
(6.57108e-16 0.000152181 0.0429518)
(1.12931e-18 0.000149115 0.041417)
(-1.04025e-16 0.000146114 0.0399391)
(-9.26759e-16 0.000143083 0.038516)
(-1.24284e-18 0.000140112 0.0371458)
(-8.12863e-22 0.000137155 0.0358263)
(-4.62609e-25 0.000134101 0.0345563)
(2.87465e-22 0.000131053 0.0333346)
(-4.9322e-19 0.00012802 0.0321596)
(4.43665e-16 0.000125 0.0310297)
(5.28428e-19 0.000122139 0.0299428)
(8.01848e-19 0.000119439 0.0288962)
(-8.01384e-16 0.000116831 0.0278877)
(-5.1207e-19 0.000114291 0.0269156)
(-2.89564e-16 0.000111711 0.0259788)
(-3.02224e-19 0.000109032 0.0250767)
(-9.56855e-23 0.000106304 0.024209)
(-5.64902e-20 0.000103617 0.0233748)
(-2.59656e-19 0.000101062 0.0225724)
(3.8336e-16 9.86586e-05 0.0217999)
(2.92792e-19 9.63579e-05 0.0210555)
(1.56539e-22 9.40712e-05 0.0203381)
(-4.2717e-20 9.17206e-05 0.0196473)
(4.42058e-20 8.92773e-05 0.0189828)
(1.57521e-19 8.67616e-05 0.0183447)
(-2.48734e-16 8.42298e-05 0.0177325)
(-1.56123e-19 8.17611e-05 0.0171454)
(2.30964e-19 7.94085e-05 0.0165822)
(-3.38245e-16 7.71824e-05 0.0160415)
(-1.91487e-19 7.50405e-05 0.0155221)
(-3.4682e-20 7.29087e-05 0.0150231)
(6.35787e-20 7.07428e-05 0.0145442)
(-1.27691e-16 6.85534e-05 0.0140851)
(-6.37231e-20 6.63717e-05 0.0136454)
(-1.55999e-23 6.42413e-05 0.0132244)
(5.36555e-25 6.21785e-05 0.0128214)
(2.49997e-23 6.01749e-05 0.0124356)
(-2.82753e-20 5.82036e-05 0.0120662)
(7.86321e-20 5.62388e-05 0.0117129)
(-1.97469e-16 5.42729e-05 0.0113753)
(-9.63436e-20 5.23014e-05 0.011053)
(-2.98162e-23 5.03304e-05 0.0107456)
(1.02449e-25 4.83616e-05 0.0104523)
(-4.17287e-20 4.64752e-05 0.0101723)
(1.55095e-16 4.46021e-05 0.00990567)
(5.48904e-20 4.27444e-05 0.00965229)
(7.84903e-24 4.09053e-05 0.00941194)
(2.086e-21 3.90901e-05 0.00918428)
(-6.79232e-25 3.72954e-05 0.00896898)
(1.55948e-20 3.55185e-05 0.0087657)
(-5.24856e-17 3.37609e-05 0.00857411)
(-1.62303e-20 3.20154e-05 0.00839392)
(1.80382e-20 3.02699e-05 0.0082249)
(-4.14071e-17 2.85184e-05 0.00806684)
(-1.02932e-20 2.67607e-05 0.00791957)
(-6.00474e-21 2.4996e-05 0.00778296)
(1.64802e-20 2.32196e-05 0.00765686)
(-6.38633e-17 2.14291e-05 0.00754117)
(-1.74369e-20 1.96278e-05 0.00743576)
(-2.37685e-24 1.78187e-05 0.0073405)
(-7.18442e-28 1.60068e-05 0.00725524)
(2.82848e-24 1.42021e-05 0.0071798)
(-3.73497e-21 1.23985e-05 0.00711402)
(-2.06421e-21 1.05811e-05 0.00705776)
(8.66202e-18 8.72925e-06 0.00701079)
(1.00155e-21 6.8456e-06 0.00697304)
(-6.53449e-25 4.91407e-06 0.00694468)
(-1.73758e-28 2.9347e-06 0.00692573)
(-2.19897e-32 9.42939e-07 0.00691617)
(1.27766e-17 0.000703361 0.137507)
(-2.66132e-15 0.00069988 0.132304)
(-1.20166e-17 0.000696789 0.127277)
(-7.78554e-18 0.000693195 0.122455)
(2.40557e-15 0.000689145 0.117826)
(-2.22549e-15 0.00068421 0.113381)
(2.14306e-15 0.000678653 0.109113)
(1.5504e-17 0.000672353 0.105016)
(-2.03458e-15 0.000665636 0.101082)
(-8.47964e-18 0.000658435 0.0973038)
(-1.62792e-20 0.000650961 0.0936752)
(-1.19304e-23 0.000643098 0.0901893)
(-7.04757e-21 0.00063492 0.0868402)
(4.61189e-18 0.000626571 0.0836219)
(-1.58444e-15 0.000617696 0.0805293)
(-8.48668e-18 0.000608811 0.0775574)
(1.53457e-15 0.0005995 0.0747013)
(3.34429e-18 0.000590109 0.0719566)
(2.71088e-19 0.000580544 0.0693187)
(-1.30425e-16 0.000570967 0.0667831)
(-1.39626e-15 0.000561157 0.0643458)
(-1.19128e-16 0.000551534 0.0620026)
(-1.34071e-15 0.00054183 0.0597493)
(-2.94979e-18 0.000532058 0.0575825)
(5.97099e-19 0.00052256 0.0554981)
(-5.68328e-16 0.000512843 0.0534928)
(-1.36633e-18 0.000503234 0.0515636)
(-2.17949e-21 0.000493846 0.049707)
(6.4637e-19 0.000484379 0.0479201)
(-4.88621e-16 0.00047504 0.0462001)
(5.15009e-16 0.00046588 0.044544)
(1.0942e-18 0.000456543 0.0429496)
(-9.55793e-20 0.000447311 0.0414148)
(5.52266e-19 0.000438336 0.0399369)
(-4.84875e-16 0.000429253 0.0385138)
(-6.49744e-19 0.000420311 0.0371436)
(-4.38246e-22 0.000411477 0.0358241)
(-2.64343e-25 0.000402326 0.034554)
(1.16268e-23 0.000393133 0.0333324)
(8.70545e-23 0.000384051 0.0321574)
(-1.98009e-19 0.000374992 0.0310275)
(2.76023e-16 0.000366376 0.0299407)
(-5.14268e-19 0.000358312 0.0288941)
(8.04199e-16 0.000350516 0.0278857)
(7.84711e-19 0.000342887 0.0269136)
(1.73828e-19 0.000335145 0.0259767)
(-2.54951e-16 0.00032707 0.0250746)
(1.04715e-19 0.000318835 0.024207)
(-3.95684e-16 0.000310776 0.0233728)
(2.71826e-16 0.000303157 0.0225704)
(-2.6926e-16 0.000295987 0.021798)
(-2.0677e-19 0.000289102 0.0210536)
(2.38576e-19 0.00028225 0.0203363)
(-3.40759e-16 0.000275189 0.0196454)
(3.6288e-16 0.000267835 0.0189808)
(4.27218e-19 0.00026026 0.0183427)
(-3.54087e-16 0.000252634 0.0177305)
(-3.91216e-19 0.000245216 0.0171435)
(3.458e-16 0.000238195 0.0165804)
(1.87348e-19 0.000231559 0.0160397)
(1.76546e-19 0.000225149 0.0155203)
(-3.31697e-16 0.000218746 0.0150213)
(-2.28263e-19 0.000212219 0.0145424)
(1.04235e-16 0.000205622 0.0140833)
(4.30171e-20 0.000199085 0.0136436)
(-1.82107e-23 0.000192707 0.0132227)
(1.05699e-20 0.000186537 0.0128197)
(1.32387e-19 0.000180535 0.0124339)
(-3.12278e-16 0.000174615 0.0120646)
(-1.33795e-19 0.000168722 0.0117113)
(5.52782e-20 0.000162828 0.0113737)
(-1.95157e-16 0.000156917 0.0110513)
(-7.44348e-20 0.000151004 0.0107439)
(-4.36839e-20 0.000145105 0.0104506)
(1.45323e-16 0.000139431 0.0101707)
(-1.4297e-16 0.000133803 0.00990408)
(-5.07047e-20 0.00012823 0.00965071)
(-9.10697e-21 0.000122713 0.00941037)
(2.8363e-17 0.000117257 0.00918273)
(9.37168e-21 0.000111871 0.00896745)
(1.25949e-20 0.000106547 0.00876418)
(-4.21722e-17 0.000101274 0.0085726)
(-4.25505e-20 9.60341e-05 0.00839242)
(9.16465e-17 9.07993e-05 0.00822339)
(1.63793e-20 8.55518e-05 0.00806532)
(2.75808e-17 8.02822e-05 0.00791805)
(-8.93477e-17 7.49826e-05 0.00778143)
(-4.15364e-20 6.96459e-05 0.00765533)
(6.37586e-17 6.42685e-05 0.00753962)
(1.34485e-20 5.8858e-05 0.0074342)
(-3.42954e-24 5.34336e-05 0.00733894)
(2.948e-25 4.80107e-05 0.00725368)
(1.32608e-20 4.25955e-05 0.00717825)
(-6.08519e-17 3.71834e-05 0.00711247)
(-1.57466e-20 3.17457e-05 0.00705619)
(5.31589e-21 2.62126e-05 0.00700918)
(-2.04053e-17 2.0536e-05 0.00697141)
(-5.1728e-21 1.47228e-05 0.006943)
(-6.60804e-25 8.80597e-06 0.00692403)
(-5.64784e-29 2.85588e-06 0.00691451)
(-1.23899e-17 0.00117219 0.137502)
(2.5796e-15 0.00116644 0.1323)
(3.18377e-17 0.00116131 0.127274)
(2.39684e-15 0.00115531 0.122451)
(2.38663e-15 0.00114857 0.117822)
(-2.19184e-15 0.00114033 0.113377)
(2.14899e-15 0.00113107 0.109109)
(6.62814e-18 0.00112057 0.105012)
(-1.67916e-18 0.00110936 0.101078)
(-5.66208e-21 0.00109737 0.0972996)
(-1.02194e-23 0.0010849 0.093671)
(2.59177e-22 0.00107183 0.090185)
(2.95566e-22 0.00105818 0.0868359)
(-7.18743e-20 0.0010443 0.0836175)
(-1.36642e-18 0.00102949 0.0805249)
(1.33259e-16 0.00101469 0.0775529)
(1.53925e-15 0.000999146 0.0746968)
(-1.49006e-15 0.00098347 0.0719521)
(-1.38723e-16 0.0009675 0.0693141)
(1.74606e-16 0.00095155 0.0667785)
(-6.38495e-18 0.000935234 0.0643412)
(2.73261e-15 0.00091921 0.0619981)
(6.48094e-18 0.000903091 0.0597447)
(-5.9336e-16 0.000886788 0.0575779)
(-1.75975e-19 0.000870947 0.0554935)
(-5.19273e-16 0.00085475 0.0534882)
(-1.19242e-15 0.000838687 0.051559)
(-2.13087e-18 0.00082305 0.0497025)
(-1.69503e-21 0.000807287 0.0479156)
(-1.71689e-19 0.000791675 0.0461956)
(-4.55053e-19 0.00077641 0.0445395)
(4.66865e-16 0.000760875 0.0429451)
(-4.60707e-16 0.000745446 0.0414103)
(-4.52617e-16 0.00073051 0.0399325)
(-8.53978e-19 0.000715418 0.0385094)
(5.46437e-20 0.000700481 0.0371392)
(-1.37374e-19 0.000685791 0.0358197)
(-7.16057e-22 0.000670584 0.0345496)
(1.24907e-19 0.000655206 0.0333279)
(-1.18342e-19 0.000640072 0.0321529)
(-6.67868e-22 0.000624996 0.0310231)
(1.91503e-19 0.000610583 0.0299364)
(3.9423e-22 0.000597154 0.02889)
(1.44599e-19 0.000584196 0.0278817)
(-5.07338e-23 0.000571439 0.0269096)
(-1.20237e-22 0.000558491 0.0259727)
(-6.9043e-21 0.000544993 0.0250705)
(9.60915e-20 0.000531246 0.0242028)
(-7.71624e-20 0.000517854 0.0233687)
(1.13074e-20 0.000505225 0.0225665)
(-5.03999e-20 0.000493322 0.0217942)
(-2.69784e-20 0.000481853 0.0210499)
(2.53548e-20 0.000470428 0.0203325)
(-2.30817e-20 0.00045865 0.0196415)
(2.94094e-19 0.000446355 0.0189769)
(-3.58622e-16 0.000433687 0.0183387)
(-5.15902e-19 0.000420959 0.0177265)
(3.2336e-16 0.000408608 0.0171397)
(6.87318e-20 0.000396956 0.0165767)
(3.12938e-16 0.000385937 0.0160362)
(1.77397e-19 0.000375247 0.0155168)
(-3.66613e-20 0.00036454 0.0150177)
(3.47417e-23 0.000353631 0.0145388)
(6.36786e-20 0.000342624 0.0140797)
(-1.02916e-16 0.000331754 0.0136401)
(-9.75093e-20 0.000321161 0.0132192)
(1.23064e-16 0.000310896 0.0128163)
(4.6609e-20 0.000300904 0.0124305)
(-3.59386e-20 0.000291039 0.0120612)
(3.44788e-23 0.000281213 0.011708)
(-5.18103e-21 0.000271392 0.0113703)
(-3.02599e-20 0.000261552 0.011048)
(2.65587e-17 0.000251704 0.0107406)
(1.0312e-16 0.000241888 0.0104474)
(4.22202e-20 0.000232405 0.0101675)
(-3.39458e-21 0.000223005 0.00990089)
(4.06168e-23 0.000213696 0.00964755)
(-1.87843e-21 0.000204485 0.00940724)
(2.48678e-21 0.000195379 0.00917963)
(-2.13724e-24 0.000186387 0.00896438)
(-5.75299e-24 0.000177507 0.00876114)
(1.16518e-20 0.000168716 0.00856958)
(-5.22828e-17 0.000159979 0.00838941)
(-1.19218e-20 0.000151253 0.00822038)
(-1.54421e-23 0.000142508 0.0080623)
(2.06751e-21 0.000133729 0.00791502)
(-3.45178e-21 0.000124899 0.00777838)
(1.74145e-23 0.000116005 0.00765225)
(2.05221e-20 0.00010705 0.00753653)
(-6.3041e-17 9.80422e-05 0.0074311)
(-1.44073e-20 8.90107e-05 0.00733584)
(4.36336e-21 7.99956e-05 0.00725058)
(-2.38548e-17 7.1011e-05 0.00717515)
(-9.99928e-21 6.20177e-05 0.00710936)
(1.96665e-24 5.29571e-05 0.00705305)
(5.03842e-21 4.37305e-05 0.00700597)
(-1.83291e-17 3.42863e-05 0.00696812)
(-3.93393e-21 2.46089e-05 0.00693965)
(8.81526e-25 1.47663e-05 0.00692065)
(9.13301e-27 4.85463e-06 0.00691118)
(1.42375e-19 0.001641 0.137501)
(-3.82957e-17 0.00163296 0.132295)
(2.4843e-15 0.0016258 0.127268)
(2.41539e-15 0.00161741 0.122446)
(3.46709e-18 0.00160798 0.117816)
(2.21997e-15 0.00159642 0.113371)
(1.98048e-17 0.00158345 0.109103)
(-1.95528e-15 0.00156874 0.105006)
(-7.06345e-18 0.00155305 0.101071)
(-1.27682e-20 0.00153626 0.0972934)
(-3.98924e-21 0.0015188 0.0936646)
(8.91779e-19 0.00150054 0.0901786)
(5.14755e-19 0.00148146 0.0868294)
(-1.70199e-16 0.00146204 0.0836109)
(-4.87693e-19 0.00144132 0.0805182)
(1.26836e-19 0.00142055 0.0775462)
(-2.81153e-18 0.00139873 0.07469)
(1.44395e-15 0.00137674 0.0719452)
(-1.45988e-15 0.00135435 0.0693073)
(-3.39971e-18 0.00133205 0.0667717)
(-3.05199e-18 0.0013093 0.0643344)
(1.36459e-15 0.0012869 0.0619912)
(2.92285e-18 0.0012644 0.0597379)
(-2.74426e-19 0.00124157 0.057571)
(-1.01123e-22 0.00121932 0.0554867)
(-2.27163e-19 0.00119665 0.0534813)
(-6.14836e-19 0.00117412 0.0515522)
(9.73899e-20 0.0011522 0.0496957)
(9.84085e-22 0.00113016 0.0479088)
(-7.56876e-19 0.00110825 0.0461889)
(4.70997e-16 0.00108683 0.0445328)
(5.07794e-16 0.00106514 0.0429384)
(5.96297e-19 0.00104352 0.0414037)
(5.833e-19 0.00102259 0.0399259)
(-4.82925e-16 0.00100155 0.0385028)
(3.39612e-16 0.000980635 0.0371326)
(-8.94007e-16 0.000960061 0.0358131)
(-2.15605e-18 0.000938865 0.0345429)
(8.69009e-16 0.000917309 0.0333212)
(-8.52845e-16 0.000896082 0.0321463)
(-1.98523e-18 0.000875027 0.0310166)
(9.58166e-16 0.000854802 0.0299301)
(1.25089e-18 0.00083595 0.0288839)
(-2.95434e-16 0.000817799 0.0278756)
(-2.88687e-19 0.000799852 0.0269036)
(-3.63712e-19 0.000781635 0.0259665)
(4.05717e-16 0.000762729 0.0250642)
(8.76821e-16 0.000743546 0.0241966)
(1.05615e-18 0.000724889 0.0233627)
(-3.89662e-16 0.000707274 0.0225607)
(-1.07495e-19 0.000690639 0.0217885)
(-2.66175e-16 0.000674567 0.0210443)
(2.60835e-16 0.000658541 0.0203269)
(3.70004e-16 0.000642035 0.0196357)
(2.54683e-19 0.000624779 0.018971)
(1.89471e-19 0.000607004 0.0183327)
(-3.5649e-16 0.00058921 0.0177206)
(3.47775e-16 0.000571969 0.0171339)
(-7.4566e-21 0.000555692 0.0165712)
(3.4086e-16 0.000540272 0.0160308)
(1.25484e-19 0.000525256 0.0155114)
(1.07353e-16 0.000510211 0.0150124)
(5.72497e-20 0.000494934 0.0145334)
(1.55777e-23 0.000479556 0.0140743)
(-6.22337e-20 0.000464387 0.0136347)
(1.02429e-16 0.000449614 0.013214)
(-9.93544e-17 0.000435263 0.0128112)
(-1.22673e-16 0.000421272 0.0124255)
(-5.41897e-20 0.00040747 0.0120563)
(1.57121e-20 0.000393717 0.011703)
(-7.43234e-17 0.000379973 0.0113654)
(-6.89893e-20 0.000366219 0.011043)
(1.02988e-16 0.000352454 0.0107356)
(-1.89666e-16 0.000338731 0.0104425)
(-1.56725e-16 0.000325403 0.0101627)
(1.54129e-16 0.000312207 0.0098961)
(6.57505e-20 0.000299132 0.0096428)
(-2.90886e-17 0.000286199 0.00940253)
(-9.8578e-21 0.000273419 0.00917497)
(3.31004e-21 0.000260803 0.00895977)
(3.16098e-23 0.000248351 0.00875657)
(-6.55951e-21 0.000236032 0.00856505)
(1.03822e-20 0.00022379 0.00838489)
(-5.24196e-17 0.000211568 0.00821586)
(-2.1066e-20 0.000199325 0.00805777)
(-1.35131e-20 0.000187045 0.00791047)
(5.03736e-17 0.000174701 0.0077738)
(1.41901e-20 0.000162268 0.00764765)
(1.58814e-20 0.000149746 0.0075319)
(-6.25314e-17 0.000137166 0.00742645)
(4.28268e-17 0.000124572 0.00733119)
(-2.42479e-17 0.000112002 0.00724594)
(-2.37705e-17 9.94639e-05 0.00717052)
(-6.23572e-21 8.69067e-05 0.00710471)
(-2.76197e-21 7.42473e-05 0.00704833)
(1.15599e-17 6.13436e-05 0.00700117)
(3.25473e-22 4.81309e-05 0.0069632)
(1.16309e-17 3.46151e-05 0.00693463)
(2.58022e-21 2.08601e-05 0.00691557)
(2.29089e-22 6.95478e-06 0.00690612)
(1.15471e-19 0.0021096 0.137502)
(-2.25071e-17 0.00209944 0.132288)
(-7.85916e-18 0.00209026 0.127261)
(2.40681e-15 0.00207948 0.122438)
(1.92891e-17 0.00206735 0.117809)
(-2.23363e-15 0.00205248 0.113363)
(2.14749e-15 0.00203578 0.109095)
(7.64042e-18 0.00201688 0.104998)
(2.09984e-20 0.00199666 0.101063)
(-1.11448e-18 0.00197511 0.097285)
(-5.60846e-18 0.00195263 0.0936562)
(1.71488e-15 0.00192922 0.09017)
(4.18185e-19 0.00190472 0.0868208)
(1.6254e-15 0.00187978 0.0836022)
(4.30088e-18 0.00185316 0.0805094)
(1.37179e-16 0.00182638 0.0775373)
(3.65505e-19 0.00179824 0.0746809)
(4.3945e-19 0.0017699 0.0719362)
(-8.77542e-19 0.00174107 0.0692982)
(3.73559e-19 0.00171245 0.0667625)
(6.58681e-19 0.00168337 0.0643252)
(-1.19127e-16 0.00165462 0.0619821)
(3.25836e-20 0.00162576 0.0597287)
(1.165e-19 0.00159641 0.0575619)
(-2.37805e-19 0.00156768 0.0554775)
(1.04102e-18 0.00153854 0.0534721)
(-5.61916e-16 0.00150953 0.0515432)
(5.04724e-16 0.00148127 0.0496867)
(8.72702e-19 0.00145296 0.0478997)
(-6.93457e-20 0.00142475 0.0461799)
(1.87917e-19 0.00139713 0.0445238)
(1.33307e-19 0.00136931 0.0429294)
(-6.53758e-19 0.00134153 0.0413948)
(4.55069e-16 0.00131458 0.039917)
(-4.85114e-16 0.00128763 0.038494)
(-4.81211e-19 0.00126076 0.0371239)
(-2.94456e-19 0.00123428 0.0358043)
(-8.96415e-23 0.00120715 0.034534)
(2.68548e-19 0.00117943 0.0333123)
(-2.56178e-19 0.00115207 0.0321375)
(-2.9904e-20 0.00112506 0.0310079)
(6.8597e-19 0.00109902 0.0299217)
(-4.28824e-16 0.00107469 0.0288758)
(-5.46342e-19 0.00105129 0.0278676)
(-3.77685e-22 0.00102808 0.0268955)
(3.1392e-23 0.00100455 0.0259583)
(9.97566e-20 0.000980265 0.0250559)
(2.07866e-19 0.000955714 0.0241883)
(3.12177e-19 0.000931861 0.0233546)
(-3.88339e-16 0.000909283 0.0225529)
(-2.23557e-20 0.000887913 0.021781)
(-3.79492e-16 0.000867229 0.0210369)
(-2.25476e-19 0.000846568 0.0203193)
(7.4078e-20 0.000825305 0.019628)
(-2.33505e-19 0.000803068 0.0189631)
(3.58315e-16 0.000780175 0.0183247)
(1.65407e-19 0.000757346 0.0177127)
(2.51111e-19 0.000735261 0.0171263)
(-3.20403e-16 0.000714365 0.0165638)
(-5.56636e-20 0.000694521 0.0160236)
(-1.35285e-16 0.000675149 0.0155043)
(1.31999e-16 0.000655738 0.0150052)
(7.00411e-20 0.000636107 0.0145262)
(-1.01289e-23 0.000616406 0.0140671)
(2.44051e-19 0.000596979 0.0136277)
(-5.38135e-16 0.000578054 0.0132071)
(-2.1941e-19 0.000559638 0.0128044)
(-1.22453e-16 0.000541646 0.0124188)
(3.26096e-20 0.000523907 0.0120496)
(-2.12055e-16 0.000506244 0.0116964)
(-1.00943e-19 0.00048859 0.0113587)
(-5.5276e-21 0.000470932 0.0110364)
(1.56758e-17 0.000453263 0.010729)
(-1.0218e-16 0.000435644 0.0104359)
(-1.02185e-16 0.000418427 0.0101562)
(-1.43893e-16 0.000401397 0.0098897)
(2.81916e-17 0.000384522 0.00963645)
(-2.83947e-17 0.000367836 0.00939624)
(-2.6101e-20 0.000351356 0.00916875)
(5.3218e-17 0.000335097 0.00895362)
(4.85761e-20 0.000319061 0.00875048)
(-1.06109e-16 0.000303199 0.008559)
(-4.22249e-21 0.000287441 0.00837886)
(-9.21907e-17 0.000271722 0.00820983)
(-9.07283e-17 0.000256003 0.00805173)
(-3.44579e-20 0.00024024 0.00790441)
(3.88908e-21 0.000224389 0.00776771)
(-6.44819e-24 0.00020843 0.00764152)
(-1.59715e-20 0.000192372 0.00752574)
(6.26859e-17 0.000176252 0.00742028)
(2.2439e-20 0.000160125 0.00732502)
(8.65162e-21 0.000144036 0.00723978)
(-4.21963e-17 0.000127979 0.00716435)
(-1.09623e-20 0.000111873 0.00709852)
(-1.36102e-21 9.56078e-05 0.00704206)
(1.19443e-17 7.90354e-05 0.00699476)
(1.80243e-17 6.20651e-05 0.00695665)
(6.56234e-21 4.47166e-05 0.00692795)
(-5.8714e-18 2.70538e-05 0.00690879)
(3.64958e-18 9.12744e-06 0.00689928)
(-1.28135e-17 0.00257822 0.137455)
(2.66425e-15 0.00256585 0.132279)
(1.48688e-17 0.00255467 0.127252)
(-1.73489e-17 0.00254152 0.122429)
(-4.73663e-20 0.00252669 0.117799)
(-1.23629e-17 0.00250849 0.113354)
(2.11202e-15 0.00248805 0.109085)
(2.06626e-15 0.00246496 0.104987)
(1.31763e-17 0.0024402 0.101053)
(-1.9709e-15 0.00241389 0.0972746)
(-1.13447e-17 0.0023864 0.0936456)
(1.74657e-15 0.00235787 0.0901594)
(5.42253e-18 0.00232798 0.08681)
(1.23843e-18 0.00229751 0.0835912)
(4.84276e-21 0.00226501 0.0804983)
(-4.02834e-19 0.00223217 0.0775261)
(3.88027e-18 0.00219764 0.0746696)
(-1.4954e-15 0.00216294 0.0719248)
(-7.15027e-18 0.00212766 0.0692868)
(1.42728e-15 0.00209275 0.0667511)
(1.58962e-15 0.00205743 0.0643138)
(5.86752e-19 0.00202235 0.0619707)
(1.33335e-15 0.00198716 0.0597172)
(5.58752e-16 0.00195129 0.0575504)
(-1.23718e-15 0.001916 0.0554661)
(-2.37699e-18 0.00188038 0.0534607)
(-3.52365e-19 0.00184491 0.0515318)
(1.63006e-19 0.00181025 0.0496754)
(8.7896e-19 0.00177567 0.0478885)
(-4.89269e-16 0.00174116 0.0461687)
(-5.55461e-20 0.0017073 0.0445127)
(-4.7209e-16 0.00167337 0.0429182)
(-7.04522e-19 0.00163947 0.0413837)
(-4.88526e-19 0.00160644 0.039906)
(4.80257e-16 0.00157362 0.038483)
(4.76794e-16 0.00154084 0.0371129)
(6.15596e-19 0.00150842 0.0357933)
(3.88032e-22 0.00147539 0.0345229)
(-1.60396e-22 0.00144156 0.0333011)
(3.46996e-19 0.00140802 0.0321264)
(-3.11033e-16 0.00137507 0.030997)
(-3.06667e-16 0.00134323 0.0299111)
(-4.78816e-20 0.00131334 0.0288655)
(-4.21525e-16 0.00128463 0.0278575)
(-4.09968e-19 0.0012561 0.0268854)
(-1.94499e-22 0.00122723 0.0259481)
(-1.68397e-22 0.0011976 0.0250455)
(2.21041e-20 0.00116776 0.024178)
(2.14812e-20 0.00113878 0.0233446)
(-5.82581e-20 0.00111125 0.0225433)
(3.9067e-20 0.00108512 0.0217716)
(-5.30004e-20 0.0010598 0.0210275)
(3.38107e-22 0.00103446 0.0203099)
(7.50076e-24 0.0010084 0.0196184)
(7.02155e-23 0.000981163 0.0189532)
(7.3182e-20 0.000953154 0.0183147)
(-2.64546e-22 0.000925334 0.0177029)
(2.19667e-19 0.000898464 0.0171167)
(-3.46376e-16 0.000872951 0.0165546)
(-2.02111e-19 0.000848646 0.0160147)
(-9.39928e-20 0.000824888 0.0154955)
(1.32015e-16 0.000801098 0.0149963)
(6.97888e-20 0.00077714 0.0145172)
(6.6421e-20 0.000753176 0.0140582)
(-1.04395e-16 0.000729534 0.0136189)
(-2.95453e-16 0.000706477 0.0131985)
(-1.24389e-16 0.000684012 0.012796)
(-1.23202e-16 0.000662027 0.0124105)
(5.41594e-22 0.000640356 0.0120413)
(-1.07543e-16 0.000618796 0.0116881)
(-7.49781e-17 0.00059724 0.0113504)
(-3.01302e-20 0.000575681 0.0110281)
(-9.97685e-22 0.000554115 0.0107207)
(-4.88808e-20 0.000532605 0.0104277)
(1.17391e-16 0.000511463 0.0101482)
(2.98666e-20 0.000490557 0.00988167)
(-2.80597e-20 0.000469843 0.00962849)
(1.40052e-16 0.000449373 0.00938836)
(4.71691e-20 0.000429176 0.00916095)
(5.41636e-21 0.000409256 0.00894591)
(-1.28821e-20 0.000389609 0.00874286)
(5.27567e-17 0.000370192 0.00855143)
(4.30643e-17 0.000350921 0.00837133)
(1.43975e-16 0.000331722 0.00820231)
(-4.13436e-17 0.000312538 0.0080442)
(-1.41376e-16 0.000293307 0.00789685)
(-4.02949e-20 0.000273973 0.00776011)
(-2.30119e-23 0.000254511 0.00763387)
(3.68672e-21 0.000234947 0.00751806)
(-6.32589e-21 0.000215327 0.00741259)
(4.37515e-17 0.000195705 0.00731733)
(1.63481e-20 0.000176125 0.00723211)
(-1.94889e-17 0.000156574 0.00715668)
(-1.07911e-20 0.000136927 0.00709078)
(2.37169e-17 0.000117048 0.00703421)
(1.16507e-17 9.6784e-05 0.00698676)
(4.6858e-21 7.60709e-05 0.00694847)
(-3.28932e-22 5.48919e-05 0.00691961)
(5.82489e-18 3.33024e-05 0.0069003)
(2.83413e-18 1.13279e-05 0.00689063)
(3.60536e-18 0.00304632 0.137442)
(-8.15536e-18 0.00303219 0.132268)
(2.49479e-15 0.00301902 0.127241)
(-6.46618e-18 0.00300351 0.122418)
(8.54426e-18 0.00298598 0.117788)
(-2.08449e-15 0.00296446 0.113342)
(-5.96301e-18 0.00294027 0.109074)
(8.04677e-18 0.00291298 0.104975)
(-1.99852e-15 0.00288367 0.101041)
(-1.85996e-15 0.00285261 0.0972621)
(1.90855e-15 0.0028201 0.093633)
(7.6389e-18 0.00278647 0.0901465)
(1.27596e-20 0.00275121 0.0867971)
(-5.86942e-21 0.00271521 0.0835781)
(4.32498e-18 0.00267684 0.080485)
(-1.54459e-15 0.00263788 0.0775126)
(-8.39991e-18 0.00259693 0.074656)
(1.6459e-15 0.00255584 0.0719111)
(7.48531e-19 0.00251413 0.0692732)
(1.38604e-15 0.00247295 0.0667375)
(-1.39487e-15 0.00243149 0.0643001)
(-4.32308e-18 0.0023901 0.061957)
(5.6641e-16 0.00234855 0.0597035)
(1.66654e-18 0.00230619 0.0575367)
(-6.75691e-19 0.00226427 0.0554524)
(1.03478e-18 0.00222216 0.0534469)
(-5.57193e-16 0.00218025 0.0515181)
(-5.52232e-16 0.00213914 0.0496618)
(5.38895e-16 0.00209826 0.0478749)
(-5.25807e-16 0.0020575 0.0461552)
(-8.42625e-19 0.00201736 0.0444993)
(-2.09399e-19 0.00197732 0.0429048)
(-5.37065e-23 0.00193734 0.0413704)
(4.24194e-22 0.00189818 0.0398928)
(-3.89819e-19 0.00185948 0.0384698)
(4.37325e-16 0.00182085 0.0370998)
(5.65681e-19 0.00178245 0.0357801)
(3.56892e-22 0.00174354 0.0345095)
(-2.0291e-22 0.00170364 0.0332877)
(3.47467e-19 0.00166391 0.0321131)
(-3.11871e-16 0.00162503 0.0309839)
(-1.59906e-19 0.00158741 0.0298984)
(-3.03994e-16 0.00155191 0.0288532)
(-4.37208e-19 0.0015178 0.0278453)
(-8.59211e-23 0.00148389 0.0268732)
(1.55413e-22 0.00144967 0.0259358)
(-3.43483e-19 0.00141475 0.0250331)
(3.97874e-16 0.00137969 0.0241657)
(3.94793e-16 0.00134564 0.0233326)
(6.61686e-16 0.00131316 0.0225316)
(7.39092e-16 0.00128223 0.0217602)
(6.42821e-16 0.00125222 0.0210163)
(4.74732e-19 0.00122215 0.0202986)
(1.71376e-22 0.00119124 0.0196068)
(-5.02064e-26 0.00115899 0.0189413)
(2.28383e-22 0.0011259 0.0183028)
(-2.09947e-19 0.00109314 0.0176911)
(3.24051e-16 0.00106154 0.0171053)
(-3.4561e-16 0.00103142 0.0165436)
(-1.88871e-19 0.00100261 0.0160039)
(1.19089e-22 0.00097445 0.0154848)
(2.42081e-20 0.000946297 0.0149856)
(-1.61473e-19 0.000918044 0.0145065)
(3.25117e-16 0.000889865 0.0140475)
(9.60629e-20 0.000862053 0.0136084)
(1.0226e-16 0.000834881 0.0131881)
(-9.9208e-17 0.000808377 0.0127858)
(-9.99089e-17 0.000782409 0.0124004)
(2.12989e-16 0.000756809 0.0120314)
(2.64207e-20 0.000731359 0.0116781)
(1.22695e-16 0.00070591 0.0113405)
(7.2825e-20 0.000680448 0.0110182)
(-6.20519e-17 0.00065499 0.0107108)
(1.03476e-16 0.000629588 0.0104178)
(-2.87764e-17 0.000604476 0.0101384)
(7.22369e-17 0.000579658 0.009872)
(2.83661e-16 0.000555084 0.0096189)
(-2.96908e-17 0.000530809 0.00937888)
(-9.99897e-21 0.000506869 0.00915158)
(-1.62382e-20 0.000483272 0.00893665)
(5.36513e-17 0.000460005 0.00873369)
(-6.55963e-21 0.000437026 0.00854235)
(8.31665e-17 0.000414248 0.00836229)
(9.40606e-17 0.000391591 0.00819329)
(2.8778e-20 0.00036896 0.00803518)
(-1.20588e-20 0.000346275 0.0078878)
(3.8712e-23 0.000323482 0.00775101)
(-1.63366e-20 0.000300547 0.00762473)
(6.34329e-17 0.000277502 0.00750888)
(1.16301e-20 0.000254418 0.0074034)
(1.98203e-17 0.000231352 0.00730815)
(1.29665e-20 0.000208314 0.00722294)
(-4.21789e-17 0.000185259 0.00714748)
(-8.63782e-21 0.000162054 0.00708151)
(-1.57849e-21 0.00013855 0.0070248)
(2.11871e-17 0.000114579 0.00697716)
(1.14771e-17 9.00749e-05 0.00693866)
(1.60634e-17 6.50393e-05 0.0069096)
(4.11985e-21 3.95119e-05 0.00689011)
(2.56054e-18 1.34942e-05 0.00688018)
(2.7219e-15 0.00351478 0.137432)
(1.28836e-17 0.00349844 0.132255)
(-2.37507e-17 0.0034833 0.127229)
(2.39925e-15 0.00346545 0.122405)
(1.01518e-17 0.0034452 0.117775)
(-2.28118e-18 0.00342036 0.113329)
(9.25895e-18 0.00339241 0.10906)
(-2.05843e-15 0.00336093 0.104961)
(-9.39812e-18 0.00332705 0.101026)
(-8.90608e-19 0.00329126 0.0972475)
(1.75399e-18 0.00325372 0.0936183)
(4.49214e-21 0.00321499 0.0901316)
(-2.86034e-24 0.0031744 0.086782)
(6.4516e-21 0.00313284 0.0835628)
(-4.32466e-18 0.00308861 0.0804695)
(1.54393e-15 0.00304351 0.0774969)
(4.12856e-18 0.00299608 0.0746402)
(9.02924e-19 0.00294863 0.0718952)
(-2.54431e-19 0.00290051 0.0692572)
(9.17089e-19 0.00285307 0.0667216)
(-9.14937e-19 0.00280553 0.0642842)
(-2.75627e-18 0.00275784 0.0619411)
(1.2781e-15 0.00270991 0.0596874)
(1.31209e-15 0.00266107 0.0575206)
(2.65756e-18 0.00261247 0.0554363)
(1.09221e-18 0.00256384 0.0534309)
(-5.62023e-16 0.00251552 0.0515022)
(5.05062e-16 0.00246793 0.049646)
(1.14509e-18 0.00242074 0.0478591)
(-2.60734e-19 0.00237375 0.0461395)
(-6.01044e-20 0.00232732 0.0444836)
(-6.14671e-22 0.00228115 0.0428892)
(-1.80843e-20 0.00223512 0.0413548)
(-1.89821e-20 0.00218981 0.0398774)
(-6.29513e-19 0.00214519 0.0384544)
(4.72702e-16 0.00210075 0.0370845)
(6.09664e-19 0.00205635 0.0357648)
(3.83537e-22 0.00201154 0.034494)
(-2.00473e-22 0.00196563 0.0332721)
(3.43294e-19 0.00191971 0.0320976)
(-3.07851e-16 0.00187492 0.0309687)
(-8.27643e-16 0.00183155 0.0298836)
(-4.30631e-16 0.00179038 0.0288388)
(-4.32777e-19 0.0017508 0.0278311)
(-2.1418e-22 0.00171147 0.026859)
(-2.9995e-25 0.0016719 0.0259215)
(4.14632e-22 0.00163176 0.0250187)
(-6.05167e-19 0.00159154 0.0241514)
(8.67014e-16 0.00155244 0.0233186)
(3.89228e-16 0.00151502 0.0225181)
(2.43011e-19 0.00147922 0.021747)
(3.49824e-16 0.00144444 0.0210032)
(2.5789e-19 0.00140958 0.0202853)
(9.29117e-23 0.00137376 0.0195932)
(-7.35971e-23 0.00133648 0.0189274)
(2.23782e-19 0.00129836 0.0182889)
(-3.56038e-16 0.00126073 0.0176774)
(3.22052e-16 0.00122445 0.017092)
(-8.06145e-20 0.00118973 0.0165307)
(3.41481e-16 0.00115641 0.0159913)
(1.88974e-19 0.00112382 0.0154723)
(-8.34265e-24 0.00109134 0.0149731)
(1.05473e-22 0.00105883 0.014494)
(5.92923e-20 0.00102648 0.0140351)
(-9.55606e-21 0.000994535 0.0135961)
(1.59151e-19 0.000963264 0.0131761)
(-3.14062e-16 0.000932729 0.012774)
(-9.9749e-17 0.000902786 0.0123888)
(-1.10034e-20 0.000873251 0.0120198)
(-4.27361e-20 0.000843905 0.0116666)
(1.06564e-16 0.000814569 0.0113289)
(4.32423e-20 0.000785205 0.0110066)
(-8.31592e-21 0.000755843 0.0106992)
(2.00155e-20 0.00072654 0.0104063)
(-2.80996e-17 0.000697439 0.010127)
(1.41789e-20 0.000668678 0.00986068)
(-2.81117e-17 0.00064023 0.00960769)
(1.40414e-16 0.000612141 0.00936779)
(5.31923e-20 0.000584445 0.00914063)
(1.33848e-20 0.000557158 0.00892582)
(-4.3701e-17 0.000530272 0.008723)
(-9.3982e-17 0.000503738 0.00853175)
(5.28825e-17 0.000477465 0.00835176)
(-1.28629e-21 0.000451364 0.0081828)
(9.06417e-17 0.000425308 0.00802468)
(2.15572e-20 0.000399186 0.00787726)
(-2.92353e-23 0.000372943 0.00774042)
(1.88336e-23 0.000346565 0.00761409)
(8.26098e-21 0.000320087 0.00749821)
(-1.2787e-17 0.000293579 0.00739272)
(8.54175e-21 0.000267091 0.00729748)
(-4.30951e-17 0.00024061 0.00721226)
(-2.41289e-17 0.000214063 0.00713676)
(3.74444e-17 0.000187268 0.00707068)
(3.28372e-17 0.000160055 0.0070138)
(1.19743e-17 0.000132312 0.00696594)
(1.82095e-17 0.000103984 0.00692721)
(4.03187e-21 7.50682e-05 0.00689792)
(5.88057e-18 4.55989e-05 0.0068782)
(3.64662e-18 1.55727e-05 0.00686794)
(2.7347e-15 0.00398321 0.137425)
(1.41388e-18 0.0039646 0.132241)
(2.484e-15 0.0039475 0.127214)
(-1.29704e-17 0.00392732 0.122391)
(9.44857e-17 0.00390436 0.11776)
(-8.00983e-18 0.0038762 0.113313)
(2.1165e-15 0.00384447 0.109044)
(5.79303e-18 0.00380882 0.104945)
(-6.48833e-18 0.00377035 0.10101)
(1.84532e-15 0.00372985 0.0972309)