/*--------------------------------*- C++ -*----------------------------------*\
| =========                 |                                                 |
| \\      /  F ield         | OpenFOAM: The Open Source CFD Toolbox           |
|  \\    /   O peration     | Version:  4.1                                   |
|   \\  /    A nd           | Web:      www.OpenFOAM.org                      |
|    \\/     M anipulation  |                                                 |
\*---------------------------------------------------------------------------*/
FoamFile
{
    version     2.0;
    format      ascii;
    class       volScalarField;
    location    "7";
    object      p;
}
// * * * * * * * * * * * * * * * * * * * * * * * * * * * * * * * * * * * * * //

dimensions      [0 2 -2 0 0 0 0];

internalField   nonuniform List<scalar> 
26785
(
0.226294
0.216846
0.207899
0.199542
0.191688
0.184342
0.177397
0.170843
0.164599
0.158656
0.152969
0.147517
0.142281
0.137237
0.132382
0.127693
0.123175
0.118804
0.114592
0.110518
0.106596
0.102802
0.0991518
0.0956226
0.092235
0.0889681
0.0858375
0.0828221
0.0799317
0.077147
0.0744726
0.0718912
0.0694035
0.0669972
0.0646733
0.0624261
0.060258
0.0581662
0.0561508
0.0542078
0.0523354
0.0505308
0.0487924
0.0471176
0.0455023
0.0439417
0.0424318
0.0409702
0.0395556
0.0381871
0.0368632
0.0355813
0.0343382
0.0331313
0.0319588
0.0308189
0.0297105
0.028633
0.0275861
0.0265697
0.0255832
0.0246262
0.0236979
0.022798
0.0219259
0.0210811
0.0202624
0.0194686
0.0186983
0.0179506
0.0172248
0.0165204
0.0158369
0.0151725
0.0145233
0.0138859
0.0132586
0.0126408
0.0120317
0.0114306
0.0108367
0.0102491
0.00966753
0.00909157
0.0085209
0.00795495
0.00739286
0.00683369
0.00627667
0.00572142
0.00516805
0.00461701
0.00406882
0.0035238
0.00298193
0.00244257
0.00190327
0.00136259
0.000819581
0.000273852
0.226291
0.216841
0.207894
0.199537
0.191683
0.184338
0.177393
0.17084
0.164596
0.158653
0.152966
0.147514
0.142278
0.137235
0.13238
0.127691
0.123173
0.118802
0.11459
0.110516
0.106594
0.1028
0.0991498
0.0956204
0.092233
0.0889659
0.0858355
0.08282
0.0799298
0.0771451
0.0744709
0.0718896
0.069402
0.0669957
0.0646718
0.0624246
0.0602565
0.0581648
0.0561494
0.0542063
0.0523338
0.0505291
0.0487909
0.0471162
0.0455012
0.0439408
0.0424309
0.0409692
0.0395546
0.0381861
0.0368624
0.0355807
0.0343377
0.0331309
0.0319584
0.0308185
0.02971
0.0286323
0.0275853
0.0265688
0.0255823
0.0246253
0.023697
0.022797
0.0219248
0.02108
0.0202613
0.0194675
0.0186973
0.0179496
0.0172238
0.0165193
0.0158356
0.0151711
0.0145218
0.0138844
0.0132571
0.0126393
0.0120303
0.0114293
0.0108354
0.0102479
0.00966636
0.0090905
0.00851995
0.00795414
0.00739219
0.00683312
0.00627615
0.00572092
0.00516759
0.00461663
0.00406859
0.00352378
0.0029821
0.00244285
0.00190358
0.00136285
0.000819698
0.000273855
0.226285
0.216833
0.207883
0.199526
0.191673
0.184329
0.177385
0.170832
0.164589
0.158647
0.152961
0.147509
0.142273
0.13723
0.132376
0.127687
0.123169
0.118798
0.114586
0.110512
0.106591
0.102796
0.0991459
0.0956163
0.0922291
0.0889619
0.0858316
0.0828161
0.0799261
0.0771416
0.0744676
0.0718864
0.0693989
0.0669927
0.0646689
0.0624218
0.0602539
0.0581622
0.0561466
0.0542034
0.0523306
0.0505258
0.0487878
0.0471136
0.0454991
0.043939
0.0424292
0.0409673
0.0395526
0.0381842
0.0368608
0.0355795
0.0343369
0.0331301
0.0319576
0.0308175
0.0297087
0.0286307
0.0275835
0.0265669
0.0255805
0.0246234
0.0236951
0.0227949
0.0219226
0.0210777
0.0202591
0.0194654
0.0186953
0.0179477
0.0172219
0.0165174
0.0158334
0.0151687
0.0145192
0.0138817
0.0132545
0.0126367
0.0120278
0.0114269
0.0108331
0.0102457
0.00966424
0.00908856
0.00851824
0.00795266
0.0073909
0.00683198
0.00627514
0.00572004
0.00516689
0.00461619
0.00406846
0.00352395
0.00298254
0.00244344
0.00190413
0.00136325
0.000819902
0.000273878
0.226276
0.216819
0.207868
0.199511
0.191659
0.184315
0.177373
0.170821
0.164579
0.158638
0.152952
0.147501
0.142266
0.137223
0.132369
0.127681
0.123163
0.118792
0.11458
0.110506
0.106585
0.10279
0.0991401
0.0956104
0.0922232
0.088956
0.0858257
0.0828103
0.0799205
0.0771363
0.0744626
0.0718817
0.0693943
0.0669883
0.0646647
0.0624178
0.06025
0.0581583
0.0561425
0.054199
0.0523258
0.0505208
0.0487832
0.0471098
0.045496
0.0439363
0.0424264
0.0409644
0.0395495
0.0381814
0.0368585
0.0355777
0.0343356
0.033129
0.0319564
0.0308161
0.0297068
0.0286282
0.0275807
0.0265641
0.0255777
0.0246207
0.0236922
0.0227918
0.0219193
0.0210743
0.0202558
0.0194623
0.0186924
0.017945
0.0172192
0.0165145
0.0158303
0.0151651
0.0145154
0.0138779
0.0132506
0.0126328
0.012024
0.0114232
0.0108296
0.0102423
0.0096611
0.00908568
0.00851568
0.00795042
0.00738896
0.00683029
0.00627366
0.00571879
0.00516591
0.00461559
0.00406833
0.00352428
0.00298322
0.00244425
0.00190494
0.00136387
0.000820234
0.000273942
0.226264
0.216801
0.207847
0.19949
0.191639
0.184297
0.177356
0.170806
0.164565
0.158625
0.152941
0.147491
0.142257
0.137214
0.132361
0.127672
0.123155
0.118784
0.114572
0.110499
0.106577
0.102783
0.0991324
0.0956027
0.0922154
0.0889482
0.0858179
0.0828027
0.0799132
0.0771292
0.0744559
0.0718753
0.0693881
0.0669824
0.0646591
0.0624124
0.0602449
0.0581531
0.056137
0.0541931
0.0523194
0.0505143
0.0487771
0.0471046
0.0454918
0.0439326
0.0424228
0.0409604
0.0395454
0.0381775
0.0368554
0.0355755
0.0343339
0.0331274
0.0319547
0.0308141
0.0297042
0.0286249
0.027577
0.0265602
0.0255739
0.024617
0.0236884
0.0227876
0.0219148
0.0210697
0.0202513
0.0194581
0.0186886
0.0179414
0.0172157
0.0165109
0.0158262
0.0151605
0.0145104
0.0138728
0.0132454
0.0126276
0.0120189
0.0114183
0.0108249
0.0102378
0.00965688
0.00908184
0.00851227
0.00794743
0.00738635
0.006828
0.00627166
0.0057171
0.00516463
0.00461485
0.00406819
0.00352473
0.00298415
0.00244536
0.00190594
0.00136464
0.000820695
0.000274061
0.226249
0.216779
0.207821
0.199464
0.191615
0.184275
0.177336
0.170788
0.164548
0.15861
0.152927
0.147478
0.142245
0.137203
0.13235
0.127662
0.123144
0.118774
0.114563
0.110489
0.106568
0.102773
0.0991228
0.095593
0.0922058
0.0889386
0.0858082
0.0827932
0.0799039
0.0771204
0.0744475
0.0718673
0.0693803
0.0669751
0.0646521
0.0624058
0.0602385
0.0581467
0.0561303
0.0541858
0.0523115
0.0505061
0.0487694
0.0470981
0.0454864
0.0439279
0.0424181
0.0409555
0.0395403
0.0381728
0.0368515
0.0355727
0.0343317
0.0331254
0.0319525
0.0308116
0.0297009
0.0286208
0.0275723
0.0265555
0.0255693
0.0246124
0.0236836
0.0227824
0.0219092
0.0210639
0.0202457
0.019453
0.0186838
0.017937
0.0172114
0.0165064
0.0158212
0.0151549
0.0145043
0.0138664
0.0132389
0.0126211
0.0120124
0.011412
0.0108189
0.0102321
0.00965156
0.00907701
0.00850797
0.00794363
0.00738299
0.00682504
0.00626908
0.00571495
0.00516303
0.00461396
0.00406812
0.0035254
0.00298532
0.00244672
0.00190721
0.0013656
0.000821261
0.000274228
0.226232
0.216752
0.20779
0.199433
0.191585
0.184248
0.177311
0.170765
0.164528
0.158591
0.15291
0.147463
0.14223
0.137189
0.132337
0.127649
0.123132
0.118762
0.114551
0.110478
0.106557
0.102762
0.0991113
0.0955815
0.0921942
0.088927
0.0857965
0.0827819
0.0798929
0.0771098
0.0744374
0.0718576
0.069371
0.0669662
0.0646437
0.0623978
0.0602309
0.0581391
0.0561222
0.054177
0.052302
0.0504963
0.0487602
0.0470902
0.0454799
0.0439222
0.0424124
0.0409495
0.0395341
0.0381671
0.0368469
0.0355694
0.0343292
0.0331229
0.03195
0.0308086
0.0296969
0.0286157
0.0275666
0.0265497
0.0255637
0.0246069
0.0236778
0.0227761
0.0219024
0.021057
0.0202391
0.0194468
0.0186782
0.0179318
0.0172064
0.0165012
0.0158155
0.0151483
0.0144972
0.0138588
0.0132309
0.0126131
0.0120045
0.0114044
0.0108116
0.0102252
0.00964514
0.00907113
0.00850265
0.00793889
0.00737879
0.00682134
0.00626588
0.00571234
0.00516118
0.00461303
0.00406817
0.00352628
0.00298681
0.00244841
0.00190874
0.00136674
0.000821938
0.000274444
0.226212
0.21672
0.207753
0.199396
0.191551
0.184216
0.177282
0.170739
0.164505
0.15857
0.152891
0.147445
0.142214
0.137174
0.132322
0.127635
0.123118
0.118749
0.114538
0.110465
0.106543
0.102749
0.099098
0.0955682
0.0921807
0.0889135
0.0857829
0.0827686
0.0798799
0.0770974
0.0744255
0.0718463
0.06936
0.0669559
0.0646339
0.0623886
0.0602221
0.0581303
0.0561128
0.0541668
0.052291
0.0504849
0.0487495
0.0470809
0.0454722
0.0439153
0.0424057
0.0409424
0.0395269
0.0381604
0.0368416
0.0355657
0.0343264
0.03312
0.0319469
0.0308051
0.0296922
0.0286098
0.0275599
0.0265429
0.0255572
0.0246005
0.0236711
0.0227688
0.0218945
0.021049
0.0202314
0.0194397
0.0186718
0.0179258
0.0172007
0.0164953
0.015809
0.0151409
0.014489
0.0138499
0.0132216
0.0126035
0.0119952
0.0113954
0.010803
0.0102171
0.00963755
0.00906412
0.00849627
0.00793316
0.00737371
0.00681688
0.00626208
0.00570935
0.00515917
0.00461215
0.00406841
0.00352747
0.00298857
0.00245034
0.00191047
0.00136802
0.000822715
0.000274701
0.226189
0.216683
0.207711
0.199355
0.191512
0.18418
0.17725
0.170709
0.164478
0.158545
0.152869
0.147425
0.142195
0.137156
0.132304
0.127618
0.123102
0.118733
0.114522
0.11045
0.106528
0.102734
0.0990828
0.095553
0.0921653
0.0888981
0.0857674
0.0827534
0.0798651
0.0770833
0.0744119
0.0718333
0.0693475
0.066944
0.0646227
0.0623781
0.060212
0.0581202
0.0561021
0.0541553
0.0522785
0.050472
0.0487371
0.0470702
0.0454631
0.0439074
0.0423979
0.0409343
0.0395187
0.0381528
0.0368356
0.0355614
0.034323
0.0331165
0.0319434
0.0308011
0.0296867
0.0286028
0.0275521
0.0265351
0.0255496
0.024593
0.0236633
0.0227604
0.0218855
0.0210399
0.0202227
0.0194317
0.0186645
0.0179192
0.0171943
0.0164887
0.0158018
0.0151327
0.0144797
0.0138398
0.0132108
0.0125925
0.0119842
0.0113849
0.0107931
0.0102078
0.00962876
0.00905593
0.00848879
0.00792643
0.00736773
0.00681169
0.00625776
0.00570607
0.0051571
0.00461138
0.0040687
0.00352864
0.00299048
0.00245251
0.00191241
0.00136944
0.00082357
0.000274977
0.226163
0.216642
0.207664
0.199308
0.191468
0.18414
0.177213
0.170676
0.164447
0.158518
0.152844
0.147402
0.142173
0.137136
0.132285
0.1276
0.123084
0.118715
0.114505
0.110433
0.106511
0.102717
0.0990658
0.095536
0.092148
0.0888808
0.0857499
0.0827363
0.0798484
0.0770673
0.0743965
0.0718187
0.0693334
0.0669306
0.0646102
0.0623664
0.0602007
0.0581089
0.0560902
0.0541423
0.0522646
0.0504574
0.0487232
0.0470579
0.0454527
0.0438983
0.0423891
0.0409252
0.0395095
0.0381443
0.0368289
0.0355567
0.0343192
0.0331124
0.0319394
0.0307964
0.0296804
0.0285948
0.0275433
0.0265261
0.0255409
0.0245845
0.0236544
0.0227509
0.0218756
0.0210299
0.0202132
0.019423
0.0186566
0.0179119
0.0171873
0.0164815
0.0157939
0.0151237
0.0144693
0.0138282
0.0131984
0.0125798
0.0119718
0.011373
0.0107819
0.0101972
0.00961875
0.0090466
0.00848024
0.00791875
0.00736096
0.00680589
0.00625306
0.00570263
0.00515487
0.00461021
0.00406882
0.00353002
0.00299269
0.00245491
0.00191448
0.0013709
0.000824405
0.000275224
0.226135
0.216596
0.207611
0.199255
0.191419
0.184095
0.177172
0.170639
0.164414
0.158487
0.152816
0.147377
0.14215
0.137113
0.132263
0.127579
0.123063
0.118696
0.114486
0.110414
0.106492
0.102698
0.099047
0.0955172
0.0921288
0.0888615
0.0857305
0.0827172
0.0798299
0.0770495
0.0743795
0.0718024
0.0693177
0.0669156
0.0645961
0.0623533
0.0601881
0.0580964
0.0560769
0.054128
0.0522491
0.0504414
0.0487076
0.0470442
0.045441
0.043888
0.0423793
0.0409152
0.0394993
0.038135
0.0368215
0.0355514
0.0343148
0.0331075
0.0319347
0.0307909
0.0296731
0.0285858
0.0275332
0.0265159
0.025531
0.0245748
0.0236445
0.0227404
0.0218647
0.0210191
0.0202029
0.0194136
0.0186481
0.0179041
0.0171797
0.0164737
0.0157853
0.0151137
0.0144576
0.013815
0.0131844
0.0125655
0.0119577
0.0113597
0.0107694
0.0101854
0.00960756
0.00903617
0.00847073
0.00791025
0.00735352
0.00679956
0.00624789
0.0056986
0.00515216
0.00460907
0.00406925
0.00353171
0.00299506
0.00245731
0.0019164
0.00137217
0.000825067
0.000275387
0.226105
0.216545
0.207553
0.199197
0.191365
0.184046
0.177127
0.170598
0.164377
0.158454
0.152786
0.147349
0.142124
0.137089
0.13224
0.127556
0.123041
0.118674
0.114464
0.110393
0.106471
0.102678
0.0990263
0.0954965
0.0921077
0.0888403
0.0857092
0.0826963
0.0798095
0.0770301
0.0743607
0.0717844
0.0693005
0.0668992
0.0645806
0.0623388
0.0601742
0.0580824
0.0560623
0.0541122
0.0522322
0.0504238
0.0486906
0.0470289
0.045428
0.0438767
0.0423686
0.0409043
0.0394883
0.0381249
0.0368133
0.0355454
0.0343096
0.0331018
0.0319291
0.0307845
0.0296647
0.0285755
0.027522
0.0265045
0.0255199
0.0245639
0.0236334
0.022729
0.0218531
0.0210077
0.0201921
0.0194036
0.018639
0.0178957
0.0171715
0.0164653
0.0157759
0.0151028
0.0144447
0.0138004
0.0131687
0.0125494
0.011942
0.0113449
0.0107557
0.0101723
0.00959515
0.00902462
0.00846025
0.00790093
0.00734536
0.0067926
0.00624223
0.00569442
0.00514966
0.00460831
0.00407002
0.00353354
0.00299726
0.00245927
0.0019178
0.00137296
0.000825411
0.000275419
0.226073
0.216489
0.207489
0.199134
0.191306
0.183992
0.177078
0.170554
0.164337
0.158417
0.152752
0.147318
0.142095
0.137062
0.132214
0.127532
0.123017
0.118651
0.114441
0.11037
0.106449
0.102655
0.0990038
0.095474
0.0920847
0.0888171
0.0856859
0.0826734
0.0797872
0.0770089
0.0743403
0.0717649
0.0692817
0.0668812
0.0645636
0.0623229
0.0601589
0.0580671
0.0560464
0.0540951
0.0522138
0.0504048
0.048672
0.0470122
0.0454137
0.0438643
0.042357
0.0408925
0.0394765
0.038114
0.0368044
0.0355385
0.0343035
0.033095
0.0319225
0.0307769
0.029655
0.028564
0.0275095
0.0264918
0.0255075
0.0245517
0.0236214
0.0227169
0.0218409
0.0209957
0.0201807
0.0193931
0.0186294
0.0178867
0.0171628
0.0164561
0.0157657
0.0150909
0.0144304
0.0137841
0.0131512
0.0125316
0.0119247
0.0113287
0.0107407
0.010158
0.00958154
0.00901198
0.00844884
0.00789085
0.00733664
0.0067853
0.00623651
0.00569045
0.00514754
0.00460792
0.00407094
0.00353513
0.00299882
0.00246036
0.00191832
0.00137311
0.000825372
0.000275313
0.226039
0.216427
0.20742
0.199066
0.191242
0.183933
0.177025
0.170506
0.164293
0.158378
0.152717
0.147286
0.142065
0.137033
0.132186
0.127505
0.122991
0.118625
0.114416
0.110346
0.106425
0.102631
0.0989794
0.0954496
0.0920597
0.0887919
0.0856607
0.0826486
0.0797632
0.076986
0.0743184
0.0717438
0.0692614
0.0668617
0.0645451
0.0623056
0.060142
0.0580503
0.056029
0.0540766
0.052194
0.0503843
0.048652
0.0469941
0.0453983
0.0438509
0.0423446
0.0408802
0.039464
0.0381024
0.0367946
0.0355305
0.0342961
0.033087
0.0319146
0.0307678
0.029644
0.0285512
0.0274957
0.0264778
0.0254938
0.0245384
0.0236084
0.022704
0.0218282
0.0209834
0.020169
0.0193821
0.0186191
0.017877
0.0171533
0.0164461
0.0157544
0.0150776
0.0144145
0.0137662
0.0131321
0.0125123
0.0119059
0.0113112
0.0107246
0.0101427
0.00956692
0.00899849
0.00843673
0.00788023
0.00732757
0.00677787
0.00623088
0.00568675
0.00514571
0.00460764
0.00407161
0.00353601
0.00299928
0.00246019
0.00191777
0.00137257
0.000825002
0.0002751
0.226002
0.216361
0.207345
0.198992
0.191173
0.183871
0.176968
0.170454
0.164246
0.158336
0.152678
0.14725
0.142032
0.137002
0.132156
0.127476
0.122962
0.118598
0.11439
0.11032
0.106398
0.102605
0.0989532
0.0954233
0.0920328
0.0887647
0.0856335
0.0826219
0.0797373
0.0769615
0.0742949
0.0717212
0.0692397
0.0668407
0.064525
0.0622866
0.0601237
0.0580319
0.0560102
0.0540567
0.0521728
0.0503624
0.0486306
0.0469747
0.0453816
0.0438366
0.0423315
0.0408672
0.039451
0.0380901
0.0367838
0.0355212
0.0342871
0.0330775
0.0319052
0.0307571
0.0296315
0.0285371
0.0274806
0.0264626
0.0254788
0.024524
0.0235945
0.0226906
0.0218151
0.0209707
0.0201568
0.0193705
0.0186082
0.0178666
0.0171428
0.0164349
0.0157417
0.0150627
0.014397
0.0137466
0.0131115
0.0124915
0.011886
0.0112926
0.0107076
0.0101264
0.00955155
0.00898441
0.00842415
0.00786925
0.00731826
0.00677036
0.0062253
0.00568313
0.00514387
0.00460705
0.00407154
0.0035357
0.00299827
0.00245863
0.00191621
0.0013715
0.000824444
0.000274836
0.225964
0.216288
0.207264
0.198913
0.191099
0.183803
0.176907
0.170399
0.164197
0.158291
0.152637
0.147213
0.141996
0.136968
0.132123
0.127445
0.122932
0.118569
0.114361
0.110292
0.10637
0.102577
0.0989251
0.0953951
0.092004
0.0887355
0.0856042
0.0825933
0.0797096
0.0769354
0.0742699
0.0716972
0.0692164
0.0668182
0.0645032
0.062266
0.0601037
0.0580121
0.05599
0.0540354
0.0521502
0.0503392
0.048608
0.0469541
0.045364
0.0438215
0.0423177
0.0408537
0.0394374
0.0380769
0.0367718
0.0355103
0.0342765
0.0330665
0.0318941
0.0307447
0.0296175
0.0285217
0.0274644
0.0264461
0.0254625
0.0245084
0.0235798
0.0226766
0.0218018
0.0209578
0.0201443
0.0193584
0.0185965
0.0178551
0.0171312
0.0164223
0.0157273
0.0150459
0.0143777
0.0137254
0.0130895
0.0124697
0.0118651
0.0112733
0.0106898
0.0101095
0.00953572
0.00896999
0.00841129
0.007858
0.00730871
0.00676264
0.00621951
0.00567925
0.00514157
0.00460569
0.00407029
0.00353385
0.00299572
0.00245585
0.00191399
0.0013702
0.00082384
0.000274564
0.225926
0.21621
0.207177
0.198828
0.191021
0.183732
0.176842
0.17034
0.164144
0.158243
0.152593
0.147173
0.141959
0.136933
0.132089
0.127412
0.1229
0.118538
0.114331
0.110262
0.106341
0.102548
0.0988952
0.095365
0.0919731
0.0887043
0.085573
0.0825628
0.0796802
0.0769076
0.0742434
0.0716716
0.0691917
0.0667941
0.0644799
0.0622436
0.060082
0.0579907
0.0559684
0.0540129
0.0521263
0.0503148
0.0485843
0.0469325
0.0453453
0.0438055
0.0423033
0.0408396
0.0394232
0.0380628
0.0367583
0.0354976
0.0342639
0.0330538
0.0318811
0.0307305
0.029602
0.0285052
0.027447
0.0264284
0.025445
0.0244916
0.0235642
0.0226621
0.0217881
0.0209445
0.0201313
0.0193456
0.0185838
0.0178424
0.017118
0.0164078
0.0157109
0.015027
0.0143566
0.0137027
0.0130665
0.0124472
0.0118438
0.0112535
0.0106714
0.0100921
0.0095196
0.00895534
0.00839815
0.00784639
0.00729873
0.00675443
0.00621317
0.00567469
0.00513837
0.00460312
0.00406756
0.00353044
0.0029919
0.00245251
0.00191163
0.00136881
0.000823233
0.000274301
0.225885
0.216127
0.207084
0.198738
0.190937
0.183655
0.176774
0.170278
0.164087
0.158192
0.152547
0.14713
0.141919
0.136895
0.132052
0.127377
0.122866
0.118505
0.114298
0.11023
0.106309
0.102517
0.0988634
0.0953329
0.0919403
0.088671
0.0855397
0.0825303
0.0796489
0.0768782
0.0742154
0.0716445
0.0691654
0.0667685
0.0644548
0.0622196
0.0600587
0.0579678
0.0559454
0.0539891
0.0521012
0.0502893
0.0485598
0.0469099
0.0453257
0.0437887
0.0422881
0.0408249
0.0394083
0.0380476
0.0367433
0.0354829
0.0342493
0.0330393
0.0318661
0.0307145
0.0295852
0.0284875
0.0274287
0.0264095
0.0254263
0.0244738
0.0235477
0.022647
0.0217739
0.0209308
0.0201177
0.019332
0.01857
0.0178282
0.0171029
0.0163912
0.0156921
0.0150059
0.0143337
0.0136787
0.0130427
0.0124243
0.0118222
0.0112333
0.0106524
0.0100743
0.00950324
0.00894039
0.00838456
0.00783417
0.00728802
0.00674539
0.00620589
0.00566905
0.00513393
0.00459912
0.00406335
0.00352595
0.0029879
0.00244898
0.00190897
0.00136741
0.000822825
0.000274084
0.225843
0.216037
0.206985
0.198642
0.190849
0.183575
0.176701
0.170212
0.164028
0.158138
0.152498
0.147085
0.141876
0.136855
0.132014
0.12734
0.12283
0.11847
0.114264
0.110197
0.106276
0.102483
0.0988298
0.095299
0.0919055
0.0886356
0.0855043
0.0824959
0.0796158
0.0768471
0.0741858
0.0716159
0.0691375
0.0667412
0.0644282
0.0621938
0.0600338
0.0579435
0.0559212
0.0539642
0.0520752
0.050263
0.0485345
0.0468864
0.0453051
0.0437709
0.0422719
0.0408093
0.0393924
0.0380311
0.0367265
0.0354661
0.0342327
0.0330231
0.0318494
0.030697
0.0295671
0.0284689
0.0274094
0.0263896
0.0254064
0.0244548
0.0235302
0.0226312
0.0217592
0.0209165
0.0201033
0.0193172
0.0185548
0.0178123
0.0170857
0.0163723
0.015671
0.0149826
0.0143092
0.0136537
0.0130183
0.0124013
0.0118005
0.0112128
0.0106329
0.0100561
0.00948645
0.00892486
0.0083702
0.00782099
0.00727621
0.00673517
0.00619738
0.00566211
0.0051281
0.00459389
0.00405873
0.00352147
0.00298334
0.00244498
0.00190628
0.0013663
0.000822808
0.000273986
0.2258
0.215941
0.20688
0.19854
0.190755
0.18349
0.176624
0.170142
0.163966
0.158082
0.152447
0.147038
0.141832
0.136812
0.131973
0.127301
0.122792
0.118434
0.114229
0.110162
0.106241
0.102449
0.0987943
0.0952631
0.0918687
0.0885982
0.0854669
0.0824594
0.0795809
0.0768143
0.0741544
0.0715856
0.0691079
0.0667123
0.0643999
0.0621664
0.0600074
0.0579179
0.0558959
0.0539383
0.0520484
0.0502362
0.0485087
0.0468623
0.0452834
0.0437519
0.0422546
0.0407926
0.0393754
0.0380132
0.0367077
0.0354471
0.0342142
0.0330052
0.0318309
0.030678
0.029548
0.0284496
0.0273892
0.0263686
0.0253853
0.0244346
0.0235116
0.0226144
0.0217437
0.0209015
0.0200879
0.0193012
0.018538
0.0177943
0.0170662
0.0163508
0.0156474
0.0149572
0.0142834
0.013628
0.0129937
0.0123782
0.0117788
0.011192
0.0106128
0.0100372
0.00946887
0.00890835
0.00835466
0.0078065
0.00726301
0.00672356
0.00618753
0.00565405
0.00512172
0.00458868
0.00405362
0.00351612
0.00297834
0.00244105
0.00190397
0.00136567
0.000823255
0.000274138
0.225758
0.215838
0.206769
0.198433
0.190657
0.183401
0.176543
0.17007
0.1639
0.158023
0.152393
0.146988
0.141785
0.136768
0.13193
0.127259
0.122752
0.118395
0.114191
0.110126
0.106204
0.102412
0.098757
0.0952252
0.0918299
0.0885588
0.0854275
0.082421
0.0795441
0.0767796
0.0741213
0.0715535
0.0690766
0.0666818
0.06437
0.0621374
0.0599795
0.0578911
0.0558697
0.0539117
0.0520213
0.0502092
0.0484827
0.0468375
0.0452605
0.0437315
0.0422358
0.0407744
0.0393569
0.0379935
0.0366869
0.035426
0.0341938
0.0329858
0.0318109
0.030658
0.0295281
0.0284295
0.0273682
0.0263465
0.0253629
0.0244132
0.0234919
0.0225965
0.0217272
0.0208854
0.0200713
0.0192837
0.0185193
0.017774
0.0170441
0.0163268
0.0156215
0.0149301
0.0142567
0.0136018
0.0129691
0.0123552
0.011757
0.0111707
0.0105917
0.0100173
0.00945005
0.00889041
0.00833755
0.00779045
0.00724852
0.00671095
0.00617701
0.00564549
0.00511463
0.0045824
0.0040476
0.00351041
0.00297353
0.00243769
0.00190217
0.00136528
0.000824544
0.000274696
0.225715
0.215729
0.206651
0.198321
0.190553
0.183307
0.176459
0.169994
0.163832
0.157961
0.152337
0.146936
0.141736
0.136721
0.131885
0.127216
0.12271
0.118355
0.114151
0.110087
0.106166
0.102374
0.0987179
0.0951855
0.0917891
0.0885173
0.085386
0.0823806
0.0795053
0.0767429
0.0740862
0.0715195
0.0690435
0.0666495
0.0643385
0.0621068
0.0599504
0.0578633
0.0558426
0.0538847
0.051994
0.0501823
0.0484565
0.046812
0.0452362
0.0437092
0.0422152
0.0407544
0.0393366
0.037972
0.036664
0.0354027
0.0341717
0.0329652
0.0317898
0.0306372
0.0295077
0.0284088
0.0273462
0.0263228
0.0253393
0.0243907
0.0234711
0.0225775
0.0217095
0.020868
0.0200533
0.0192645
0.0184985
0.0177514
0.0170194
0.0163003
0.0155937
0.0149016
0.0142295
0.0135756
0.0129447
0.0123322
0.0117348
0.0111485
0.0105695
0.00999598
0.00942958
0.0088708
0.0083191
0.00777338
0.00723292
0.00669714
0.00616528
0.00563577
0.00510651
0.00457537
0.0040413
0.00350484
0.00296951
0.00243499
0.00190028
0.00136574
0.000826914
0.000275694
0.225671
0.215614
0.206527
0.198203
0.190445
0.183209
0.176371
0.169914
0.16376
0.157897
0.152278
0.146882
0.141685
0.136673
0.131837
0.127171
0.122666
0.118313
0.11411
0.110047
0.106126
0.102334
0.098677
0.095144
0.0917465
0.088474
0.0853425
0.0823381
0.0794644
0.0767041
0.0740489
0.0714836
0.0690085
0.0666155
0.0643054
0.0620749
0.0599201
0.0578346
0.0558149
0.0538574
0.0519671
0.0501557
0.0484302
0.0467858
0.0452104
0.0436848
0.0421923
0.0407322
0.0393143
0.0379485
0.036639
0.0353775
0.034148
0.0329435
0.031768
0.0306159
0.0294869
0.0283872
0.0273224
0.0262976
0.0253142
0.0243673
0.0234496
0.0225573
0.0216905
0.0208492
0.0200338
0.0192434
0.0184755
0.0177263
0.0169923
0.0162716
0.0155641
0.0148723
0.0142021
0.0135494
0.0129203
0.012309
0.0117117
0.011125
0.0105459
0.00997294
0.00940745
0.0088497
0.00829904
0.00775456
0.0072157
0.00668199
0.00615248
0.00562519
0.00509776
0.00456807
0.00403535
0.0035005
0.00296636
0.002432
0.00189935
0.00136739
0.000830167
0.000276964
0.225627
0.215491
0.206397
0.198079
0.190332
0.183107
0.176278
0.169831
0.163686
0.15783
0.152217
0.146826
0.141632
0.136622
0.131788
0.127123
0.12262
0.118269
0.114067
0.110005
0.106084
0.102292
0.0986344
0.0951006
0.091702
0.0884287
0.085297
0.0822935
0.0794214
0.0766631
0.0740095
0.0714455
0.0689716
0.0665797
0.0642708
0.0620417
0.0598886
0.0578051
0.0557868
0.0538303
0.0519406
0.0501296
0.048404
0.0467587
0.0451828
0.0436579
0.0421668
0.0407077
0.0392897
0.0379229
0.036612
0.0353504
0.0341228
0.0329208
0.0317459
0.0305943
0.0294656
0.0283644
0.0272974
0.0262712
0.0252877
0.0243423
0.023427
0.0225365
0.0216702
0.0208289
0.0200125
0.0192203
0.0184502
0.0176988
0.0169629
0.0162409
0.0155332
0.0148423
0.0141744
0.0135234
0.0128957
0.012285
0.0116875
0.0111001
0.0105205
0.0099481
0.0093834
0.00882655
0.00827696
0.00773395
0.00719705
0.00666577
0.00613894
0.00561415
0.0050889
0.00456116
0.00403032
0.00349647
0.00296284
0.00243023
0.00189995
0.0013701
0.000833742
0.000278183
0.225583
0.215361
0.206259
0.19795
0.190214
0.183
0.176183
0.169745
0.163608
0.15776
0.152153
0.146767
0.141576
0.136569
0.131737
0.127074
0.122572
0.118223
0.114022
0.109962
0.106041
0.102248
0.0985899
0.0950553
0.0916556
0.0883816
0.0852495
0.0822469
0.0793762
0.0766198
0.0739678
0.0714054
0.0689328
0.0665422
0.0642347
0.0620071
0.0598562
0.0577749
0.0557585
0.0538035
0.051915
0.0501042
0.0483777
0.0467308
0.0451532
0.0436281
0.0421384
0.0406804
0.0392628
0.0378952
0.0365831
0.0353215
0.0340961
0.032897
0.0317235
0.0305725
0.0294436
0.0283409
0.0272717
0.0262436
0.0252595
0.0243155
0.0234026
0.0225144
0.0216492
0.0208074
0.0199896
0.0191953
0.0184228
0.0176691
0.0169313
0.0162085
0.0155012
0.0148119
0.0141458
0.0134972
0.0128706
0.0122598
0.0116614
0.0110732
0.0104933
0.00992118
0.00935714
0.0088012
0.00825288
0.00771177
0.00717738
0.00664907
0.00612527
0.00560305
0.00508013
0.00455436
0.00402496
0.00349281
0.00296098
0.00243031
0.00190198
0.00137338
0.000836923
0.000278994
0.225543
0.215221
0.206115
0.197815
0.190091
0.182889
0.176083
0.169655
0.163528
0.157688
0.152088
0.146706
0.141519
0.136514
0.131684
0.127022
0.122522
0.118175
0.113976
0.109916
0.105995
0.102203
0.0985437
0.0950083
0.0916073
0.0883327
0.0852001
0.0821981
0.0793287
0.076574
0.0739237
0.0713631
0.068892
0.0665031
0.064197
0.0619713
0.0598227
0.0577442
0.0557302
0.0537772
0.0518901
0.0500795
0.0483514
0.0467019
0.0451215
0.0435955
0.0421068
0.0406505
0.0392335
0.0378656
0.0365525
0.0352911
0.0340681
0.0328722
0.0317006
0.0305507
0.0294217
0.0283172
0.0272454
0.026215
0.0252298
0.0242866
0.0233762
0.0224905
0.0216267
0.0207848
0.0199654
0.0191686
0.0183934
0.0176373
0.0168979
0.0161746
0.0154682
0.0147811
0.0141165
0.0134704
0.0128442
0.0122327
0.0116333
0.0110442
0.0104639
0.00989201
0.00932862
0.00877378
0.00822722
0.00768866
0.00715709
0.00663141
0.00611048
0.00559147
0.00507144
0.00454816
0.00402096
0.00349104
0.00296105
0.00243202
0.00190488
0.00137654
0.000839035
0.000279127
0.225503
0.215074
0.205964
0.197674
0.189964
0.182774
0.17598
0.169563
0.163445
0.157613
0.152019
0.146643
0.141459
0.136457
0.131628
0.126969
0.12247
0.118125
0.113927
0.109869
0.105948
0.102155
0.0984956
0.0949593
0.0915572
0.0882819
0.0851488
0.0821472
0.0792789
0.0765258
0.0738772
0.0713186
0.0688495
0.0664622
0.0641579
0.0619342
0.0597884
0.057713
0.055702
0.0537515
0.0518661
0.0500554
0.0483249
0.0466718
0.0450877
0.0435598
0.0420721
0.0406178
0.0392021
0.0378341
0.0365205
0.0352593
0.0340389
0.0328465
0.0316772
0.0305287
0.0293998
0.0282935
0.0272187
0.0261853
0.0251983
0.0242555
0.0233474
0.0224645
0.0216023
0.0207606
0.0199399
0.0191406
0.0183623
0.0176037
0.016863
0.0161395
0.0154343
0.0147494
0.0140866
0.0134423
0.012816
0.0122034
0.0116028
0.0110128
0.0104322
0.00986062
0.0092981
0.00874479
0.00820019
0.00766393
0.00713531
0.00661336
0.00609622
0.0055807
0.00506371
0.00454309
0.00401828
0.00349061
0.00296239
0.00243459
0.00190783
0.00137887
0.000839579
0.000278465
0.225463
0.21492
0.205806
0.197528
0.189831
0.182655
0.175873
0.169467
0.163359
0.157536
0.151949
0.146578
0.141397
0.136398
0.131571
0.126913
0.122416
0.118074
0.113877
0.10982
0.105899
0.102106
0.0984456
0.0949084
0.0915052
0.0882292
0.0850955
0.0820941
0.0792268
0.0764751
0.0738283
0.0712721
0.0688051
0.0664197
0.0641172
0.0618958
0.0597531
0.0576814
0.0556741
0.0537264
0.0518427
0.0500316
0.0482981
0.0466404
0.0450517
0.0435211
0.0420343
0.0405827
0.0391687
0.0378011
0.0364872
0.0352265
0.0340087
0.0328199
0.0316535
0.0305067
0.0293779
0.0282697
0.0271915
0.0261545
0.0251652
0.0242222
0.0233163
0.0224362
0.021576
0.0207347
0.0199128
0.0191112
0.0183301
0.0175691
0.0168269
0.0161032
0.0153992
0.0147164
0.0140552
0.0134122
0.0127855
0.0121717
0.0115698
0.010979
0.0103983
0.00982707
0.00926551
0.00871377
0.00817166
0.0076388
0.00711427
0.00659651
0.00608316
0.00557092
0.00505678
0.00453873
0.00401628
0.0034908
0.00296423
0.00243747
0.00191027
0.00137974
0.000838303
0.000277052
0.225425
0.214756
0.20564
0.197376
0.189694
0.182531
0.175762
0.169368
0.163271
0.157456
0.151876
0.146511
0.141333
0.136337
0.131511
0.126856
0.122361
0.11802
0.113825
0.109769
0.105849
0.102055
0.0983936
0.0948555
0.0914511
0.0881745
0.0850403
0.0820389
0.0791724
0.076422
0.0737772
0.0712236
0.0687589
0.0663756
0.0640751
0.0618564
0.0597172
0.0576496
0.0556463
0.0537016
0.0518196
0.0500078
0.0482708
0.0466078
0.0450136
0.0434797
0.0419937
0.0405453
0.0391338
0.0377671
0.0364532
0.0351932
0.0339777
0.0327926
0.0316293
0.0304844
0.0293559
0.0282457
0.0271636
0.0261225
0.0251305
0.024187
0.0232828
0.0224057
0.0215476
0.0207068
0.0198839
0.0190801
0.0182963
0.0175329
0.0167894
0.0160656
0.0153627
0.0146819
0.0140222
0.0133799
0.0127523
0.0121371
0.011534
0.0109426
0.0103619
0.00979131
0.0092312
0.00868194
0.00814337
0.00761477
0.0070947
0.0065811
0.00607124
0.00556185
0.00505016
0.00453439
0.00401416
0.00349069
0.00296563
0.00243955
0.00191095
0.00137859
0.000835194
0.000275048
0.22539
0.214582
0.205468
0.197219
0.189552
0.182404
0.175648
0.169266
0.163179
0.157374
0.151801
0.146441
0.141267
0.136274
0.13145
0.126797
0.122303
0.117965
0.113771
0.109717
0.105796
0.102002
0.0983397
0.0948005
0.0913949
0.0881177
0.0849829
0.0819814
0.0791157
0.0763666
0.073724
0.0711732
0.068711
0.0663299
0.0640316
0.0618158
0.0596805
0.0576175
0.0556185
0.053677
0.0517963
0.0499836
0.0482427
0.0465739
0.0449735
0.0434358
0.0419507
0.0405061
0.0390979
0.0377325
0.036419