/*--------------------------------*- C++ -*----------------------------------*\
| =========                 |                                                 |
| \\      /  F ield         | OpenFOAM: The Open Source CFD Toolbox           |
|  \\    /   O peration     | Version:  4.1                                   |
|   \\  /    A nd           | Web:      www.OpenFOAM.org                      |
|    \\/     M anipulation  |                                                 |
\*---------------------------------------------------------------------------*/
FoamFile
{
    version     2.0;
    format      ascii;
    class       surfaceScalarField;
    location    "7";
    object      phi;
}
// * * * * * * * * * * * * * * * * * * * * * * * * * * * * * * * * * * * * * //

dimensions      [0 3 -1 0 0 0 0];

internalField   nonuniform List<scalar> 
52920
(
16.865
-0.00360452
16.8464
0.0186066
16.8063
0.0400771
16.7465
0.0597917
16.6685
0.0780063
16.5741
0.0944598
16.4646
0.109482
16.3416
0.12301
16.2062
0.135396
16.0596
0.146607
15.9027
0.156878
15.7366
0.166124
15.5621
0.174455
15.3801
0.182012
15.1916
0.188514
14.9972
0.194427
14.7977
0.19941
14.594
0.203792
14.3864
0.207512
14.1757
0.210738
13.9624
0.213288
13.7469
0.215563
13.5295
0.217328
13.3109
0.218627
13.0911
0.219764
12.8708
0.220334
12.6502
0.220633
12.4294
0.220773
12.2089
0.220512
11.9888
0.220047
11.7694
0.219431
11.551
0.218368
11.3339
0.217121
11.1181
0.21582
10.9039
0.214169
10.6915
0.212403
10.481
0.210487
10.273
0.208073
10.0675
0.20541
9.86492
0.202625
9.66526
0.19966
9.46838
0.196881
9.27402
0.194362
9.08213
0.191885
8.89275
0.189385
8.70611
0.186638
8.52265
0.183462
8.34265
0.179996
8.16613
0.176524
7.99285
0.173274
7.82258
0.170272
7.65518
0.167395
7.49074
0.164437
7.32956
0.161185
7.172
0.157553
7.0184
0.153606
6.8689
0.149502
6.72342
0.14547
6.58176
0.141668
6.44366
0.138092
6.30905
0.134617
6.17799
0.131061
6.05067
0.127314
5.92725
0.123418
5.80777
0.119485
5.69217
0.115601
5.58035
0.111815
5.47226
0.108096
5.36788
0.104375
5.26727
0.100613
5.17048
0.0967885
5.07757
0.0929038
4.98857
0.0890049
4.90322
0.0853457
4.82148
0.0817456
4.74363
0.0778432
4.66976
0.073873
4.59988
0.0698733
4.53402
0.0658601
4.47218
0.0618421
4.41436
0.0578193
4.36057
0.053787
4.31084
0.0497278
4.26523
0.045617
4.22378
0.0414409
4.18659
0.0371926
4.15373
0.0328646
4.12527
0.0284527
4.10132
0.0239561
4.08194
0.0193784
4.0672
0.0147339
4.05716
0.0100404
4.05186
0.00530523
4.05134
0.000519576
4.05566
-0.00432496
4.06484
-0.00918171
4.0791
-0.0142562
4.09861
-0.0195068
4.12351
-0.0249015
-0.0303756
16.8648
-0.00737175
16.8462
0.0372156
16.8061
0.080174
16.7463
0.119599
16.6683
0.156039
16.5738
0.188928
16.4643
0.218974
16.3413
0.246031
16.2059
0.270795
16.0593
0.293223
15.9024
0.313756
15.7362
0.332279
15.5618
0.348922
15.3797
0.364069
15.1912
0.377054
14.9967
0.388891
14.7973
0.398837
14.5935
0.407583
14.386
0.415
14.1753
0.421459
13.962
0.426582
13.7464
0.431139
13.529
0.43472
13.3103
0.437299
13.0905
0.439577
12.8701
0.440707
12.6495
0.441261
12.4287
0.441558
12.2082
0.441049
11.9882
0.440078
11.7687
0.438855
11.5504
0.436744
11.3333
0.434206
11.1175
0.431634
10.9033
0.42837
10.6909
0.424802
10.4803
0.421009
10.2722
0.416211
10.0668
0.410829
9.86413
0.405266
9.66444
0.39935
9.46758
0.393741
9.27322
0.388725
9.0813
0.383806
8.8919
0.378782
8.70528
0.37326
8.52188
0.366861
8.34198
0.359889
8.16554
0.352968
7.99227
0.346537
7.82196
0.340582
7.65452
0.33484
7.49003
0.328925
7.3288
0.322412
7.17124
0.315113
7.01767
0.307176
6.86823
0.298941
6.72282
0.290879
6.58116
0.283323
6.44303
0.276219
6.30838
0.269273
6.1773
0.262133
6.05001
0.254602
5.92664
0.246791
5.80719
0.238941
5.69158
0.231207
5.57974
0.223653
5.47161
0.216227
5.3672
0.20879
5.26655
0.201256
5.16974
0.193605
5.0768
0.185839
4.98776
0.17804
4.90241
0.170695
4.82064
0.163517
4.74278
0.155703
4.6689
0.147751
4.59903
0.139739
4.53319
0.131699
4.47138
0.123653
4.41359
0.115604
4.35984
0.107536
4.31015
0.0994179
4.26457
0.091197
4.22317
0.0828431
4.18601
0.0743477
4.15318
0.0656976
4.12475
0.0568763
4.10083
0.0478824
4.08147
0.0387305
4.06676
0.0294507
4.05672
0.0200794
4.05138
0.0106361
4.05081
0.00109102
4.05507
-0.00858404
4.06419
-0.0183031
4.07839
-0.0284518
4.09782
-0.0389434
4.12264
-0.049715
-0.0606507
16.8644
-0.0112081
16.8457
0.0558441
16.8056
0.120303
16.7458
0.179441
16.6677
0.234107
16.5732
0.283425
16.4637
0.328483
16.3407
0.369073
16.2053
0.4062
16.0586
0.439857
15.9017
0.47064
15.7355
0.498478
15.561
0.523444
15.3789
0.546202
15.1903
0.565678
14.9957
0.583407
14.7963
0.598275
14.5925
0.611345
14.3851
0.622431
14.1744
0.632151
13.9611
0.639923
13.7454
0.646789
13.5279
0.652236
13.3091
0.65609
13.0892
0.659449
12.8688
0.661148
12.6481
0.661922
12.4273
0.662349
12.2068
0.661616
11.9868
0.660097
11.7674
0.658227
11.549
0.655117
11.3319
0.651279
11.1162
0.647418
10.9019
0.642607
10.6895
0.637232
10.4789
0.631552
10.2707
0.624447
10.0652
0.616325
9.86252
0.607955
9.66274
0.599129
9.46583
0.590653
9.27146
0.583096
9.07953
0.575726
8.89021
0.568104
8.70374
0.559735
8.52048
0.550114
8.34068
0.539693
8.16425
0.529395
7.99096
0.519826
7.82061
0.510933
7.65314
0.502309
7.48865
0.493413
7.32743
0.483631
7.16991
0.472633
7.0164
0.460678
6.86701
0.448335
6.7216
0.436283
6.57993
0.424997
6.44178
0.414364
6.30715
0.403904
6.17615
0.393137
6.04893
0.381823
5.92559
0.370124
5.80614
0.358397
5.69049
0.346854
5.5786
0.335546
5.47041
0.324408
5.36595
0.313255
5.26525
0.301955
5.16837
0.290484
5.07536
0.278851
4.98624
0.267158
4.90085
0.25608
4.81902
0.245353
4.74111
0.233605
4.66722
0.221641
4.59737
0.209591
4.53157
0.197496
4.46982
0.1854
4.41211
0.173312
4.35845
0.161199
4.30886
0.149007
4.26338
0.136671
4.22208
0.124146
4.18501
0.111411
4.15227
0.0984444
4.12392
0.0852251
4.10005
0.0717504
4.08073
0.0580485
4.06601
0.0441732
4.05591
0.0301741
4.05049
0.0160577
4.04981
0.00177179
4.05394
-0.012719
4.06292
-0.0272765
4.07696
-0.0424981
4.09623
-0.0582098
4.12085
-0.0743311
-0.0907507
16.8637
-0.0150254
16.8451
0.0745042
16.8049
0.16048
16.745
0.239335
16.6669
0.312223
16.5724
0.377964
16.4628
0.438022
16.3397
0.492148
16.2043
0.541616
16.0577
0.586519
15.9008
0.627544
15.7345
0.664737
15.5599
0.698057
15.3776
0.728437
15.1889
0.754424
14.9943
0.777985
14.7949
0.797714
14.5912
0.81507
14.3838
0.8298
14.1731
0.842816
13.9597
0.853351
13.7439
0.862559
13.5263
0.869915
13.3073
0.875048
13.0873
0.879397
12.8668
0.88167
12.6461
0.882652
12.4253
0.883148
12.2047
0.882205
11.9847
0.880117
11.7654
0.877541
11.547
0.873479
11.3299
0.868361
11.1142
0.863166
10.8999
0.856877
10.6874
0.84972
10.4768
0.842122
10.2685
0.832791
10.0629
0.821943
9.86012
0.810712
9.66024
0.799011
9.46323
0.787656
9.26884
0.777483
9.07696
0.767608
8.88777
0.7573
8.70148
0.746017
8.5184
0.733198
8.33867
0.719416
8.16224
0.70583
7.98891
0.693154
7.81852
0.681322
7.65103
0.669798
7.48656
0.657881
7.32539
0.644805
7.16793
0.630083
7.01452
0.614088
6.86518
0.597679
6.71977
0.581694
6.57808
0.566687
6.43994
0.552499
6.30537
0.538477
6.17446
0.524039
6.04733
0.508958
5.92402
0.493427
5.80455
0.477874
5.68884
0.462563
5.57687
0.447518
5.46861
0.43266
5.36407
0.417797
5.26328
0.402744
5.1663
0.387461
5.07318
0.371972
4.98395
0.35639
4.89851
0.341516
4.8166
0.327266
4.73864
0.31156
4.66474
0.295542
4.59491
0.279415
4.52916
0.263241
4.4675
0.247066
4.4099
0.230912
4.35635
0.214739
4.3069
0.198465
4.26156
0.182005
4.22039
0.165315
4.18344
0.148362
4.15078
0.1311
4.1225
0.113503
4.09867
0.0955821
4.07935
0.0773749
4.06457
0.0589451
4.05439
0.0403576
4.04883
0.0216166
4.04799
0.00261484
4.05195
-0.0166837
4.06076
-0.0360852
4.0746
-0.0563378
4.09363
-0.0772443
4.11802
-0.0987155
-0.12066
16.8629
-0.0187379
16.8442
0.0932043
16.8039
0.200719
16.744
0.299298
16.6658
0.390401
16.5712
0.47256
16.4616
0.547602
16.3385
0.615268
16.2031
0.677054
16.0564
0.733224
15.8994
0.784482
15.7331
0.831071
15.5584
0.872785
15.376
0.910789
15.1871
0.943311
14.9925
0.972636
14.793
0.997152
14.5893
1.01876
14.382
1.03712
14.1714
1.05347
13.9578
1.0669
13.7419
1.07849
13.524
1.08778
13.3049
1.0942
13.0848
1.09943
12.8642
1.10228
12.6434
1.10347
12.4226
1.10397
12.202
1.10281
11.9819
1.10016
11.7627
1.09681
11.5443
1.09183
11.3272
1.08548
11.1115
1.07889
10.8972
1.07117
10.6846
1.06228
10.474
1.05272
10.2656
1.04123
10.0598
1.0277
9.85698
1.01355
9.65699
0.998997
9.45988
0.984767
9.26547
0.971891
9.07365
0.959426
8.88461
0.946345
8.69852
0.932101
8.51559
0.916131
8.33592
0.899085
8.15945
0.8823
7.98606
0.866536
7.81564
0.851741
7.64815
0.837287
7.48374
0.822298
7.32265
0.805888
7.16532
0.787419
7.01202
0.767379
6.86275
0.746955
6.71733
0.727108
6.57564
0.708381
6.43754
0.690594
6.30305
0.672964
6.17227
0.654823
6.04522
0.636004
5.92193
0.61672
5.8024
0.5974
5.68661
0.578353
5.57454
0.559591
5.46618
0.541016
5.36154
0.522444
5.26063
0.503652
5.16352
0.484565
5.07027
0.465222
4.98091
0.445756
4.8954
0.427023
4.81341
0.409256
4.7354
0.389567
4.66148
0.369458
4.59169
0.349212
4.526
0.328925
4.46442
0.308646
4.40694
0.288397
4.35353
0.268142
4.30422
0.247778
4.25901
0.227206
4.21795
0.206377
4.18108
0.18523
4.14848
0.163701
4.12023
0.141755
4.09639
0.119419
4.07701
0.0967514
4.06213
0.0738243
4.0518
0.0506947
4.04606
0.0273496
4.04504
0.00364106
4.04881
-0.020454
4.05742
-0.0446949
4.07107
-0.0699876
4.0899
-0.0960747
4.11407
-0.122893
-0.1504
16.8618
-0.02237
16.843
0.111941
16.8028
0.241014
16.7427
0.359345
16.6645
0.468654
16.5698
0.567229
16.4601
0.65724
16.337
0.738451
16.2015
0.81253
16.0547
0.879989
15.8977
0.941473
15.7313
0.997493
15.5564
1.04764
15.374
1.09326
15.1849
1.13234
14.9902
1.16737
14.7908
1.1966
14.5871
1.22244
14.3798
1.24444
14.1691
1.26415
13.9554
1.28061
13.7393
1.29459
13.5212
1.30582
13.3019
1.31355
13.0817
1.31957
12.861
1.32298
12.6401
1.32441
12.4193
1.32482
12.1986
1.32344
11.9785
1.32025
11.7593
1.31609
11.5409
1.31019
11.3237
1.30265
11.108
1.29461
10.8937
1.28547
10.6811
1.27492
10.4705
1.26336
10.2619
1.24973
10.0561
1.23358
9.85315
1.21647
9.65306
1.19908
9.45584
1.182
9.2614
1.16633
9.06965
1.15118
8.88075
1.13524
8.69483
1.11801
8.51201
1.09895
8.33236
1.07874
8.15582
1.05883
7.98237
1.03999
7.81193
1.02218
7.64447
1.00474
7.48015
0.986618
7.31922
0.966818
7.16206
0.94458
7.00893
0.920507
6.85974
0.89614
6.71434
0.872511
6.57265
0.85007
6.43462
0.828626
6.30023
0.807349
6.16954
0.785513
6.04255
0.762999
5.91923
0.740032
5.79963
0.716999
5.68375
0.694235
5.57157
0.671773
5.4631
0.649489
5.35833
0.627211
5.25729
0.604697
5.16004
0.581813
5.06665
0.558611
4.97715
0.535251
4.89157
0.512606
4.80951
0.491317
4.73146
0.467617
4.65752
0.443387
4.58775
0.418989
4.52211
0.394555
4.46061
0.370145
4.40323
0.345781
4.34994
0.321427
4.30075
0.296971
4.25563
0.272323
4.21462
0.247384
4.17779
0.222064
4.14519
0.196292
4.11692
0.170033
4.09301
0.143325
4.07352
0.116246
4.05847
0.0888679
4.04793
0.0612325
4.04198
0.0333073
4.04073
0.0048905
4.0443
-0.0240254
4.05274
-0.0531362
4.06623
-0.0834757
4.08491
-0.114758
4.10896
-0.146942
-0.18002
16.8605
-0.0262162
16.8417
0.130747
16.8013
0.281392
16.7412
0.419491
16.6628
0.546997
16.5681
0.661987
16.4584
0.766954
16.3351
0.861717
16.1996
0.948068
16.0527
1.02684
15.8957
1.09854
15.7291
1.16401
15.5541
1.22264
15.3715
1.27585
15.1824
1.32151
14.9876
1.36218
14.7881
1.39607
14.5844
1.42614
14.377
1.4518
14.1663
1.4749
13.9524
1.4945
13.7361
1.5109
13.5179
1.52403
13.2983
1.53309
13.0781
1.53982
12.8573
1.54376
12.6363
1.54545
12.4154
1.54573
12.1947
1.5441
11.9745
1.54042
11.7552
1.53541
11.5368
1.52859
11.3196
1.5199
11.1038
1.51035
10.8895
1.49976
10.6768
1.48761
10.4662
1.47401
10.2577
1.45825
10.0517
1.43954
9.84869
1.41946
9.64852
1.39925
9.45117
1.37935
9.25668
1.36081
9.06498
1.34287
8.8762
1.32403
8.6904
1.3038
8.50763
1.28173
8.32793
1.25843
8.15131
1.23546
7.97776
1.21353
7.80732
1.19262
7.63995
1.17211
7.47578
1.15078
7.31508
1.12752
7.15817
1.10149
7.00523
1.07345
6.85614
1.04522
6.71078
1.01788
6.56911
0.991733
6.43115
0.966587
6.29686
0.941644
6.16623
0.916143
6.03924
0.88998
5.91589
0.863389
5.79619
0.836692
5.6802
0.810228
5.5679
0.784073
5.4593
0.758091
5.35441
0.732102
5.25324
0.705864
5.15585
0.679199
5.06233
0.652132
4.97273
0.624857
4.88707
0.598259
4.80495
0.573439
4.72686
0.545705
4.65291
0.517331
4.58314
0.488764
4.51753
0.460159
4.45609
0.431593
4.39877
0.403099
4.34555
0.374644
4.2964
0.346119
4.2513
0.31742
4.21029
0.288396
4.17343
0.258925
4.14078
0.228935
4.11241
0.198401
4.08837
0.167366
4.0687
0.135922
4.05342
0.104144
4.04261
0.0720383
4.03639
0.0395332
4.03491
0.00636816
4.03829
-0.0274128
4.04661
-0.0614466
4.06001
-0.0968845
4.07865
-0.133395
4.10267
-0.170957
-0.209575
16.859
-0.0301957
16.8402
0.149629
16.7997
0.321865
16.7394
0.479749
16.661
0.625443
16.5661
0.756848
16.4563
0.876762
16.3329
0.98509
16.1973
1.0837
16.0504
1.1738
15.8932
1.2557
15.7266
1.33064
15.5514
1.39775
15.3688
1.45854
15.1795
1.51079
14.9846
1.55708
14.785
1.59559
14.5813
1.62992
14.3738
1.65927
14.1629
1.68577
13.9488
1.70858
13.7323
1.72739
13.514
1.74239
13.2943
1.7528
13.0739
1.76018
12.8531
1.76461
12.6319
1.76662
12.4109
1.76672
12.1902
1.76482
11.9699
1.76071
11.7505
1.75483
11.532
1.74706
11.3146
1.73726
11.0988
1.72614
10.8846
1.71404
10.6718
1.70032
10.4612
1.68465
10.2527
1.66673
10.0467
1.64555
9.84364
1.62252
9.64339
1.59951
9.44591
1.57682
9.25135
1.55537
9.05967
1.53455
8.87095
1.51276
8.68521
1.48954
8.50241
1.46453
8.32261
1.43823
8.14586
1.41221
7.97223
1.38717
7.8018
1.36305
7.63457
1.33934
7.47063
1.31472
7.31022
1.28794
7.15363
1.25807
7.0009
1.22618
6.85193
1.19419
6.70663
1.16318
6.56501
1.13335
6.42711
1.10448
6.29288
1.07587
6.16228
1.04675
6.03527
1.01699
5.91184
0.986815
5.79203
0.956498
5.67591
0.92635
5.56349
0.896499
5.45475
0.866822
5.34974
0.837115
5.24847
0.807134
5.15099
0.776681
5.05737
0.745753
4.96768
0.714545
4.88198
0.683961
4.79981
0.6556
4.72169
0.62383
4.64772
0.5913
4.57792
0.558559
4.5123
0.525778
4.45085
0.493044
4.39353
0.460418
4.34029
0.427881
4.2911
0.395314
4.24594
0.362577
4.20485
0.329488
4.16789
0.295884
4.13512
0.261697
4.1066
0.226924
4.08235
0.191615
4.06242
0.155858
4.04684
0.119724
4.0357
0.0831735
4.02916
0.046073
4.02745
0.00807735
4.03073
-0.030697
4.03904
-0.0697488
4.05249
-0.110341
4.0712
-0.152097
4.09525
-0.195016
-0.239098
16.8574
-0.034246
16.8384
0.168608
16.7978
0.362446
16.7374
0.540132
16.6589
0.704008
16.5639
0.851832
16.454
0.986687
16.3305
1.1086
16.1947
1.21945
16.0476
1.3209
15.8903
1.41299
15.7236
1.49738
15.5483
1.57298
15.3656
1.6413
15.1762
1.70016
14.9812
1.75207
14.7816
1.79522
14.5777
1.83384
14.37
1.86695
14.159
1.89681
13.9447
1.92288
13.728
1.94407
13.5095
1.96085
13.2897
1.97264
13.0692
1.98065
12.8483
1.98554
12.627
1.98789
12.4059
1.98782
12.1851
1.98563
11.9646
1.98117
11.745
1.97443
11.5265
1.96564
11.309
1.95474
11.0931
1.94201
10.8788
1.92831
10.6661
1.91302
10.4555
1.89525
10.2471
1.87511
10.0412
1.85154
9.83804
1.82564
9.6377
1.79985
9.44008
1.77444
9.24543
1.75003
9.05372
1.72625
8.86499
1.70149
8.67922
1.6753
8.49633
1.64741
8.31638
1.61819
8.13948
1.58911
7.96576
1.56088
7.79537
1.53344
7.62834
1.50637
7.4647
1.47835
7.30464
1.448
7.14842
1.41429
6.99592
1.37868
6.84708
1.34303
6.70186
1.3084
6.56029
1.27492
6.42244
1.24234
6.28825
1.21006
6.15763
1.17737
6.03056
1.14406
5.90704
1.11034
5.78711
1.07643
5.67084
1.04261
5.55829
1.00906
5.44943
0.975675
5.34431
0.942235
5.24297
0.90848
5.14544
0.87421
5.05179
0.839402
4.96208
0.804256
4.87636
0.769681
4.79418
0.737773
4.71602
0.701991
4.642
0.665315
4.57215
0.628414
4.50645
0.591474
4.44491
0.554582
4.3875
0.517832
4.33413
0.481247
4.28478
0.444666
4.23946
0.407896
4.1982
0.370742
4.16107
0.333017
4.12811
0.29465
4.09936
0.255672
4.07484
0.216143
4.05456
0.176134
4.03859
0.135692
4.02707
0.0946964
4.0203
0.0528421
4.01855
0.00982793
4.02188
-0.0340281
4.03028
-0.0781506
4.04386
-0.12392
4.06268
-0.170915
4.0868
-0.219142
-0.268592
16.8555
-0.0382795
16.8364
0.187667
16.7957
0.403147
16.7352
0.600653
16.6565
0.782705
16.5614
0.946955
16.4513
1.09675
16.3277
1.23227
16.1917
1.35537
16.0445
1.46817
15.887
1.57043
15.7202
1.66424
15.5449
1.7483
15.3621
1.8241
15.1726
1.88957
14.9776
1.94715
14.7778
1.99498
14.5737
2.03797
14.3657
2.07489
14.1544
2.10809
13.9399
2.13739
13.7231
2.16093
13.5045
2.17941
13.2846
2.19259
13.064
2.20122
12.843
2.20652
12.6216
2.20926
12.4004
2.20904
12.1795
2.20658
11.9588
2.20182
11.739
2.19425
11.5202
2.1844
11.3026
2.17237
11.0866
2.15798
10.8724
2.14256
10.6598
2.12566
10.4492
2.10578
10.241
2.08335
10.0351
2.05746
9.83189
2.0288
9.63146
2.00028
9.43369
1.97221
9.23889
1.94483
9.0471
1.91804
8.85829
1.8903
8.67243
1.86117
8.48939
1.83046
8.30923
1.79835
8.13217
1.76617
7.9584
1.73466
7.78808
1.70376
7.62128
1.67316
7.458
1.64163
7.29836
1.60764
7.14251
1.57014
6.99026
1.53092
6.84155
1.49174
6.69641
1.45353
6.5549
1.41643
6.41707
1.38017
6.28288
1.34424
6.15222
1.30803
6.02505
1.27123
5.90142
1.23397
5.78136
1.19649
5.66495
1.15902
5.55226
1.12175
5.44331
1.08463
5.33811
1.04743
5.23673
1.00986
5.13921
0.971727
5.04561
0.933009
4.95596
0.893909
4.87028
0.855357
4.78814
0.819914
4.70994
0.780186
4.63584
0.739417
4.56586
0.698394
4.5
0.657331
4.43827
0.616314
4.38063
0.575465
4.32701
0.534869
4.27738
0.494297
4.23178
0.453492
4.19027
0.412255
4.15288
0.370404
4.11966
0.327873
4.0906
0.284724
4.06571
0.241034
4.04502
0.196828
4.02871
0.151996
4.01708
0.106326
4.01034
0.0595863
4.00865
0.0115134
4.01209
-0.0374609
4.02062
-0.086683
4.03434
-0.137636
4.05326
-0.189838
4.07742
-0.243305
-0.298018
16.8532
-0.0420817
16.8342
0.206661
16.7934
0.443939
16.7328
0.661326
16.6539
0.861549
16.5586
1.04224
16.4484
1.20698
16.3245
1.35613
16.1884
1.49149
16.0409
1.61566
15.8833
1.72804
15.7163
1.83122
15.541
1.92367
15.3582
2.00689
15.1687
2.079
14.9736
2.1423
14.7736
2.19494
14.5692
2.24238
14.3609
2.28319
14.1493
2.31967
13.9346
2.35212
13.7176
2.37794
13.499
2.39805
13.2789
2.41262
13.0583
2.42189
12.8372
2.42758
12.6158
2.43073
12.3944
2.43041
12.1733
2.42769
11.9524
2.42269
11.7323
2.41433
11.5134
2.40335
11.2956
2.39014
11.0795
2.37407
10.8653
2.35679
10.6527
2.33821
10.4423
2.31619
10.2342
2.29143
10.0284
2.26329
9.82519
2.23201
9.62464
2.20083
9.4267
2.17016
9.2317
2.13983
9.03978
2.10996
8.85083
2.07925
8.6648
2.04719
8.48157
2.01369
8.3012
1.97873
8.12399
1.94337
7.95019
1.90846
7.77997
1.87398
7.61345
1.83968
7.45057
1.80451
7.29136
1.76685
7.13589
1.72561
6.98389
1.68292
6.8353
1.64033
6.69023
1.59859
6.54877
1.5579
6.41094
1.518
6.27672
1.47847
6.14598
1.43876
6.01871
1.39851
5.89494
1.35774
5.77475
1.31668
5.65821
1.27556
5.5454
1.23456
5.43637
1.19366
5.33114
1.15266
5.22977
1.11123
5.13232
1.06918
5.03882
1.0265
4.94929
0.98344
4.8637
0.940945
4.78164
0.901976
4.70344
0.858384
4.62923
0.813627
4.55906
0.768566
4.49294
0.723446
4.4309
0.67836
4.37291
0.633447
4.31891
0.588875
4.26886
0.544337
4.22286
0.499491
4.18098
0.454137
4.14325
0.408134
4.10968
0.36144
4.08028
0.314124
4.05509
0.266227
4.03423
0.217682
4.01792
0.168314
4.00634
0.117901
3.99968
0.0662467
3.99809
0.013105
4.00163
-0.0410018
4.01028
-0.0953348
4.0241
-0.151455
4.04307
-0.208811
4.0672
-0.267427
-0.327304
16.851
-0.0462604
16.8318
0.225802
16.7909
0.484869
16.7301
0.722162
16.6511
0.940554
16.5556
1.1377
16.4452
1.3174
16.3211
1.48021
16.1847
1.62785
16.037
1.76339
15.8792
1.88585
15.7121
1.99832
15.5367
2.09909
15.3539
2.18967
15.1645
2.2684
14.9693
2.33754
14.7691
2.39513
14.5643
2.44713
14.3556
2.4919
14.1437
2.53159
13.9287
2.56708
13.7116
2.5951
13.4929
2.61674
13.2728
2.6327
13.052
2.64264
12.8309
2.64869
12.6094
2.65228
12.3878
2.65194
12.1665
2.64899
11.9454
2.6438
11.7251
2.63469
11.5059
2.62253
11.288
2.60807
11.0717
2.59027
10.8575
2.57103
10.6451
2.55064
10.4348
2.52648
10.2269
2.49933
10.0212
2.469
9.8179
2.43528
9.61721
2.40152
9.41905
2.36831
9.22382
2.33506
9.03172
2.30206
8.84258
2.26839
8.65635
2.23342
8.47292
2.19712
8.29234
2.1593
8.11501
2.1207
7.94122
2.08225
7.77113
2.04407
7.60488
2.00593
7.44241
1.96698
7.28365
1.92561
7.12853
1.88073
6.97675
1.8347
6.82827
1.78881
6.68325
1.74361
6.54181
1.69933
6.40396
1.65585
6.26967
1.61276
6.13886
1.56958
6.01147
1.5259
5.88757
1.48164
5.76725
1.43699
5.6506
1.39221
5.53769
1.34747
5.4286
1.30275
5.32338
1.25788
5.22208
1.21253
5.12476
1.1665
5.03143
1.11983
4.94206
1.07281
4.85657
1.02643
4.77459
0.983961
4.69638
0.936593
4.62204
0.887965
4.55163
0.838974
4.48519
0.78988
4.42275
0.740799
4.36432
0.691879
4.30984
0.64336
4.25932
0.59485
4.21287
0.545938
4.17059
0.496422
4.13251
0.446215
4.09864
0.395301
4.06903
0.343737
4.04373
0.291526
4.02287
0.238543
4.00661
0.184573
3.99512
0.129392
3.98855
0.0728169
3.98705
0.0146082
3.99068
-0.0446352
3.99942
-0.104074
4.01329
-0.165323
4.03222
-0.227745
4.05619
-0.291398
-0.35635
16.8486
-0.0507553
16.8293
0.245101
16.7882
0.52595
16.7272
0.783178
16.648
1.01973
16.5523
1.23335
16.4417
1.42803
16.3174
1.60454
16.1807
1.7645
16.0327
1.91139
15.8747
2.0439
15.7074
2.16557
15.532
2.27453
15.3493
2.37239
15.1599
2.45777
14.9646
2.53284
14.7641
2.59558
14.559
2.65228
14.3498
2.70108
14.1375
2.74391
13.9223
2.78227
13.705
2.81242
13.4862
2.83552
13.2661
2.85282
13.0453
2.86348
12.8241
2.86988
12.6024
2.87391
12.3807
2.87363
12.1592
2.87049
11.9379
2.86515
11.7173
2.85532
11.4978
2.84196
11.2798
2.82615
11.0634
2.80659
10.8492
2.78528
10.6369
2.76295
10.4267
2.73665
10.219
2.70709
10.0133
2.67461
9.80998
2.63865
9.6091
2.6024
9.4107
2.56671
9.21519
2.53056
9.02286
2.49439
8.83352
2.45773
8.64707
2.41988
8.46345
2.38074
8.28271
2.34004
8.1053
2.29811
7.93156
2.25599
7.76163
2.214
7.59565
2.17191
7.43358
2.12905
7.27524
2.08395
7.12041
2.03556
6.9688
1.98631
6.82039
1.93722
6.67539
1.88861
6.53395
1.84077
6.39607
1.79373
6.2617
1.74713
6.13079
1.70049
6.00329
1.65339
5.87927
1.60565
5.75884
1.55742
5.6421
1.50896
5.52912
1.46045
5.42001
1.41186
5.31485
1.36304
5.21368
1.31371
5.11652
1.26366
5.02338
1.21297
4.93418
1.162
4.84879
1.11182
4.76687
1.06589
4.68863
1.01483
4.61414
0.962448
4.54347
0.909643
4.47668
0.85667
4.4138
0.803676
4.35487
0.750816
4.29987
0.698359
4.24889
0.645827
4.20204
0.592783
4.15942
0.53904
4.12108
0.484561
4.08702
0.429355
4.0573
0.373458
4.03198
0.316845
4.01116
0.259358
3.99498
0.200756
3.98357
0.140803
3.97707
0.0793123
3.97564
0.0160387
3.97935
-0.0483402
3.98814
-0.112861
4.00198
-0.179164
4.02076
-0.246524
4.04444
-0.315081
-0.385037
16.846
-0.05556
16.8265
0.264613
16.7853
0.567195
16.7241
0.844387
16.6447
1.0991
16.5488
1.32923
16.4379
1.5389
16.3133
1.72915
16.1764
1.90146
16.0281
2.05969
15.8698
2.20221
15.7023
2.33298
15.5269
2.45
15.3442
2.55506
15.1549
2.64706
14.9596
2.72819
14.7588
2.79633
14.5532
2.85786
14.3436
2.91076
14.1308
2.95665
13.9154
2.99772
13.6979
3.02989
13.479
3.05439
13.2589
3.07299
13.0379
3.0844
12.8167
3.09116
12.5949
3.09562
12.3731
3.09547
12.1514
3.09222
11.9298
3.08671
11.7089
3.0762
11.4893
3.0616
11.2711
3.04436
11.0546
3.02301
10.8404
2.99957
10.6281
2.97516
10.4181
2.94671
10.2104
2.91475
10.0049
2.88016
9.80137
2.84215
9.60024
2.80353
9.40157
2.76538
9.20576
2.72637
9.01318
2.68698
8.82364
2.64727
8.63699
2.60652
8.45322
2.5645
8.27239
2.52086
8.09494
2.47557
7.92127
2.42966
7.75152
2.38375
7.58579
2.33763
7.42407
2.29076
7.26612
2.2419
7.1115
2.19018
6.96
2.13781
6.81162
2.08559
6.6666
2.03363
6.52513
1.98225
6.38719
1.93166
6.25274
1.88158
6.12174
1.83149
5.99415
1.78097
5.87004
1.72977
5.74952
1.67794
5.63271
1.62577
5.5197
1.57345
5.41062
1.52094
5.30556
1.4681
5.20455
1.41472
5.10758
1.36063
5.01463
1.30593
4.92559
1.25104
4.84027
1.19714
4.75837
1.14778
4.68007
1.09313
4.60543
1.03709
4.5345
0.980577
4.46734
0.923824
4.40402
0.866999
4.34457
0.810265
4.28908
0.753844
4.23771
0.697202
4.19055
0.639939
4.14769
0.581898
4.10917
0.523078
4.07502
0.46351
4.04526
0.403212
4.01997
0.342137
3.99922
0.280111
3.9831
0.21687
3.97176
0.15215
3.96532
0.0857481
3.96395
0.0174078
3.96771
-0.0520967
3.97649
-0.121642
3.9902
-0.192872
4.00868
-0.265001
4.03191
-0.338318
-0.413242
16.8433
-0.0606001
16.8235
0.284319
16.7821
0.608619
16.7207
0.905804
16.6411
1.17868
16.545
1.42533
16.4339
1.65002
16.309
1.85405
16.1717
2.03876
16.0231
2.20833
15.8645
2.36081
15.6969
2.50058
15.5214
2.6255
15.3387
2.73768
15.1495
2.83629
14.9541
2.92358
14.7531
2.99736
14.5471
3.06387
14.3369
3.12094
14.1237
3.16984
13.908
3.21344
13.6903
3.24754
13.4713
3.27339
13.2511
3.29323
13.0301
3.30543
12.8087
3.31256
12.5869
3.31743
12.3649
3.31748
12.1429
3.31414
11.9212
3.30845
11.7001
3.29727
11.4803
3.28145
11.2619
3.26268
11.0454
3.23953
10.8311
3.21391
10.6189
3.18731
10.4089
3.15671
10.2013
3.12239
9.99571
3.08574
9.792
3.04585
9.59056
3.00497
9.39159
2.96435
9.19548
2.92247
9.00264
2.87981
8.81292
2.83699
8.62613
2.79332
8.44228
2.74835
8.26143
2.70171
8.084
2.653
7.91043
2.60322
7.74085
2.55333
7.57534
2.50314
7.41393
2.45218
7.25628
2.39955
7.10178
2.34467
6.9503
2.2893
6.80191
2.23398
6.65682
2.17871
6.51527
2.1238
6.37728
2.06966
6.24275
2.0161
6.11167
1.96257
5.98403
1.90861
5.85985
1.85394
5.73927
1.79853
5.62243
1.74261
5.50945
1.68643
5.40044
1.62995
5.29551
1.57303
5.19469
1.51554
5.09792
1.4574
5.00513
1.39872
4.91619
1.33998
4.83091
1.28243
4.74901
1.22968
4.67063
1.17152
4.59582
1.1119
4.52463
1.05176
4.45713
0.991322
4.39339
0.930743
4.33347
0.870181
4.27758
0.809734
4.22591
0.748878
4.17854
0.687308
4.13553
0.624903
4.09692
0.561684
4.06274
0.497696
4.033
0.432948
4.00776
0.367379
3.98707
0.300801
3.97101
0.232924
3.95972
0.163445
3.95334
0.0921279
3.95203
0.0187196
3.9558
-0.0558738
3.96449
-0.130327
3.97791
-0.206293
3.9959
-0.282992
4.01853
-0.360947
-0.440859
16.8395
-0.0649984
16.8203
0.303507
16.7788
0.65018
16.7171
0.967449
16.6373
1.25848
16.541
1.5217
16.4296
1.76141
16.3044
1.97926
16.1667
2.17642
16.0177
2.35731
15.8588
2.51972
15.691
2.66839
15.5154
2.80107
15.3328
2.92026
15.1437
3.02546
14.9482
3.11901
14.7469
3.19867
14.5405
3.27031
14.3298
3.33161
14.1162
3.3835
13.9002
3.42946
13.6823
3.46539
13.4631
3.49256
13.2428
3.51358
13.0216
3.52659
12.8001
3.5341
12.5782
3.53934
12.356
3.53962
12.1339
3.53625
11.9121
3.53032
11.6909
3.51847
11.4709
3.50145
11.2524
3.4811
11.0358
3.45614
10.8214
3.42834
10.6093
3.39946
10.3993
3.36671
10.1915
3.33012
9.98581
3.29145
9.78182
3.24984
9.58001
3.20679
9.38071
3.16364
9.18432
3.11887
8.99125
3.07288
8.8014
3.02684
8.61453
2.98019
8.43067
2.93222
8.24988
2.88249
8.07252
2.83036
7.89906
2.77668
7.72966
2.72274
7.56434
2.66846
7.40314
2.61338
7.24568
2.557
7.09121
2.49914
6.93966
2.44085
6.79119
2.38245
6.64601
2.3239
6.50435
2.26546
6.36627
2.20773
6.23169
2.15068
6.10056
2.09371
5.97289
2.03629
5.8487
1.97813
5.72811
1.91912
5.61128
1.85943
5.49838
1.79933
5.38949
1.73885
5.28471
1.6778
5.18408
1.61617
5.08749
1.55399
4.99481
1.4914
4.90592
1.42886
4.82062
1.36772
4.73871
1.31159
4.66022
1.25001
4.58525
1.18687
4.51382
1.12319
4.44602
1.05912
4.38192
0.994848
4.32163
0.93047
4.26545
0.865911
4.21358
0.800744
4.1661
0.73479
4.12303
0.667971
4.0844
0.600311
4.05024
0.53186
4.02055
0.462631
3.99538
0.392555
3.97475
0.321428
3.95875
0.248921
3.94752
0.174681
3.9412
0.098443
3.93994
0.0199858
3.94366
-0.059597
3.95208
-0.138743
3.96497
-0.219189
3.98226
-0.300281
4.00417
-0.382851
-0.467821
16.8365
-0.0700909
16.817
0.322997
16.7752
0.69195
16.7133
1.02934
16.6333
1.33851
16.5366
1.61833
16.425
1.87309
16.2994
2.10478
16.1614
2.31445
16.0121
2.50664
15.8528
2.67897
15.6848
2.83647
15.5091
2.97675
15.3265
3.10287
15.1373
3.21461
14.9419
3.31448
14.7403
3.40021
14.5335
3.47711
14.3224
3.54273
14.1083
3.59762
13.8919
3.6458
13.6738
3.68348
13.4544
3.71197
13.2339
3.73408
13.0126
3.74791
12.7909
3.75583
12.5688
3.76138
12.3466
3.76189
12.1243
3.75849
11.9024
3.75225
11.6811
3.73973
11.461
3.72153
11.2426
3.69958
11.0259
3.67282
10.8113
3.64288
10.5991
3.61166
10.3891
3.5768
10.1811
3.53805
9.97515
3.49743
9.77079
3.45419
9.56855
3.40904
9.36892
3.36327
9.17227
3.31552
8.979
3.26615
8.78908
3.21677
8.60223
3.16704
8.41843
3.11602
8.23778
3.06314
8.06055
3.00759
7.8872
2.95002
7.71795
2.89199
7.55278
2.83363
7.39169
2.77446
7.2343
2.71439
7.07976
2.65368
6.92806
2.59254
6.77945
2.53107
6.63412
2.46922
6.4923
2.40728
6.35413
2.3459
6.21952
2.28529
6.08838
2.22484
5.96072
2.16394
5.83658
2.10227
5.71603
2.03966
5.59928
1.97619
5.48649
1.91212
5.37776
1.84757
5.27316
1.7824
5.1727
1.71663
5.07624
1.65045
4.98363
1.58402
4.89472
1.51777
4.80937
1.45307
4.72742
1.39354
4.64881
1.32861
4.57367
1.26202
4.50204
1.19481
4.43399
1.12718
4.36961
1.05923
4.30908
0.991002
4.25275
0.922236
4.20081
0.852683
4.1533
0.782293
4.11025
0.711024
4.07167
0.638896
4.03757
0.565957
4.00796
0.492233
3.98287
0.417652
3.96231
0.341983
3.94638
0.264848
3.93522
0.185843
3.92898
0.104688
3.9277
0.0212625
3.93117
-0.0630705
3.93895
-0.146514
3.95098
-0.231218
3.96745
-0.316756
3.98863
-0.404031
-0.494135
16.8333
-0.0758352
16.8134
0.342812
16.7714
0.733952
16.7093
1.0915
16.629
1.41881
16.5321
1.71526
16.4201
1.98507
16.2942
2.23061
16.1558
2.45285
16.0062
2.65633
15.8465
2.83858
15.6782
3.00484
15.5023
3.1526
15.3196
3.28556
15.1305
3.40378
14.9349
3.50998
14.7332
3.60196
14.5261
3.68421
14.3146
3.75424
14.1
3.81217
13.8833
3.86248
13.665
3.90185
13.4453
3.93166
13.2246
3.95481
13.003
3.96944
12.781
3.9778
12.5588
3.98358
12.3365
3.98429
12.1141
3.98082
11.8922
3.97417
11.671
3.96094
11.4509
3.94165
11.2324
3.91809
11.0156
3.88957
10.8009
3.85756
10.5886
3.82399
10.3783
3.78706
10.1701
3.74631
9.96369
3.70382
9.75889
3.65899
9.55618
3.61175
9.35622
3.56323
9.15936
3.51238
8.96596
3.45955
8.77602
3.4067
8.58926
3.3538
8.4056
3.29968
8.22514
3.2436
8.04808
3.18465
7.87486
3.12324
7.70572
3.06112
7.54064
2.99871
7.37957
2.93554
7.2221
2.87186
7.06739
2.80839
6.91547
2.74447
6.76663
2.6799
6.62111
2.61475
6.4791
2.54928
6.3408
2.4842
6.20618
2.41991
6.07509
2.35593
5.94751
2.29153
5.82347
2.22631
5.70305
2.16009
5.58642
2.09282
5.4738
2.02475
5.36527
1.95611
5.26085
1.88682
5.16052
1.81696
5.06414
1.74682
4.97153
1.67663
4.88256
1.60674
4.79713
1.53851
4.71513
1.47554
4.63638
1.40736
4.56106
1.33734
4.48925
1.26662
4.42102
1.19541
4.35648