/*--------------------------------*- C++ -*----------------------------------*\
| =========                 |                                                 |
| \\      /  F ield         | OpenFOAM: The Open Source CFD Toolbox           |
|  \\    /   O peration     | Version:  4.1                                   |
|   \\  /    A nd           | Web:      www.OpenFOAM.org                      |
|    \\/     M anipulation  |                                                 |
\*---------------------------------------------------------------------------*/
FoamFile
{
    version     2.0;
    format      ascii;
    class       volVectorField;
    location    "7";
    object      U;
}
// * * * * * * * * * * * * * * * * * * * * * * * * * * * * * * * * * * * * * //

dimensions      [0 1 -1 0 0 0 0];

internalField   nonuniform List<vector> 
26785
(
(3.28534e-20 0.000235104 0.137731)
(-4.56544e-18 0.000233855 0.132513)
(-1.65866e-19 0.00023293 0.127472)
(2.28325e-17 0.000231724 0.122635)
(2.92051e-17 0.000230318 0.117991)
(-4.4669e-15 0.000228587 0.113534)
(-2.18345e-17 0.000226663 0.109256)
(-1.05047e-17 0.000224483 0.105149)
(2.03911e-15 0.00022219 0.101207)
(-1.83731e-15 0.000219724 0.0974217)
(-8.6642e-18 0.000217193 0.093787)
(-1.98018e-20 0.000214521 0.0902957)
(-4.10239e-23 0.000211779 0.0869418)
(5.10372e-21 0.000208958 0.0837192)
(-1.15305e-18 0.000205996 0.0806226)
(-8.75072e-21 0.000203006 0.077647)
(1.00805e-18 0.000199891 0.0747874)
(4.25224e-21 0.000196757 0.0720395)
(-4.22371e-19 0.000193568 0.0693984)
(1.2433e-16 0.000190376 0.0668598)
(-3.45118e-19 0.000187106 0.0644196)
(-4.1283e-19 0.000183897 0.0620735)
(1.16192e-16 0.000180654 0.0598174)
(3.93877e-18 0.000177406 0.0576477)
(-1.2825e-15 0.000174233 0.0555606)
(-3.70293e-18 0.000170994 0.0535526)
(-6.8374e-21 0.000167797 0.0516208)
(1.20337e-18 0.000164657 0.0497617)
(-4.9615e-16 0.000161495 0.0479724)
(-4.87686e-16 0.000158383 0.0462501)
(-5.18482e-16 0.000155312 0.0445919)
(6.57167e-16 0.000152192 0.0429955)
(1.58571e-18 0.000149119 0.0414587)
(-1.03046e-16 0.000146108 0.0399791)
(-9.27543e-16 0.000143069 0.0385544)
(-1.7449e-18 0.000140091 0.0371827)
(-1.59672e-21 0.000137129 0.0358618)
(-1.26799e-24 0.000134078 0.0345904)
(5.65062e-22 0.000131034 0.0333673)
(-6.92769e-19 0.000128008 0.032191)
(4.44261e-16 0.000124997 0.0310598)
(7.41418e-19 0.000122138 0.0299715)
(1.12545e-18 0.00011943 0.0289237)
(-8.01746e-16 0.000116807 0.0279141)
(-7.18686e-19 0.00011425 0.0269411)
(-2.89952e-16 0.000111661 0.0260033)
(-4.23934e-19 0.000108981 0.0251004)
(-1.91568e-22 0.000106256 0.0242319)
(-7.9005e-20 0.000103574 0.0233969)
(-3.65065e-19 0.000101017 0.0225937)
(3.83661e-16 9.8606e-05 0.0218205)
(4.11207e-19 9.62958e-05 0.0210755)
(2.98158e-22 9.40036e-05 0.0203575)
(-5.9862e-20 9.16532e-05 0.0196661)
(6.19305e-20 8.92136e-05 0.0190011)
(2.2094e-19 8.67046e-05 0.0183624)
(-2.48964e-16 8.41831e-05 0.0177496)
(-2.18974e-19 8.17246e-05 0.017162)
(3.24162e-19 7.93789e-05 0.0165983)
(-3.38461e-16 7.7155e-05 0.016057)
(-2.68818e-19 7.50128e-05 0.0155369)
(-4.86473e-20 7.28819e-05 0.0150374)
(8.92537e-20 7.07203e-05 0.0145579)
(-1.27871e-16 6.85378e-05 0.0140983)
(-8.9451e-20 6.6364e-05 0.013658)
(-3.06192e-23 6.4239e-05 0.0132365)
(1.01971e-24 6.2179e-05 0.012833)
(4.19505e-23 6.01763e-05 0.0124466)
(-3.96596e-20 5.82055e-05 0.0120768)
(1.10493e-19 5.62432e-05 0.011723)
(-1.97587e-16 5.42821e-05 0.0113849)
(-1.35397e-19 5.23184e-05 0.0110622)
(-5.44454e-23 5.03572e-05 0.0107544)
(3.33917e-24 4.83952e-05 0.0104608)
(-5.86694e-20 4.65165e-05 0.0101808)
(1.55172e-16 4.4646e-05 0.00991405)
(7.71162e-20 4.27898e-05 0.00966067)
(1.60235e-23 4.09513e-05 0.00942033)
(2.95028e-21 3.91352e-05 0.00919269)
(-1.90362e-24 3.73384e-05 0.00897742)
(2.19066e-20 3.55591e-05 0.00877416)
(-5.25704e-17 3.37987e-05 0.0085826)
(-2.2796e-20 3.20499e-05 0.00840245)
(2.5291e-20 3.03006e-05 0.00823346)
(-4.14608e-17 2.85454e-05 0.00807543)
(-1.44201e-20 2.6784e-05 0.00792821)
(-8.42508e-21 2.50155e-05 0.00779164)
(2.31707e-20 2.32359e-05 0.0076656)
(-6.39085e-17 2.14434e-05 0.00754995)
(-2.45106e-20 1.96402e-05 0.00744457)
(-4.67932e-24 1.78289e-05 0.00734934)
(-1.66701e-27 1.60147e-05 0.00726409)
(4.4633e-24 1.42069e-05 0.00718865)
(-5.23887e-21 1.23994e-05 0.00712287)
(-2.90269e-21 1.05789e-05 0.00706659)
(8.64597e-18 8.72629e-06 0.00701963)
(1.41176e-21 6.84284e-06 0.00698195)
(-9.30978e-25 4.91164e-06 0.00695366)
(-3.55124e-28 2.93431e-06 0.00693481)
(-6.28936e-32 9.43856e-07 0.00692535)
(1.7929e-17 0.000704296 0.137723)
(-2.65912e-15 0.000701548 0.132511)
(-1.68579e-17 0.000698785 0.12747)
(-1.09716e-17 0.000695174 0.122633)
(2.4095e-15 0.000690945 0.11799)
(-2.22807e-15 0.000685773 0.113532)
(2.14092e-15 0.000679976 0.109254)
(2.17621e-17 0.000673452 0.105147)
(-2.0346e-15 0.000666537 0.101205)
(-1.18975e-17 0.000659169 0.0974196)
(-3.21559e-20 0.000651553 0.0937849)
(-3.34977e-23 0.000643576 0.0902936)
(-1.38615e-20 0.000635306 0.0869397)
(6.47735e-18 0.000626885 0.083717)
(-1.58498e-15 0.000617955 0.0806204)
(-1.1917e-17 0.000609028 0.0776447)
(1.53536e-15 0.000599684 0.0747852)
(4.70066e-18 0.000590271 0.0720372)
(3.79386e-19 0.000580691 0.0693962)
(-1.28101e-16 0.000571107 0.0668576)
(-1.39677e-15 0.000561299 0.0644173)
(-1.17914e-16 0.000551679 0.0620712)
(-1.34124e-15 0.000541981 0.0598151)
(-4.14233e-18 0.000532214 0.0576454)
(8.38757e-19 0.000522712 0.0555583)
(-5.68881e-16 0.000512993 0.0535503)
(-1.91798e-18 0.000503375 0.0516185)
(-4.1375e-21 0.000493969 0.0497594)
(9.08746e-19 0.000484483 0.0479701)
(-4.89396e-16 0.00047512 0.0462478)
(5.14957e-16 0.000465935 0.0445896)
(1.53522e-18 0.000456577 0.0429932)
(-1.32988e-19 0.000447321 0.0414565)
(7.75759e-19 0.000438318 0.0399769)
(-4.85257e-16 0.000429211 0.0385522)
(-9.12413e-19 0.000420248 0.0371805)
(-8.60327e-22 0.0004114 0.0358595)
(-6.8115e-25 0.000402254 0.0345881)
(2.20959e-23 0.000393077 0.0333651)
(1.4704e-22 0.000384016 0.0321888)
(-2.77816e-19 0.000374983 0.0310576)
(2.76541e-16 0.000366373 0.0299694)
(-7.22028e-19 0.000358284 0.0289217)
(8.04468e-16 0.000350444 0.0279121)
(1.10109e-18 0.000342765 0.026939)
(2.44061e-19 0.000334994 0.0260013)
(-2.55285e-16 0.000326917 0.0250983)
(1.47831e-19 0.000318694 0.0242298)
(-3.9611e-16 0.000310647 0.0233949)
(2.7211e-16 0.000303022 0.0225918)
(-2.69495e-16 0.000295828 0.0218186)
(-2.90011e-19 0.000288915 0.0210736)
(3.34864e-19 0.000282046 0.0203557)
(-3.41125e-16 0.000274987 0.0196642)
(3.63039e-16 0.000267644 0.0189991)
(6.00061e-19 0.000260089 0.0183604)
(-3.54328e-16 0.000252494 0.0177477)
(-5.49635e-19 0.000245107 0.0171601)
(3.45992e-16 0.000238106 0.0165964)
(2.63051e-19 0.000231476 0.0160552)
(2.47905e-19 0.000225066 0.0155352)
(-3.31835e-16 0.000218666 0.0150356)
(-3.2037e-19 0.000212152 0.0145561)
(1.04395e-16 0.000205576 0.0140965)
(6.03734e-20 0.000199061 0.0136563)
(-2.33841e-23 0.0001927 0.0132348)
(1.47519e-20 0.000186538 0.0128313)
(1.8597e-19 0.000180539 0.0124449)
(-3.12543e-16 0.000174622 0.0120751)
(-1.87934e-19 0.000168735 0.0117214)
(7.77102e-20 0.000162854 0.0113833)
(-1.95278e-16 0.000156965 0.0110605)
(-1.04678e-19 0.000151082 0.0107527)
(-6.14239e-20 0.000145205 0.0104592)
(1.4543e-16 0.000139553 0.0101792)
(-1.43031e-16 0.000133934 0.00991246)
(-7.11906e-20 0.000128366 0.00965909)
(-1.27728e-20 0.00012285 0.00941876)
(2.82747e-17 0.000117392 0.00919114)
(1.31447e-20 0.000112 0.00897588)
(1.76656e-20 0.000106668 0.00877264)
(-4.22522e-17 0.000101387 0.00858109)
(-5.9786e-20 9.61379e-05 0.00840094)
(9.17009e-17 9.0892e-05 0.00823195)
(2.30961e-20 8.56324e-05 0.00807392)
(2.75411e-17 8.03512e-05 0.00792669)
(-8.93906e-17 7.50413e-05 0.00779012)
(-5.84085e-20 6.96959e-05 0.00766406)
(6.38032e-17 6.43118e-05 0.0075484)
(1.89049e-20 5.88957e-05 0.00744302)
(-4.03758e-24 5.34647e-05 0.00734778)
(-4.3814e-25 4.80335e-05 0.00726253)
(1.86502e-20 4.26088e-05 0.0071871)
(-6.08913e-17 3.71871e-05 0.00712131)
(-2.21391e-20 3.17405e-05 0.00706502)
(7.48034e-21 2.62026e-05 0.00701803)
(-2.04174e-17 2.05269e-05 0.00698031)
(-7.28001e-21 1.47165e-05 0.00695198)
(-1.30418e-24 8.80461e-06 0.00693311)
(-1.5595e-28 2.85812e-06 0.0069237)
(-1.73841e-17 0.00117379 0.137719)
(2.57721e-15 0.00116922 0.132507)
(3.15977e-17 0.00116463 0.127467)
(2.39307e-15 0.00115861 0.122629)
(2.39467e-15 0.00115157 0.117986)
(-2.19207e-15 0.00114293 0.113528)
(2.14725e-15 0.00113327 0.10925)
(9.31638e-18 0.0011224 0.105143)
(-2.34711e-18 0.00111086 0.1012)
(-1.14769e-20 0.00109859 0.0974155)
(-2.96059e-23 0.00108588 0.0937807)
(4.98277e-22 0.00107262 0.0902893)
(5.53367e-22 0.00105883 0.0869353)
(-1.01145e-19 0.00104482 0.0837126)
(-1.9132e-18 0.00102993 0.0806159)
(1.30444e-16 0.00101505 0.0776403)
(1.54178e-15 0.000999453 0.0747806)
(-1.48853e-15 0.00098374 0.0720327)
(-1.39461e-16 0.000967746 0.0693916)
(1.73437e-16 0.000951785 0.066853)
(-8.96725e-18 0.000935472 0.0644127)
(2.73348e-15 0.000919451 0.0620667)
(9.10643e-18 0.000903341 0.0598105)
(-5.93999e-16 0.000887046 0.0576409)
(-2.49802e-19 0.000871199 0.0555537)
(-5.19001e-16 0.000854998 0.0535457)
(-1.19319e-15 0.000838921 0.051614)
(-2.99243e-18 0.000823254 0.0497549)
(-3.276e-21 0.000807461 0.0479656)
(-2.40267e-19 0.000791811 0.0462434)
(-6.40254e-19 0.000776502 0.0445851)
(4.67569e-16 0.000760931 0.0429887)
(-4.6052e-16 0.000745464 0.0414521)
(-4.53171e-16 0.00073048 0.0399725)
(-1.19789e-18 0.000715348 0.0385478)
(7.5747e-20 0.000700376 0.0371761)
(-1.92056e-19 0.000685661 0.0358551)
(-1.18435e-21 0.000670462 0.0345837)
(1.74794e-19 0.000655112 0.0333607)
(-1.65446e-19 0.000640013 0.0321844)
(-1.1208e-21 0.00062498 0.0310532)
(2.67955e-19 0.000610579 0.0299652)
(5.79235e-22 0.000597109 0.0289176)
(2.0301e-19 0.000584073 0.0279081)
(7.69504e-24 0.000571236 0.026935)
(-1.68276e-22 0.000558241 0.0259972)
(-9.95995e-21 0.00054474 0.0250942)
(1.34655e-19 0.000531016 0.0242257)
(-1.08047e-19 0.000517641 0.0233908)
(1.57813e-20 0.000505 0.0225879)
(-7.04318e-20 0.000493056 0.0218148)
(-3.76244e-20 0.000481538 0.0210699)
(3.54436e-20 0.000470085 0.0203519)
(-3.24283e-20 0.000458311 0.0196604)
(4.12882e-19 0.000446036 0.0189952)
(-3.58867e-16 0.000433404 0.0183564)
(-7.24125e-19 0.000420728 0.0177437)
(3.23552e-16 0.000408428 0.0171563)
(9.64145e-20 0.000396808 0.0165927)
(3.13115e-16 0.000385799 0.0160516)
(2.48959e-19 0.000375107 0.0155316)
(-5.14621e-20 0.000364406 0.0150321)
(2.69844e-23 0.000353519 0.0145526)
(8.92111e-20 0.000342548 0.0140929)
(-1.03083e-16 0.000331715 0.0136527)
(-1.36905e-19 0.000321149 0.0132313)
(1.23204e-16 0.000310898 0.0128279)
(6.55251e-20 0.00030091 0.0124416)
(-5.04163e-20 0.000291048 0.0120718)
(4.07774e-23 0.000281232 0.011718)
(-7.33677e-21 0.000271432 0.01138)
(-4.27152e-20 0.000261628 0.0110572)
(2.66815e-17 0.000251828 0.0107494)
(1.03199e-16 0.000242053 0.010456)
(5.92118e-20 0.000232605 0.010176)
(-4.74457e-21 0.000223221 0.00990928)
(5.67909e-23 0.000213922 0.00965593)
(-2.66111e-21 0.000204715 0.00941563)
(3.50973e-21 0.000195604 0.00918804)
(-2.46221e-24 0.000186603 0.00897281)
(-8.75135e-24 0.00017771 0.00876959)
(1.63751e-20 0.000168905 0.00857806)
(-5.23465e-17 0.000160153 0.00839792)
(-1.67393e-20 0.000151409 0.00822893)
(-2.28809e-23 0.000142644 0.00807089)
(2.90022e-21 0.000133844 0.00792365)
(-4.83015e-21 0.000124996 0.00778706)
(2.20905e-23 0.000116089 0.00766098)
(2.88303e-20 0.000107122 0.0075453)
(-6.30713e-17 9.81046e-05 0.00743991)
(-2.02348e-20 8.90632e-05 0.00734467)
(6.13231e-21 8.00345e-05 0.00725942)
(-2.38785e-17 7.10325e-05 0.00718399)
(-1.40334e-20 6.20232e-05 0.0071182)
(1.37105e-24 5.29483e-05 0.00706188)
(7.08287e-21 4.37146e-05 0.00701482)
(-1.83411e-17 3.42689e-05 0.00697702)
(-5.53921e-21 2.45963e-05 0.00694863)
(9.97262e-25 1.47621e-05 0.00692973)
(1.68772e-26 4.85677e-06 0.00692037)
(2.11472e-19 0.00164326 0.137718)
(-4.00302e-17 0.00163687 0.132502)
(2.47914e-15 0.00163047 0.127461)
(2.42112e-15 0.00162203 0.122624)
(4.89866e-18 0.00161218 0.11798)
(2.21906e-15 0.00160006 0.113522)
(2.77839e-17 0.00158653 0.109244)
(-1.95618e-15 0.00157131 0.105137)
(-9.91768e-18 0.00155515 0.101194)
(-2.50838e-20 0.00153797 0.0974092)
(-7.3082e-21 0.00152018 0.0937743)
(1.24463e-18 0.00150165 0.0902828)
(7.2331e-19 0.00148235 0.0869288)
(-1.68343e-16 0.00146277 0.083706)
(-6.84499e-19 0.00144193 0.0806093)
(1.84771e-19 0.00142105 0.0776335)
(-3.95335e-18 0.00139916 0.0747739)
(1.44569e-15 0.00137712 0.0720258)
(-1.45871e-15 0.00135469 0.0693848)
(-4.77093e-18 0.00133238 0.0668461)
(-4.29117e-18 0.00130964 0.0644059)
(1.36549e-15 0.00128724 0.0620598)
(4.10749e-18 0.00126475 0.0598036)
(-3.82871e-19 0.00124193 0.057634)
(-2.09898e-22 0.00121967 0.0555469)
(-3.17385e-19 0.001197 0.0535388)
(-8.61639e-19 0.00117445 0.0516072)
(1.34815e-19 0.00115248 0.0497481)
(1.8274e-21 0.0011304 0.0479588)
(-1.06188e-18 0.00110844 0.0462366)
(4.70991e-16 0.00108696 0.0445784)
(5.0852e-16 0.00106522 0.042982)
(8.3808e-19 0.00104355 0.0414454)
(8.19328e-19 0.00102255 0.0399658)
(-4.83412e-16 0.00100145 0.0385411)
(3.40516e-16 0.000980487 0.0371695)
(-8.94372e-16 0.000959877 0.0358485)
(-3.02639e-18 0.000938689 0.034577)
(8.69866e-16 0.000917173 0.033354)
(-8.52899e-16 0.000895998 0.0321777)
(-2.78655e-18 0.000875002 0.0310467)
(9.58533e-16 0.000854797 0.0299589)
(1.7564e-18 0.000835887 0.0289115)
(-2.95862e-16 0.000817628 0.027902)
(-4.04787e-19 0.000799569 0.026929)
(-5.10711e-19 0.000781289 0.025991)
(4.05723e-16 0.000762382 0.0250879)
(8.77232e-16 0.00074323 0.0242195)
(1.48308e-18 0.000724594 0.0233848)
(-3.89969e-16 0.00070696 0.022582)
(-1.51253e-19 0.000690264 0.0218091)
(-2.66577e-16 0.000674122 0.0210643)
(2.60927e-16 0.000658058 0.0203463)
(3.70339e-16 0.00064156 0.0196546)
(3.57709e-19 0.000624334 0.0189893)
(2.66053e-19 0.000606609 0.0183505)
(-3.56799e-16 0.000588887 0.0177378)
(3.47928e-16 0.000571719 0.0171505)
(-1.04412e-20 0.000555486 0.0165872)
(3.41057e-16 0.000540078 0.0160462)
(1.76392e-19 0.000525061 0.0155263)
(1.07553e-16 0.000510023 0.0150267)
(8.02884e-20 0.000494777 0.0145472)
(4.11179e-23 0.00047945 0.0140875)
(-8.71826e-20 0.000464334 0.0136474)
(1.02596e-16 0.000449598 0.0132261)
(-9.94657e-17 0.000435265 0.0128228)
(-1.22815e-16 0.000421278 0.0124366)
(-7.60721e-20 0.00040748 0.0120668)
(2.21161e-20 0.00039374 0.0117131)
(-7.4188e-17 0.000380025 0.011375)
(-9.67985e-20 0.000366319 0.0110523)
(1.03124e-16 0.000352619 0.0107445)
(-1.8972e-16 0.000338958 0.0104511)
(-1.56865e-16 0.000325678 0.0101712)
(1.54186e-16 0.000312507 0.0099045)
(9.23567e-20 0.000299448 0.00965118)
(-2.90014e-17 0.000286522 0.00941092)
(-1.38248e-20 0.000273737 0.00918338)
(4.6267e-21 0.000261109 0.00896819)
(4.60821e-23 0.00024864 0.00876502)
(-9.17651e-21 0.000236301 0.00857352)
(1.46175e-20 0.000224037 0.00839339)
(-5.24834e-17 0.000211788 0.0082244)
(-2.95839e-20 0.000199516 0.00806635)
(-1.89824e-20 0.000187207 0.00791909)
(5.04193e-17 0.000174838 0.00778247)
(1.99308e-20 0.000162385 0.00765637)
(2.23266e-20 0.000149848 0.00754067)
(-6.25682e-17 0.000137255 0.00743525)
(4.2855e-17 0.000124645 0.00734001)
(-2.42715e-17 0.000112056 0.00725478)
(-2.38012e-17 9.94939e-05 0.00717936)
(-8.7542e-21 8.69127e-05 0.00711354)
(-3.88093e-21 7.42315e-05 0.00705715)
(1.15762e-17 6.13186e-05 0.00701001)
(4.49728e-22 4.81052e-05 0.00697211)
(1.16492e-17 3.45951e-05 0.00694362)
(3.6284e-21 2.0851e-05 0.00692465)
(3.21292e-22 6.95524e-06 0.0069153)
(1.47147e-19 0.00211236 0.137719)
(-1.95209e-17 0.00210449 0.132495)
(-1.1035e-17 0.00209627 0.127454)
(2.40705e-15 0.00208543 0.122616)
(2.70926e-17 0.00207275 0.117972)
(-2.23683e-15 0.00205717 0.113515)
(2.14551e-15 0.00203974 0.109236)
(1.07264e-17 0.00202018 0.105128)
(3.89678e-20 0.00199936 0.101186)
(-1.55503e-18 0.0019773 0.0974008)
(-7.87748e-18 0.0019544 0.0937658)
(1.71578e-15 0.00193065 0.0902743)
(5.86137e-19 0.00190587 0.0869202)
(1.62601e-15 0.00188071 0.0836972)
(6.03996e-18 0.00185393 0.0806004)
(1.36001e-16 0.00182703 0.0776246)
(5.13181e-19 0.00179879 0.0747648)
(6.19737e-19 0.00177039 0.0720167)
(-1.22956e-18 0.00174151 0.0693757)
(5.20384e-19 0.00171288 0.066837)
(9.21788e-19 0.0016838 0.0643967)
(-1.17985e-16 0.00165505 0.0620507)
(4.4351e-20 0.0016262 0.0597944)
(1.62284e-19 0.00159687 0.0576249)
(-3.32113e-19 0.00156813 0.0555377)
(1.46225e-18 0.00153898 0.0535297)
(-5.62691e-16 0.00150995 0.0515981)
(5.04808e-16 0.00148164 0.0497391)
(1.22437e-18 0.00145327 0.0479498)
(-9.66893e-20 0.001425 0.0462276)
(2.63027e-19 0.0013973 0.0445695)
(1.88213e-19 0.00136941 0.042973)
(-9.17733e-19 0.00134157 0.0414365)
(4.55599e-16 0.00131453 0.039957)
(-4.85173e-16 0.0012875 0.0385323)
(-6.76685e-19 0.00126057 0.0371607)
(-4.13149e-19 0.00123404 0.0358397)
(-5.14733e-22 0.00120691 0.0345681)
(3.76867e-19 0.00117925 0.0333451)
(-3.59082e-19 0.00115196 0.0321689)
(-4.14686e-20 0.00112502 0.031038)
(9.63516e-19 0.00109901 0.0299505)
(-4.29259e-16 0.00107461 0.0289033)
(-7.66391e-19 0.00105107 0.027894)
(-7.10718e-22 0.00102772 0.0269209)
(-7.09764e-24 0.00100412 0.0259828)
(1.39693e-19 0.000979827 0.0250796)
(2.91529e-19 0.000955313 0.0242112)
(4.38577e-19 0.000931485 0.0233767)
(-3.88653e-16 0.00090888 0.0225743)
(-3.13445e-20 0.000887429 0.0218016)
(-3.79796e-16 0.000866652 0.0210568)
(-3.16945e-19 0.000845945 0.0203387)
(1.03943e-19 0.000824695 0.0196469)
(-3.2788e-19 0.000802498 0.0189814)
(3.5854e-16 0.000779667 0.0183425)
(2.32289e-19 0.000756932 0.01773)
(3.52406e-19 0.000734942 0.0171429)
(-3.20614e-16 0.000714102 0.0165799)
(-7.80609e-20 0.000694273 0.0160391)
(-1.35489e-16 0.000674899 0.0155192)
(1.32149e-16 0.000655496 0.0150196)
(9.83436e-20 0.000635905 0.01454)
(-3.64037e-23 0.000616271 0.0140804)
(3.43009e-19 0.000596913 0.0136404)
(-5.38427e-16 0.000578035 0.0132192)
(-3.08109e-19 0.00055964 0.012816)
(-1.22618e-16 0.000541652 0.0124299)
(4.60155e-20 0.000523916 0.0120602)
(-2.12172e-16 0.000506267 0.0117065)
(-1.42069e-19 0.000488648 0.0113684)
(-7.93368e-21 0.000471047 0.0110457)
(1.58032e-17 0.000453459 0.0107379)
(-1.02279e-16 0.000435925 0.0104445)
(-1.02284e-16 0.000418769 0.0101647)
(-1.43994e-16 0.000401778 0.0098981)
(2.80769e-17 0.000384929 0.00964484)
(-2.82886e-17 0.000368255 0.00940463)
(-3.66416e-20 0.000351771 0.00917715)
(5.32869e-17 0.000335496 0.00896203)
(6.82328e-20 0.000319436 0.00875892)
(-1.06248e-16 0.00030355 0.00856746)
(-5.88923e-21 0.000287763 0.00838736)
(-9.22248e-17 0.000272008 0.00821836)
(-9.07919e-17 0.00025625 0.0080603)
(-4.84616e-20 0.000240451 0.00791302)
(5.45484e-21 0.00022457 0.00777637)
(-7.26891e-24 0.000208585 0.00765023)
(-2.24389e-20 0.000192508 0.0075345)
(6.2725e-17 0.000176369 0.00742907)
(3.15234e-20 0.00016022 0.00733384)
(1.2196e-20 0.000144103 0.00724861)
(-4.22244e-17 0.000128012 0.00717318)
(-1.54278e-20 0.000111874 0.00710734)
(-1.92696e-21 9.55817e-05 0.00705088)
(1.19607e-17 7.89972e-05 0.0070036)
(1.80376e-17 6.20286e-05 0.00696555)
(9.22557e-21 4.46891e-05 0.00693694)
(-5.88151e-18 2.70394e-05 0.00691788)
(3.65179e-18 9.12555e-06 0.00690847)
(-1.79775e-17 0.00258174 0.137672)
(2.66305e-15 0.00257204 0.132486)
(2.08504e-17 0.00256204 0.127445)
(-1.49009e-17 0.0025488 0.122607)
(-3.7065e-20 0.0025333 0.117963)
(-1.73351e-17 0.00251423 0.113505)
(2.11039e-15 0.0024929 0.109226)
(2.07002e-15 0.00246898 0.105118)
(1.85288e-17 0.0024435 0.101176)
(-1.97177e-15 0.00241657 0.0973903)
(-1.5945e-17 0.00238857 0.0937552)
(1.74781e-15 0.00235961 0.0902635)
(7.61419e-18 0.00232938 0.0869094)
(1.74088e-18 0.00229865 0.0836862)
(9.42759e-21 0.00226595 0.0805893)
(-5.63703e-19 0.00223295 0.0776134)
(5.44858e-18 0.00219832 0.0747535)
(-1.49571e-15 0.00216353 0.0720054)
(-1.0042e-17 0.00212821 0.0693643)
(1.4264e-15 0.00209327 0.0668256)
(1.59123e-15 0.00205795 0.0643853)
(8.27525e-19 0.00202287 0.0620393)
(1.33328e-15 0.00198769 0.059783)
(5.61435e-16 0.00195184 0.0576134)
(-1.23698e-15 0.00191654 0.0555263)
(-3.33684e-18 0.00188092 0.0535182)
(-4.94128e-19 0.00184543 0.0515867)
(2.28757e-19 0.00181071 0.0497278)
(1.23357e-18 0.00177605 0.0479384)
(-4.89661e-16 0.00174147 0.0462164)
(-7.79966e-20 0.00170751 0.0445583)
(-4.72454e-16 0.0016735 0.0429618)
(-9.88703e-19 0.00163952 0.0414254)
(-6.86282e-19 0.00160638 0.039946)
(4.80213e-16 0.00157346 0.0385213)
(4.77334e-16 0.0015406 0.0371498)
(8.64558e-19 0.00150812 0.0358288)
(7.62598e-22 0.0014751 0.034557)
(-3.12744e-22 0.00144133 0.0333339)
(4.86704e-19 0.00140788 0.0321578)
(-3.11408e-16 0.00137502 0.0310271)
(-3.07273e-16 0.00134322 0.0299399)
(-6.60194e-20 0.00131325 0.028893)
(-4.21952e-16 0.00128437 0.0278838)
(-5.75693e-19 0.00125567 0.0269107)
(-3.82175e-22 0.00122671 0.0259726)
(-2.39752e-22 0.00119707 0.0250692)
(3.07382e-20 0.00116727 0.0242009)
(2.99196e-20 0.00113832 0.0233667)
(-8.2119e-20 0.00111076 0.0225645)
(5.43365e-20 0.00108453 0.0217921)
(-7.47096e-20 0.00105909 0.0210475)
(4.56003e-22 0.00103369 0.0203293)
(1.51451e-23 0.00100765 0.0196372)
(7.13587e-23 0.000980469 0.0189715)
(1.02545e-19 0.000952532 0.0183325)
(-3.89596e-22 0.000924829 0.0177201)
(3.08301e-19 0.000898078 0.0171334)
(-3.46583e-16 0.000872635 0.0165707)
(-2.83823e-19 0.000848347 0.0160301)
(-1.31976e-19 0.000824583 0.0155103)
(1.32192e-16 0.000800802 0.0150107)
(9.79997e-20 0.000776893 0.014531)
(9.30763e-20 0.000753013 0.0140715)
(-1.04487e-16 0.000729456 0.0136316)
(-2.95617e-16 0.000706455 0.0132106)
(-1.24573e-16 0.000684012 0.0128075)
(-1.2339e-16 0.00066203 0.0124215)
(6.37501e-22 0.000640361 0.0120519)
(-1.07673e-16 0.000618816 0.0116982)
(-7.48541e-17 0.000597298 0.0113601)
(-4.23444e-20 0.000575804 0.0110374)
(-1.48278e-21 0.000554333 0.0107296)
(-6.86121e-20 0.000532929 0.0104364)
(1.17592e-16 0.000511865 0.0101566)
(4.19499e-20 0.000491017 0.00989008)
(-3.94138e-20 0.000470342 0.00963688)
(1.40145e-16 0.000449891 0.00939675)
(6.62383e-20 0.00042969 0.00916935)
(7.58073e-21 0.000409751 0.00895432)
(-1.80688e-20 0.000390074 0.00875128)
(5.28243e-17 0.000370627 0.00855989)
(4.31254e-17 0.000351318 0.0083798)
(1.44112e-16 0.000332075 0.00821082)
(-4.13724e-17 0.000312847 0.00805275)
(-1.41484e-16 0.000293574 0.00790545)
(-5.66521e-20 0.000274203 0.00776876)
(-3.60804e-23 0.00025471 0.00764258)
(5.16463e-21 0.000235118 0.00752682)
(-8.94605e-21 0.000215473 0.00742137)
(4.37808e-17 0.000195819 0.00732614)
(2.3002e-20 0.0001762 0.00724092)
(-1.95177e-17 0.000156604 0.00716549)
(-1.51586e-20 0.000136916 0.00709959)
(2.37545e-17 0.000117006 0.00704302)
(1.16652e-17 9.67294e-05 0.0069956)
(6.5775e-21 7.60186e-05 0.00695738)
(-4.65941e-22 5.48539e-05 0.00692861)
(5.83496e-18 3.32823e-05 0.0069094)
(2.83758e-18 1.13234e-05 0.00689982)
(5.05542e-18 0.00305032 0.137659)
(-1.14521e-17 0.00303953 0.132475)
(2.49375e-15 0.00302775 0.127434)
(-1.56633e-19 0.00301213 0.122596)
(1.20094e-17 0.00299378 0.117952)
(-2.08511e-15 0.00297123 0.113493)
(-8.38526e-18 0.00294599 0.109214)
(1.12954e-17 0.00291773 0.105106)
(-1.99668e-15 0.00288756 0.101163)
(-1.86677e-15 0.00285578 0.0973777)
(1.90656e-15 0.00282265 0.0937425)
(1.07211e-17 0.00278852 0.0902507)
(2.59141e-20 0.00275286 0.0868964)
(-1.15233e-20 0.00271655 0.0836731)
(6.07361e-18 0.00267794 0.080576)
(-1.54504e-15 0.00263881 0.0775999)
(-1.17966e-17 0.00259772 0.0747399)
(1.64563e-15 0.00255655 0.0719917)
(1.0482e-18 0.00251478 0.0693506)
(1.38815e-15 0.00247357 0.0668119)
(-1.39352e-15 0.0024321 0.0643716)
(-6.07015e-18 0.00239071 0.0620256)
(5.67378e-16 0.00234917 0.0597692)
(2.33842e-18 0.00230683 0.0575996)
(-9.47861e-19 0.00226491 0.0555126)
(1.452e-18 0.00222279 0.0535045)
(-5.57371e-16 0.00218086 0.051573)
(-5.53449e-16 0.00213968 0.0497142)
(5.39334e-16 0.00209871 0.0479249)
(-5.25946e-16 0.00205786 0.0462029)
(-1.18284e-18 0.00201761 0.0445448)
(-2.93931e-19 0.00197748 0.0429484)
(-2.49455e-22 0.0019374 0.0414121)
(6.90651e-22 0.00189812 0.0399328)
(-5.47458e-19 0.00185929 0.0385081)
(4.37676e-16 0.00182056 0.0371366)
(7.93979e-19 0.0017821 0.0358156)
(7.00768e-22 0.00174319 0.0345437)
(-3.97814e-22 0.00170336 0.0333206)
(4.87571e-19 0.00166373 0.0321446)
(-3.12442e-16 0.00162496 0.031014)
(-2.23371e-19 0.00158739 0.0299272)
(-3.04449e-16 0.00155181 0.0288806)
(-6.13321e-19 0.0015175 0.0278716)
(-2.75391e-22 0.0014834 0.0268985)
(3.05341e-22 0.00144907 0.0259603)
(-4.82313e-19 0.00141414 0.0250568)
(3.98064e-16 0.00137913 0.0241886)
(3.95065e-16 0.0013451 0.0233547)
(6.62239e-16 0.00131259 0.0225529)
(7.39708e-16 0.00128153 0.0217808)
(6.43645e-16 0.00125137 0.0210362)
(6.66353e-19 0.00122124 0.020318)
(3.3637e-22 0.00119037 0.0196257)
(-8.51929e-26 0.00115817 0.0189597)
(3.64752e-22 0.00112516 0.0183206)
(-2.9464e-19 0.00109255 0.0177084)
(3.24336e-16 0.00106109 0.017122)
(-3.4576e-16 0.00103105 0.0165597)
(-2.65314e-19 0.00100227 0.0160194)
(1.30362e-22 0.000974092 0.0154997)
(3.39457e-20 0.00094595 0.015)
(-2.26762e-19 0.000917757 0.0145203)
(3.25267e-16 0.000889677 0.0140608)
(1.35112e-19 0.000861962 0.0136211)
(1.02422e-16 0.000834853 0.0132003)
(-9.93485e-17 0.000808372 0.0127974)
(-1.0013e-16 0.000782406 0.0124115)
(2.13109e-16 0.000756805 0.0120419)
(3.7228e-20 0.000731371 0.0116883)
(1.22926e-16 0.000705963 0.0113502)
(1.02296e-19 0.000680574 0.0110275)
(-6.19262e-17 0.000655221 0.0107197)
(1.03582e-16 0.000629943 0.0104265)
(-2.86541e-17 0.000604933 0.0101469)
(7.23842e-17 0.000580195 0.00988043)
(2.83832e-16 0.000555678 0.00962731)
(-2.95585e-17 0.00053143 0.00938727)
(-1.40199e-20 0.000507487 0.00915997)
(-2.28107e-20 0.000483865 0.00894504)
(5.37271e-17 0.000460563 0.00874211)
(-9.28671e-21 0.000437544 0.00855079)
(8.32176e-17 0.000414722 0.00837075)
(9.41945e-17 0.000392018 0.00820178)
(4.04528e-20 0.000369337 0.00804371)
(-1.69071e-20 0.000346605 0.00789638)
(5.37165e-23 0.000323766 0.00775965)
(-2.29638e-20 0.000300792 0.00763342)
(6.34711e-17 0.000277711 0.00751762)
(1.6335e-20 0.000254589 0.00741217)
(1.98499e-17 0.000231477 0.00731694)
(1.82498e-20 0.000208387 0.00723173)
(-4.22073e-17 0.000185277 0.00715627)
(-1.21709e-20 0.000162025 0.0070903)
(-2.23161e-21 0.000138488 0.0070336)
(2.12172e-17 0.000114505 0.00698599)
(1.14891e-17 9.00071e-05 0.00694758)
(1.60811e-17 6.49908e-05 0.00691861)
(5.79369e-21 3.94852e-05 0.00689921)
(2.56406e-18 1.34869e-05 0.00688938)
(2.72061e-15 0.00351933 0.137649)
(1.8102e-17 0.00350696 0.132463)
(-2.40917e-17 0.00349341 0.127422)
(2.39836e-15 0.00347541 0.122583)
(1.42622e-17 0.00345422 0.117938)
(-3.19333e-18 0.00342818 0.113479)
(1.29842e-17 0.003399 0.1092)
(-2.05907e-15 0.00336641 0.105092)
(-1.31873e-17 0.00333153 0.101149)
(-1.26361e-18 0.00329491 0.097363)
(2.4556e-18 0.00325666 0.0937277)
(9.88175e-21 0.00321736 0.0902357)
(-2.3186e-24 0.0031763 0.0868812)
(1.26711e-20 0.00313437 0.0836577)
(-6.07201e-18 0.00308988 0.0805604)
(1.54394e-15 0.00304457 0.0775841)
(5.79535e-18 0.002997 0.074724)
(1.27263e-18 0.00294945 0.0719757)
(-3.54096e-19 0.00290126 0.0693347)
(1.285e-18 0.00285378 0.066796)
(-1.28121e-18 0.00280623 0.0643557)
(-3.87072e-18 0.00275853 0.0620097)
(1.27763e-15 0.00271061 0.0597532)
(1.31343e-15 0.0026618 0.0575836)
(3.73139e-18 0.0026132 0.0554965)
(1.53501e-18 0.00256456 0.0534884)
(-5.62966e-16 0.00251622 0.0515571)
(5.04946e-16 0.00246855 0.0496983)
(1.60782e-18 0.00242126 0.0479091)
(-3.65138e-19 0.00237418 0.0461871)
(-8.2689e-20 0.00232762 0.0445291)
(-9.22241e-22 0.00228134 0.0429327)
(-2.49229e-20 0.00223519 0.0413965)
(-2.54092e-20 0.00218973 0.0399173)
(-8.84081e-19 0.00214497 0.0384927)
(4.73067e-16 0.00210041 0.0371213)
(8.56135e-19 0.00205593 0.0358002)
(7.53813e-22 0.00201112 0.0345281)
(-3.92744e-22 0.00196529 0.033305)
(4.81368e-19 0.00191949 0.0321291)
(-3.08086e-16 0.00187482 0.0309988)
(-8.2802e-16 0.00183151 0.0299123)
(-4.3146e-16 0.00179026 0.0288662)
(-6.08249e-19 0.00175047 0.0278574)
(-4.20291e-22 0.00171092 0.0268843)
(-6.80641e-25 0.00167123 0.0259459)
(7.01248e-22 0.00163106 0.0250424)
(-8.49975e-19 0.00159089 0.0241743)
(8.6721e-16 0.00155183 0.0233407)
(3.89913e-16 0.00151435 0.0225393)
(3.41075e-19 0.0014784 0.0217675)
(3.50171e-16 0.00144345 0.0210231)
(3.61984e-19 0.00140853 0.0203048)
(1.82399e-22 0.00137277 0.0196121)
(-1.44648e-22 0.00133553 0.0189458)
(3.14304e-19 0.0012975 0.0183068)
(-3.56334e-16 0.00126005 0.0176948)
(3.22184e-16 0.00122394 0.0171087)
(-1.13203e-19 0.00118932 0.0165468)
(3.41664e-16 0.00115601 0.0160068)
(2.65444e-19 0.00112342 0.0154872)
(1.82553e-23 0.00109095 0.0149875)
(1.3118e-22 0.0010585 0.0145079)
(8.3206e-20 0.00102626 0.0140485)
(-1.33252e-20 0.000994428 0.0136089)
(2.23346e-19 0.000963224 0.0131882)
(-3.14164e-16 0.000932712 0.0127855)
(-9.99626e-17 0.000902768 0.0123998)
(-1.53485e-20 0.00087323 0.0120303)
(-5.9912e-20 0.0008439 0.0116767)
(1.06695e-16 0.000814611 0.0113387)
(6.06268e-20 0.000785327 0.0110159)
(-1.17253e-20 0.000756079 0.0107082)
(2.811e-20 0.000726918 0.0104151)
(-2.79895e-17 0.000697948 0.0101355)
(1.98007e-20 0.000669294 0.00986914)
(-2.80125e-17 0.000640921 0.00961611)
(1.40483e-16 0.000612868 0.00937618)
(7.46913e-20 0.000585169 0.009149)
(1.87818e-20 0.000557851 0.0089342)
(-4.3762e-17 0.00053092 0.00873139)
(-9.40649e-17 0.00050434 0.00854017)
(5.29377e-17 0.000478019 0.0083602)
(-1.95118e-21 0.000451867 0.00819127)
(9.07e-17 0.000425757 0.00803319)
(3.03439e-20 0.00039958 0.00788582)
(-3.97622e-23 0.000373283 0.00774904)
(2.54702e-23 0.000346855 0.00762276)
(1.1562e-20 0.000320328 0.00750694)
(-1.27438e-17 0.000293767 0.00740148)
(1.20339e-20 0.000267219 0.00730625)
(-4.31199e-17 0.000240674 0.00722103)
(-2.41617e-17 0.000214071 0.00714553)
(3.74616e-17 0.000187227 0.00707946)
(3.28785e-17 0.000159975 0.00702259)
(1.19926e-17 0.000132219 0.00697478)
(1.82241e-17 0.0001039 0.00693613)
(5.66307e-21 7.50086e-05 0.00690694)
(5.89097e-18 4.55657e-05 0.00688732)
(3.65056e-18 1.55634e-05 0.00687716)
(2.73508e-15 0.00398829 0.137642)
(1.98211e-18 0.00397432 0.132449)
(2.48308e-15 0.003959 0.127407)
(-6.02623e-18 0.00393863 0.122568)
(9.242e-17 0.00391458 0.117923)
(-1.12419e-17 0.00388505 0.113464)
(2.11667e-15 0.00385194 0.109184)
(8.14567e-18 0.00381502 0.105075)
(-9.10949e-18 0.00377542 0.101132)
(1.84601e-15 0.00373397 0.0973462)