# vtk DataFile Version 2.0
track0
ASCII
DATASET POLYDATA
POINTS 6430 float
-0.0205 0.001 1e-05
-0.0204727 0.00100011 1e-05
-0.0204454 0.00100021 1e-05
-0.0204181 0.00100032 1e-05
-0.0203908 0.00100042 1e-05
-0.0203635 0.00100053 1e-05
-0.0200299 0.00100181 1e-05
-0.0196963 0.00100312 1e-05
-0.0193627 0.00100443 1e-05
-0.0190291 0.00100573 1e-05
-0.0186954 0.00100701 1e-05
-0.018369 0.00100821 1e-05
-0.0180425 0.00100944 1e-05
-0.017716 0.00101066 1e-05
-0.0173896 0.00101188 1e-05
-0.0170631 0.00101307 1e-05
-0.0167436 0.00101419 1e-05
-0.0164242 0.00101534 1e-05
-0.0161047 0.00101648 1e-05
-0.0157852 0.00101761 1e-05
-0.0154657 0.00101873 1e-05
-0.0151531 0.00101977 1e-05
-0.0148405 0.00102085 1e-05
-0.0145279 0.00102191 1e-05
-0.0142152 0.00102297 1e-05
-0.0139026 0.00102401 1e-05
-0.0135967 0.00102499 1e-05
-0.0132908 0.00102599 1e-05
-0.0129848 0.00102698 1e-05
-0.0126789 0.00102797 1e-05
-0.012373 0.00102894 1e-05
-0.0120736 0.00102985 1e-05
-0.0117742 0.00103078 1e-05
-0.0114749 0.00103171 1e-05
-0.0111755 0.00103263 1e-05
-0.0108761 0.00103354 1e-05
-0.0105832 0.00103438 1e-05
-0.0102902 0.00103524 1e-05
-0.00999724 0.00103611 1e-05
-0.00970429 0.00103697 1e-05
-0.00941133 0.00103781 1e-05
-0.00912465 0.00103859 1e-05
-0.00883797 0.00103939 1e-05
-0.00855129 0.00104019 1e-05
-0.00826461 0.00104099 1e-05
-0.00797793 0.00104177 1e-05
-0.00769739 0.00104249 1e-05
-0.00741686 0.00104323 1e-05
-0.00713632 0.00104398 1e-05
-0.00685578 0.00104471 1e-05
-0.00657525 0.00104543 1e-05
-0.00630072 0.00104609 1e-05
-0.0060262 0.00104677 1e-05
-0.00575167 0.00104746 1e-05
-0.00547714 0.00104814 1e-05
-0.00520262 0.00104879 1e-05
-0.00493398 0.0010494 1e-05
-0.00466533 0.00105002 1e-05
-0.00439669 0.00105064 1e-05
-0.00412805 0.00105126 1e-05
-0.0038594 0.00105186 1e-05
-0.00359652 0.0010524 1e-05
-0.00333363 0.00105297 1e-05
-0.00307074 0.00105354 1e-05
-0.00280786 0.00105411 1e-05
-0.00254497 0.00105465 1e-05
-0.00228772 0.00105514 1e-05
-0.00203046 0.00105564 1e-05
-0.00177321 0.00105614 1e-05
-0.00151596 0.00105662 1e-05
-0.0012587 0.00105707 1e-05
-0.00100696 0.00105748 1e-05
-0.000755223 0.00105794 1e-05
-0.000503482 0.00105834 1e-05
-0.000251741 0.00105861 1e-05
0 0.00105871 1e-05
0.000329256 0.00105853 1e-05
0.000658511 0.00105851 1e-05
0.000987767 0.00105842 1e-05
0.00131702 0.00105811 1e-05
0.00164628 0.00105749 1e-05
0.00197921 0.00105642 1e-05
0.00231214 0.00105586 1e-05
0.00264507 0.00105544 1e-05
0.002978 0.00105494 1e-05
0.00331093 0.00105415 1e-05
0.00364757 0.0010527 1e-05
0.00398422 0.00105191 1e-05
0.00432087 0.00105131 1e-05
0.00465751 0.00105067 1e-05
0.00499415 0.00104974 1e-05
0.00533455 0.00104802 1e-05
0.00567496 0.00104694 1e-05
0.00601536 0.00104606 1e-05
0.00635577 0.00104512 1e-05
0.00669616 0.00104391 1e-05
0.00704036 0.00104188 1e-05
0.00738456 0.00104044 1e-05
0.00772877 0.00103914 1e-05
0.00807297 0.00103779 1e-05
0.00841716 0.00103619 1e-05
0.0087652 0.00103381 1e-05
0.00911324 0.00103193 1e-05
0.00946129 0.00103013 1e-05
0.00980933 0.00102825 1e-05
0.0101574 0.00102618 1e-05
0.0105093 0.0010234 1e-05
0.0108612 0.00102101 1e-05
0.0112131 0.00101863 1e-05
0.0115651 0.00101617 1e-05
0.011917 0.00101355 1e-05
0.0122728 0.00101032 1e-05
0.0126287 0.00100738 1e-05
0.0129845 0.00100439 1e-05
0.0133404 0.00100131 1e-05
0.0136962 0.000998112 1e-05
0.0140561 0.000994406 1e-05
0.0144159 0.000990887 1e-05
0.0147757 0.000987284 1e-05
0.0151355 0.00098359 1e-05
0.0154954 0.000979805 1e-05
0.0158592 0.00097561 1e-05
0.016223 0.000971505 1e-05
0.0165869 0.000967313 1e-05
0.0169507 0.000963035 1e-05
0.0173145 0.000958667 1e-05
0.0176824 0.000953994 1e-05
0.0180503 0.000949333 1e-05
0.0184182 0.000944593 1e-05
0.0187861 0.000939773 1e-05
0.019154 0.000934872 1e-05
0.019526 0.000929744 1e-05
0.019898 0.000924576 1e-05
0.02027 0.000919338 1e-05
0.020642 0.000914028 1e-05
0.0210141 0.000908646 1e-05
0.0213902 0.000903094 1e-05
0.0217664 0.000897474 1e-05
0.0221425 0.000891792 1e-05
0.0225187 0.000886047 1e-05
0.0228948 0.00088024 1e-05
0.0232752 0.000874297 1e-05
0.0236555 0.000868278 1e-05
0.0240359 0.000862205 1e-05
0.0244162 0.000856077 1e-05
0.0247966 0.000849894 1e-05
0.0251385 0.000844291 1e-05
0.0254803 0.000838634 1e-05
0.0258222 0.000832939 1e-05
0.0261641 0.000827205 1e-05
0.0264794 0.00082188 1e-05
0.0265275 0.000821064 1e-05
0.0265755 0.000820247 1e-05
0.0266235 0.00081943 1e-05
0.0266715 0.000818611 1e-05
0.0267196 0.000817792 1e-05
0.0271085 0.00081116 1e-05
0.0274973 0.000804477 1e-05
0.0278862 0.000797747 1e-05
0.0282751 0.000790971 1e-05
0.028664 0.000784148 1e-05
0.0290572 0.000777264 1e-05
0.0294505 0.000770289 1e-05
0.0298437 0.000763268 1e-05
0.0302369 0.000756201 1e-05
0.0306301 0.000749087 1e-05
0.0310278 0.000741951 1e-05
0.0314254 0.000734691 1e-05
0.031823 0.000727384 1e-05
0.0322206 0.000720027 1e-05
0.0326182 0.000712622 1e-05
0.0330203 0.000705218 1e-05
0.0334223 0.000697665 1e-05
0.0338244 0.000690058 1e-05
0.0342264 0.000682397 1e-05
0.0346285 0.000674681 1e-05
0.035035 0.000666982 1e-05
0.0354416 0.000659108 1e-05
0.0358481 0.000651172 1e-05
0.0362546 0.000643175 1e-05
0.0366612 0.000635129 1e-05
0.0370722 0.000627093 1e-05
0.0374833 0.000618877 1e-05
0.0378944 0.000610568 1e-05
0.0383055 0.000602187 1e-05
0.0387166 0.00059378 1e-05
0.0391322 0.000585352 1e-05
0.0395479 0.000576741 1e-05
0.0399635 0.000568001 1e-05
0.0403792 0.000559175 1e-05
0.0407949 0.000550338 1e-05
0.0412152 0.000541449 1e-05
0.0416355 0.000532371 1e-05
0.0420558 0.000523126 1e-05
0.042476 0.00051378 1e-05
0.0428964 0.000504433 1e-05
0.0433214 0.000495003 1e-05
0.0437463 0.000485373 1e-05
0.0441713 0.000475543 1e-05
0.0445963 0.000465602 1e-05
0.0450213 0.000455655 1e-05
0.0454511 0.000445591 1e-05
0.0458808 0.000435315 1e-05
0.0463105 0.000424826 1e-05
0.0467402 0.000414213 1e-05
0.04717 0.000403566 1e-05
0.0476045 0.000392768 1e-05
0.048039 0.000381744 1e-05
0.0484736 0.000370494 1e-05
0.0489081 0.000359103 1e-05
0.0493426 0.000347652 1e-05
0.049782 0.000336013 1e-05
0.0502214 0.000324132 1e-05
0.0506607 0.000312013 1e-05
0.0511001 0.000299742 1e-05
0.0515395 0.000287376 1e-05
0.0519838 0.000274782 1e-05
0.0524281 0.000261932 1e-05
0.0528723 0.000248856 1e-05
0.0533166 0.000235606 1e-05
0.0537609 0.000222208 1e-05
0.0542102 0.000208542 1e-05
0.0546594 0.000194601 1e-05
0.0551086 0.000180445 1e-05
0.0555578 0.000166091 1e-05
0.0560071 0.000151537 1e-05
0.0564614 0.000136673 1e-05
0.0569156 0.000121527 1e-05
0.0573698 0.000106159 1e-05
0.0578241 9.0568e-05 1e-05
0.0582784 7.47511e-05 1e-05
0.0587024 5.98009e-05 1e-05
0.0591264 4.46151e-05 1e-05
0.0595503 2.92183e-05 1e-05
0.0599743 1.36097e-05 1e-05
0.060339 1.69407e-21 1e-05
0.0603862 -1.7813e-06 1e-05
0.0604334 -3.56518e-06 1e-05
0.0604806 -5.35165e-06 1e-05
0.0605278 -7.1407e-06 1e-05
0.060575 -8.93237e-06 1e-05
0.0610394 -2.6589e-05 1e-05
0.0615038 -4.45154e-05 1e-05
0.0619683 -6.27091e-05 1e-05
0.0624327 -8.1171e-05 1e-05
0.0628972 -9.9906e-05 1e-05
0.0633668 -0.000119085 1e-05
0.0638364 -0.000138587 1e-05
0.064306 -0.000158381 1e-05
0.0647756 -0.000178468 1e-05
0.0652453 -0.000198856 1e-05
0.0657202 -0.000219701 1e-05
0.0661951 -0.000240915 1e-05
0.0666699 -0.000262452 1e-05
0.0671447 -0.000284307 1e-05
0.0676197 -0.000306467 1e-05
0.0680998 -0.000329127 1e-05
0.06858 -0.000352176 1e-05
0.0690601 -0.0003756 1e-05
0.0695402 -0.000399371 1e-05
0.0700205 -0.000423445 1e-05
0.070506 -0.000448074 1e-05
0.0709916 -0.000473113 1e-05
0.071477 -0.000498565 1e-05
0.0719625 -0.000524381 1e-05
0.0724481 -0.000550529 1e-05
0.0729391 -0.000577288 1e-05
0.07343 -0.000604481 1e-05
0.0739209 -0.000632108 1e-05
0.0744118 -0.000660123 1e-05
0.0749029 -0.000688509 1e-05
0.0753993 -0.000717565 1e-05
0.0758957 -0.000747079 1e-05
0.0763921 -0.000777026 1e-05
0.0768884 -0.000807387 1e-05
0.077385 -0.00083818 1e-05
0.0778869 -0.000869705 1e-05
0.0783889 -0.000901704 1e-05
0.0788908 -0.000934145 1e-05
0.0793927 -0.000967031 1e-05
0.0798948 -0.00100038 1e-05
0.079963 -0.00100498 1e-05
0.0800312 -0.00100958 1e-05
0.0800994 -0.00101418 1e-05
0.0801676 -0.0010188 1e-05
0.0802345 -0.00102334 1e-05
0.0806741 -0.00105321 1e-05
0.0811137 -0.00108343 1e-05
0.0815533 -0.001114 1e-05
0.0819928 -0.00114492 1e-05
0.0824326 -0.00117622 1e-05
0.0829458 -0.00121311 1e-05
0.083459 -0.00125054 1e-05
0.0839722 -0.00128845 1e-05
0.0844853 -0.00132687 1e-05
0.0849987 -0.0013658 1e-05
0.0855177 -0.00140559 1e-05
0.0860366 -0.00144594 1e-05
0.0865555 -0.00148686 1e-05
0.0870743 -0.0015283 1e-05
0.0875935 -0.00157024 1e-05
0.0881183 -0.00161312 1e-05
0.088643 -0.00165658 1e-05
0.0891676 -0.00170065 1e-05
0.0896922 -0.00174526 1e-05
0.0902172 -0.00179042 1e-05
0.0907478 -0.00183658 1e-05
0.0912784 -0.00188336 1e-05
0.0918089 -0.00193072 1e-05
0.0923393 -0.00197866 1e-05
0.0928702 -0.00202723 1e-05
0.0931109 -0.0020495 1e-05
0.0933515 -0.0020719 1e-05
0.0935922 -0.00209442 1e-05
0.0938328 -0.00211706 1e-05
0.0940602 -0.00213858 1e-05
0.0943587 -0.00216697 1e-05
0.0946572 -0.00219554 1e-05
0.0949557 -0.0022243 1e-05
0.0952542 -0.00225324 1e-05
0.0955528 -0.00228239 1e-05
0.0960954 -0.00233565 1e-05
0.0966378 -0.00238956 1e-05
0.0971802 -0.00244409 1e-05
0.0977225 -0.00249925 1e-05
0.0982654 -0.00255508 1e-05
0.098814 -0.00261208 1e-05
0.0993624 -0.00266978 1e-05
0.0999109 -0.00272817 1e-05
0.100459 -0.00278722 1e-05
0.101008 -0.00284694 1e-05
0.101563 -0.0029079 1e-05
0.102117 -0.0029696 1e-05
0.102672 -0.003032 1e-05
0.103226 -0.00309509 1e-05
0.103782 -0.00315893 1e-05
0.104117 -0.00319794 1e-05
0.104453 -0.00323722 1e-05
0.104789 -0.00327676 1e-05
0.105124 -0.00331655 1e-05
0.105438 -0.00335397 1e-05
0.105667 -0.00338154 1e-05
0.105897 -0.00340922 1e-05
0.106127 -0.00343703 1e-05
0.106356 -0.00346495 1e-05
0.106586 -0.003493 1e-05
0.107153 -0.00356254 1e-05
0.10772 -0.00363282 1e-05
0.108287 -0.00370383 1e-05
0.108854 -0.00377557 1e-05
0.109422 -0.00384813 1e-05
0.109995 -0.00392212 1e-05
0.110568 -0.0039969 1e-05
0.111142 -0.0040725 1e-05
0.111715 -0.00414886 1e-05
0.112289 -0.00422605 1e-05
[...]
POINT_DATA 6430
 FIELD attributes 2
p 1 6430 float
-9.87077 -9.87115 -9.87153 -9.87191 -9.87229 -9.87268 -9.8764 -9.88059 -9.88482 -9.88909 -9.89385 -9.89748 -9.90161 -9.90579 -9.91004 -9.91479 -9.91839 -9.92247 -9.92663 -9.93089 -9.93563 -9.93923 -9.9433 -9.94747 -9.95176 -9.95651 -9.96014 -9.96423 -9.96845 -9.97278 -9.97757 -9.98127 -9.98542 -9.9897 -9.99412 -9.99897 -10.0028 -10.007 -10.0114 -10.016 -10.0209 -10.0249 -10.0292 -10.0338 -10.0385 -10.0436 -10.0477 -10.0523 -10.057 -10.0619 -10.0672 -10.0716 -10.0764 -10.0815 -10.0867 -10.0922 -10.097 -10.1022 -10.1075 -10.113 -10.1188 -10.124 -10.1298 -10.1359 -10.1422 -10.1489 -10.1555 -10.1618 -10.168 -10.1743 -10.1808 -10.1909 -10.2012 -10.2116 -10.2216 -10.2309 -10.2477 -10.2559 -10.2584 -10.2563 -10.2473 -10.2541 -10.2559 -10.2546 -10.2514 -10.245 -10.2626 -10.2738 -10.2814 -10.2839 -10.2771 -10.2917 -10.2997 -10.3044 -10.305 -10.2969 -10.3033 -10.3062 -10.3074 -10.3069 -10.3017 -10.3031 -10.3039 -10.3044 -10.3045 -10.3032 -10.3015 -10.3014 -10.3015 -10.3019 -10.3034 -10.2993 -10.2986 -10.2983 -10.2982 -10.3015 -10.2959 -10.2952 -10.2946 -10.294 -10.2982 -10.2926 -10.292 -10.2914 -10.2909 -10.2949 -10.2903 -10.29 -10.2897 -10.2895 -10.2929 -10.2899 -10.2901 -10.2903 -10.2906 -10.2935 -10.2923 -10.2932 -10.2942 -10.2952 -10.2977 -10.2984 -10.3003 -10.3022 -10.3041 -10.3066 -10.3089 -10.3115 -10.3141 -10.3168 -10.3192 -10.3196 -10.32 -10.3203 -10.3207 -10.3211 -10.3251 -10.3292 -10.3332 -10.3373 -10.3414 -10.3464 -10.3516 -10.3567 -10.3619 -10.3673 -10.3731 -10.3793 -10.3855 -10.3917 -10.3983 -10.4048 -10.4119 -10.419 -10.4261 -10.4339 -10.441 -10.4488 -10.4567 -10.4646 -10.4732 -10.481 -10.4892 -10.4976 -10.5062 -10.5153 -10.5236 -10.5321 -10.5408 -10.5498 -10.5591 -10.5677 -10.5763 -10.5851 -10.5942 -10.6034 -10.612 -10.6207 -10.6293 -10.6382 -10.6471 -10.6555 -10.6639 -10.6723 -10.6807 -10.6891 -10.697 -10.705 -10.7129 -10.7206 -10.7283 -10.7356 -10.7429 -10.7501 -10.757 -10.7639 -10.7704 -10.7768 -10.783 -10.7891 -10.795 -10.8004 -10.8056 -10.8108 -10.8159 -10.8206 -10.8248 -10.8286 -10.8325 -10.8364 -10.84 -10.8424 -10.8445 -10.8468 -10.849 -10.8509 -10.8511 -10.8514 -10.8516 -10.8519 -10.8521 -10.8529 -10.8536 -10.8544 -10.8552 -10.8558 -10.8551 -10.8542 -10.8532 -10.8523 -10.8509 -10.8487 -10.8459 -10.8431 -10.8401 -10.8367 -10.8325 -10.8282 -10.8234 -10.818 -10.8125 -10.8062 -10.8 -10.793 -10.7853 -10.7776 -10.769 -10.7605 -10.7513 -10.7413 -10.7312 -10.7203 -10.7089 -10.6971 -10.6853 -10.6728 -10.6592 -10.6448 -10.6305 -10.6162 -10.6018 -10.5996 -10.5973 -10.5951 -10.5928 -10.5905 -10.5761 -10.5617 -10.5473 -10.5329 -10.5176 -10.4992 -10.4799 -10.4606 -10.4408 -10.42 -10.3991 -10.378 -10.3559 -10.3323 -10.3086 -10.2849 -10.2612 -10.236 -10.2096 -10.1832 -10.1567 -10.1289 -10.1006 -10.0724 -10.0435 -10.0303 -10.0163 -10.0023 -9.98838 -9.97518 -9.95812 -9.94107 -9.92403 -9.907 -9.88903 -9.85628 -9.82277 -9.78929 -9.75508 -9.71968 -9.68433 -9.64903 -9.61235 -9.57418 -9.53598 -9.49784 -9.45908 -9.41907 -9.37901 -9.33811 -9.31365 -9.28812 -9.26254 -9.23698 -9.21309 -9.19581 -9.17854 -9.16128 -9.144 -9.12588 -9.08163 -9.0368 -8.99199 -8.94629 -8.89945 -8.85289 -8.80636 -8.75849 -8.70932 -8.6601 -8.61112 -8.56091 -8.51017 -8.45945 -8.40848 -8.40228 -8.39592 -8.38951 -8.38311 -8.37678 -8.33061 -8.28446 -8.23834 -8.19202 -8.14421 -8.09029 -8.03635 -7.98163 -7.92553 -7.86933 -7.81355 -7.75719 -7.69993 -7.64269 -7.58505 -7.56938 -7.55344 -7.53739 -7.52135 -7.50572 -7.46312 -7.42055 -7.37799 -7.3352 -7.29148 -7.23204 -7.17257 -7.1127 -7.05175 -6.99067 -6.93013 -6.86917 -6.80762 -6.74611 -6.68437 -6.67353 -6.6626 -6.65162 -6.64065 -6.62983 -6.57862 -6.52743 -6.47625 -6.42486 -6.37279 -6.31028 -6.2478 -6.18506 -6.12188 -6.05854 -6.00016 -5.94153 -5.88277 -5.82403 -5.76936 -5.76414 -5.75892 -5.7537 -5.74847 -5.74319 -5.68007 -5.61699 -5.55392 -5.49072 -5.42717 -5.36437 -5.30161 -5.23879 -5.17615 -5.11337 -5.07845 -5.04359 -5.00877 -4.97395 -4.94038 -4.91282 -4.88527 -4.85772 -4.83017 -4.80258 -4.741 -4.67964 -4.6184 -4.55738 -4.49621 -4.4359 -4.37576 -4.31593 -4.2561 -4.19636 -4.18658 -4.17687 -4.1672 -4.15754 -4.14794 -4.09887 -4.0498 -4.00073 -3.9518 -3.90306 -3.84563 -3.7882 -3.73133 -3.67499 -3.61857 -3.57265 -3.52716 -3.48193 -3.43669 -3.39195 -3.38229 -3.37263 -3.36297 -3.35334 -3.34378 -3.2904 -3.23721 -3.18402 -3.13118 -3.0787 -3.02743 -2.97615 -2.92553 -2.87542 -2.82544 -2.79172 -2.75843 -2.72532 -2.69221 -2.65808 -2.64323 -2.62838 -2.61353 -2.59864 -2.58366 -2.5377 -2.49158 -2.44547 -2.39914 -2.35282 -2.3095 -2.26618 -2.22264 -2.17886 -2.13527 -2.09452 -2.05364 -2.01274 -1.97185 -1.93112 -1.92547 -1.91982 -1.91416 -1.9085 -1.90273 -1.86981 -1.8369 -1.80401 -1.77113 -1.73571 -1.70202 -1.66667 -1.63075 -1.59271 -1.55398 -1.52285 -1.49175 -1.45823 -1.42226 -1.38647 -1.3578 -1.32834 -1.29725 -1.26554 -1.23256 -1.2061 -1.17757 -1.14907 -1.12061 -1.09158 -1.08164 -1.07117 -1.06071 -1.05026 -1.03883 -1.02333 -1.00785 -0.99238 -0.976923 -0.96163 -0.937776 -0.913831 -0.889921 -0.866044 -0.842502 -0.821024 -0.799247 -0.77747 -0.755796 -0.734318 -0.714874 -0.695321 -0.67552 -0.655854 -0.636259 -0.618689 -0.601151 -0.583264 -0.565384 -0.547537 -0.531687 -0.515865 -0.499884 -0.483628 -0.467398 -0.453124 -0.438875 -0.424633 -0.409876 -0.395138 -0.382309 -0.369489 -0.356648 -0.343462 -0.330102 -0.318596 -0.307065 -0.295512 -0.28378 -0.271691 -0.2614 -0.251042 -0.240674 -0.230283 -0.219373 -0.210196 -0.200916 -0.191644 -0.18238 -0.172676 -0.164508 -0.156251 -0.148002 -0.139759 -0.13121 -0.123985 -0.116693 -0.109406 -0.102126 -0.0946584 -0.0883387 -0.081981 -0.0756282 -0.0692803 -0.0628553 -0.0582515 -0.0536279 -0.0490073 -0.0443897 -0.0390853 -0.0383921 -0.037699 -0.0370059 -0.0363129 -0.0357062 -0.0311799 -0.0267387 -0.022301 -0.0178667 -0.0141754 -0.00997069 -0.00638732 -0.00280637 0.000772199 0.00314219 0.00615702 0.00761412 0.00906981 0.0105241 0.00959694 0.0120164 0.014749 0.0174825 0.020217 0.0228336 0.0253912 0.0214641 0.0175421 0.0136249 0.0031378
-9.8639 -9.86424 -9.86458 -9.86492 -9.86526 -9.8656 -9.86967 -9.87377 -9.8779 -9.88203 -9.88618 -9.89024 -9.89431 -9.8984 -9.90248 -9.90656 -9.91061 -9.91468 -9.91875 -9.9228 -9.92684 -9.9309 -9.93497 -9.93904 -9.94309 -9.94711 -9.9512 -9.9553 -9.95939 -9.96345 -9.96747 -9.97162 -9.97577 -9.9799 -9.984 -9.98805 -9.99227 -9.99648 -10.0007 -10.0048 -10.009 -10.0133 -10.0176 -10.0219 -10.0261 -10.0303 -10.0347 -10.0391 -10.0436 -10.0479 -10.0522 -10.0567 -10.0613 -10.0659 -10.0704 -10.0748 -10.0795 -10.0842 -10.089 -10.0936 -10.0982 -10.103 -10.1079 -10.1128 -10.1176 -10.1223 -10.1273 -10.1322 -10.1373 -10.142 -10.1467 -10.1514 -10.1563 -10.1616 -10.1669 -10.1721 -10.1772 -10.1822 -10.1869 -10.191 -10.1949 -10.1987 -10.2023 -10.2052 -10.2078 -10.2102 -10.2127 -10.2153 -10.218 -10.2208 -10.2235 -10.2261 -10.2286 -10.2313 -10.2337 -10.2361 -10.2376 -10.2392 -10.2408 -10.2424 -10.244 -10.2442 -10.2446 -10.2452 -10.2464 -10.2478 -10.2473 -10.247 -10.2473 -10.2482 -10.2495 -10.2488 -10.2483 -10.2483 -10.2489 -10.2498 -10.2491 -10.2485 -10.2482 -10.2486 -10.2493 -10.2486 -10.248 -10.2478 -10.248 -10.2486 -10.2481 -10.2479 -10.2478 -10.2481 -10.2487 -10.2487 -10.2489 -10.2492 -10.2498 -10.2507 -10.2512 -10.2519 -10.2528 -10.254 -10.2553 -10.2565 -10.2578 -10.2594 -10.2612 -10.2633 -10.2651 -10.2673 -10.2697 -10.2723 -10.2751 -10.2777 -10.2807 -10.284 -10.2874 -10.291 -10.2945 -10.2984 -10.3025 -10.3067 -10.3112 -10.3155 -10.3202 -10.3252 -10.3302 -10.3354 -10.3405 -10.346 -10.3517 -10.3573 -10.3632 -10.369 -10.3752 -10.3814 -10.3877 -10.394 -10.4004 -10.4071 -10.4139 -10.4206 -10.4272 -10.434 -10.441 -10.448 -10.4551 -10.4617 -10.4688 -10.4759 -10.483 -10.4902 -10.4968 -10.5039 -10.5109 -10.5179 -10.5249 -10.5314 -10.5382 -10.5449 -10.5516 -10.5583 -10.5645 -10.5709 -10.5771 -10.5833 -10.5895 -10.5953 -10.601 -10.6065 -10.612 -10.6175 -10.6228 -10.6276 -10.6322 -10.6369 -10.6415 -10.6462 -10.6466 -10.647 -10.6474 -10.6479 -10.6483 -10.6515 -10.6548 -10.6581 -10.6614 -10.6647 -10.6673 -10.6698 -10.6723 -10.6748 -10.6773 -10.6788 -10.68 -10.6812 -10.6823 -10.6832 -10.6837 -10.6833 -10.683 -10.6827 -10.6817 -10.6808 -10.6791 -10.6772 -10.6749 -10.6721 -10.6695 -10.6666 -10.663 -10.6584 -10.6536 -10.6493 -10.645 -10.6393 -10.6325 -10.6256 -10.6193 -10.6131 -10.6055 -10.5964 -10.5874 -10.579 -10.5704 -10.5605 -10.5496 -10.5383 -10.5277 -10.516 -10.5037 -10.4914 -10.4778 -10.4645 -10.4497 -10.435 -10.4204 -10.4054 -10.4013 -10.3969 -10.3925 -10.3881 -10.3839 -10.3714 -10.3589 -10.3464 -10.3339 -10.3205 -10.3021 -10.2829 -10.2636 -10.244 -10.2228 -10.2023 -10.1813 -10.1595 -10.1358 -10.112 -10.0888 -10.0657 -10.0408 -10.0144 -9.9879 -9.96205 -9.93507 -9.90714 -9.87924 -9.85025 -9.83137 -9.81126 -9.79115 -9.77106 -9.7525 -9.74191 -9.73133 -9.72075 -9.71017 -9.69888 -9.66681 -9.63418 -9.60159 -9.56836 -9.53365 -9.49939 -9.46515 -9.42945 -9.39214 -9.35482 -9.3179 -9.2802 -9.24124 -9.20229 -9.16249 -9.14434 -9.12538 -9.1063 -9.08723 -9.06904 -9.04685 -9.02467 -9.0025 -8.98019 -8.95723 -8.91445 -8.87136 -8.8282 -8.78387 -8.73931 -8.69412 -8.64882 -8.60232 -8.55575 -8.50891 -8.48693 -8.46455 -8.44199 -8.41943 -8.39781 -8.37158 -8.34535 -8.31913 -8.29284 -8.26603 -8.21557 -8.165 -8.11444 -8.06311 -8.01153 -7.95912 -7.90672 -7.85345 -7.80015 -7.7468 -7.71295 -7.67874 -7.64441 -7.61009 -7.57732 -7.55652 -7.53572 -7.51493 -7.49405 -7.47284 -7.41673 -7.36063 -7.30454 -7.24784 -7.19079 -7.13337 -7.07597 -7.01788 -6.9598 -6.90171 -6.86684 -6.83175 -6.79655 -6.76136 -6.72748 -6.70341 -6.67935 -6.65528 -6.63115 -6.60683 -6.54691 -6.48725 -6.42761 -6.36767 -6.30759 -6.24716 -6.18673 -6.12612 -6.06564 -6.00535 -5.97742 -5.94949 -5.92157 -5.89365 -5.86638 -5.83343 -5.80049 -5.76754 -5.7346 -5.70161 -5.64044 -5.57958 -5.51893 -5.45846 -5.39794 -5.33713 -5.27644 -5.21603 -5.15563 -5.09567 -5.07852 -5.06148 -5.0445 -5.02751 -5.01071 -4.96776 -4.9248 -4.88186 -4.83901 -4.79642 -4.73667 -4.67702 -4.61815 -4.55987 -4.50155 -4.44299 -4.38489 -4.32725 -4.26961 -4.21223 -4.20478 -4.19742 -4.19011 -4.18279 -4.1755 -4.12618 -4.07687 -4.02755 -3.97846 -3.93002 -3.87414 -3.81826 -3.76349 -3.70966 -3.65582 -3.60178 -3.54857 -3.49583 -3.4431 -3.39051 -3.38722 -3.38399 -3.38079 -3.37759 -3.37439 -3.32628 -3.27816 -3.23005 -3.18221 -3.13535 -3.08522 -3.0351 -2.98622 -2.93847 -2.89073 -2.84286 -2.79584 -2.74946 -2.70309 -2.65713 -2.64919 -2.64146 -2.63379 -2.62613 -2.61843 -2.58152 -2.54461 -2.5077 -2.47096 -2.43525 -2.39201 -2.34902 -2.30683 -2.266 -2.22519 -2.18437 -2.14385 -2.10451 -2.06539 -2.02702 -2.0037 -1.98118 -1.95877 -1.93636 -1.91327 -1.89868 -1.88409 -1.8695 -1.85493 -1.84088 -1.80519 -1.7701 -1.735 -1.70048 -1.66678 -1.63322 -1.59966 -1.56719 -1.53579 -1.50443 -1.4732 -1.4425 -1.41256 -1.38262 -1.35351 -1.33506 -1.31736 -1.29967 -1.28198 -1.26334 -1.25334 -1.24334 -1.23334 -1.22335 -1.21369 -1.18735 -1.16132 -1.1353 -1.10947 -1.08454 -1.05993 -1.03547 -1.01149 -0.988497 -0.965538 -0.942893 -0.920251 -0.898397 -0.877266 -0.856164 -0.835366 -0.815103 -0.795188 -0.775278 -0.755867 -0.739895 -0.724443 -0.708994 -0.693549 -0.67657 -0.674061 -0.671552 -0.669043 -0.666535 -0.664085 -0.647167 -0.630295 -0.61343 -0.596572 -0.580178 -0.564502 -0.549108 -0.53372 -0.518543 -0.503724 -0.489459 -0.475244 -0.461228 -0.447704 -0.434209 -0.421253 -0.408303 -0.395696 -0.383416 -0.371148 -0.35941 -0.347719 -0.336406 -0.325223 -0.314098 -0.303491 -0.293131 -0.282915 -0.272715 -0.262655 -0.253153 -0.243962 -0.234776 -0.225592 -0.21647 -0.209679 -0.203017 -0.196356 -0.189698 -0.182368 -0.180933 -0.179498 -0.178063 -0.176629 -0.175195 -0.167852 -0.160495 -0.153142 -0.145792 -0.138462 -0.13211 -0.125618 -0.119128 -0.112641 -0.106162 -0.100728 -0.0951548 -0.0895798 -0.0840538 -0.0786729 -0.0743128 -0.0695832 -0.0645374 -0.0593011 -0.053945 -0.0495493 -0.0452626 -0.0417432 -0.0398396 -0.0379979 -0.0370114 -0.0360249 -0.0292228 -0.017006 -0.00478943 0.00709943 0.0189884 0.0198526 0.00992653 0
-9.85877 -9.85908 -9.8594 -9.85971 -9.86003 -9.86034 -9.8643 -9.86826 -9.87222 -9.87618 -9.8801 -9.88402 -9.88793 -9.89185 -9.89576 -9.89964 -9.90353 -9.90741 -9.9113 -9.91518 -9.91903 -9.9229 -9.92677 -9.93064 -9.9345 -9.93833 -9.94219 -9.94606 -9.94992 -9.95379 -9.9576 -9.96146 -9.96534 -9.96921 -9.97308 -9.97689 -9.98077 -9.98465 -9.98854 -9.99243 -9.99625 -10.0001 -10.004 -10.0079 -10.0119 -10.0157 -10.0196 -10.0235 -10.0274 -10.0314 -10.0352 -10.0391 -10.043 -10.047 -10.0509 -10.0547 -10.0586 -10.0625 -10.0664 -10.0704 -10.0741 -10.0779 -10.0818 -10.0856 -10.0895 -10.0932 -10.0969 -10.1006 -10.1043 -10.108 -10.1115 -10.115 -10.1187 -10.1224 -10.1261 -10.1298 -10.1335 -10.1372 -10.141 -10.1448 -10.1484 -10.1519 -10.1552 -10.1584 -10.1617 -10.1647 -10.1675 -10.1701 -10.1728 -10.1755 -10.178 -10.1803 -10.1826 -10.1848 -10.1871 -10.1892 -10.1912 -10.193 -10.1948 -10.1966 -10.1982 -10.1997 -10.201 -10.2023 -10.2036 -10.2048 -10.2059 -10.2068 -10.2078 -10.2087 -10.2096 -10.2104 -10.2111 -10.2118 -10.2125 -10.2132 -10.2139 -10.2145 -10.215 -10.2156 -10.2161 -10.2167 -10.2173 -10.2178 -10.2183 -10.2189 -10.2195 -10.2202 -10.2208 -10.2214 -10.2221 -10.2229 -10.2238 -10.2246 -10.2255 -10.2264 -10.2276 -10.2288 -10.23 -10.2312 -10.2325 -10.234 -10.2357 -10.2374 -10.239 -10.2407 -10.2428 -10.245 -10.2472 -10.2494 -10.2517 -10.2543 -10.2571 -10.2599 -10.2626 -10.2654 -10.2687 -10.272 -10.2754 -10.2788 -10.2821 -10.286 -10.2899 -10.2938 -10.2977 -10.3016 -10.306 -10.3104 -10.3148 -10.3192 -10.3237 -10.3284 -10.3333 -10.3381 -10.3429 -10.3477 -10.3528 -10.358 -10.3631 -10.3682 -10.3733 -10.3768 -10.3803 -10.3838 -10.3872 -10.3903 -10.3922 -10.3941 -10.396 -10.3979 -10.3998 -10.4051 -10.4104 -10.4157 -10.421 -10.4263 -10.4315 -10.4366 -10.4418 -10.4469 -10.4521 -10.457 -10.4618 -10.4667 -10.4715 -10.4763 -10.4809 -10.4852 -10.4896 -10.4939 -10.4983 -10.5023 -10.506 -10.5097 -10.5134 -10.5171 -10.5205 -10.5234 -10.5263 -10.5292 -10.532 -10.5346 -10.5366 -10.5385 -10.5405 -10.5422 -10.5439 -10.5448 -10.5456 -10.5464 -10.5469 -10.5474 -10.5473 -10.5469 -10.5464 -10.5455 -10.5447 -10.5435 -10.5417 -10.5396 -10.5373 -10.535 -10.5326 -10.5293 -10.5254 -10.5215 -10.5176 -10.5137 -10.5088 -10.5032 -10.4975 -10.4919 -10.4863 -10.4798 -10.4722 -10.4647 -10.4573 -10.4498 -10.4414 -10.4319 -10.4225 -10.413 -10.4032 -10.3927 -10.3817 -10.3702 -10.3587 -10.3463 -10.3336 -10.321 -10.3073 -10.2934 -10.2784 -10.2635 -10.2487 -10.2334 -10.2232 -10.2126 -10.202 -10.1914 -10.1816 -10.175 -10.1683 -10.1616 -10.155 -10.148 -10.129 -10.1098 -10.0905 -10.0713 -10.0507 -10.0303 -10.0086 -9.98693 -9.96465 -9.94126 -9.91832 -9.89518 -9.87108 -9.84517 -9.81928 -9.79383 -9.76841 -9.74144 -9.71301 -9.68459 -9.65664 -9.62801 -9.59816 -9.56802 -9.53709 -9.50644 -9.47403 -9.44165 -9.40929 -9.37672 -9.37115 -9.36532 -9.35949 -9.35366 -9.34793 -9.31927 -9.29063 -9.262 -9.2334 -9.20333 -9.16751 -9.13074 -9.09395 -9.05602 -9.01714 -8.97887 -8.94061 -8.9009 -8.85966 -8.81842 -8.77777 -8.73635 -8.69368 -8.65098 -8.60748 -8.57936 -8.54996 -8.52056 -8.49117 -8.46331 -8.44772 -8.43212 -8.41653 -8.40092 -8.38464 -8.33859 -8.29216 -8.24575 -8.19856 -8.15028 -8.10242 -8.05456 -8.00557 -7.95545 -7.90532 -7.85557 -7.80476 -7.75339 -7.70203 -7.6505 -7.64202 -7.63333 -7.6246 -7.61586 -7.60722 -7.56336 -7.5195 -7.47565 -7.43157 -7.38657 -7.3328 -7.27905 -7.22483 -7.16973 -7.11461 -7.05955 -7.00394 -6.94787 -6.89181 -6.83571 -6.82944 -6.8231 -6.81674 -6.81037 -6.80404 -6.75364 -6.70325 -6.65286 -6.60224 -6.55119 -6.49358 -6.43598 -6.37811 -6.32015 -6.26216 -6.22238 -6.18248 -6.14249 -6.10251 -6.06378 -6.04505 -6.02632 -6.0076 -5.98885 -5.97008 -5.91105 -5.85233 -5.79368 -5.73508 -5.67646 -5.61826 -5.56017 -5.5022 -5.44424 -5.38845 -5.38719 -5.38593 -5.38467 -5.38342 -5.38216 -5.32345 -5.26477 -5.2061 -5.14758 -5.0893 -5.03063 -4.97197 -4.91372 -4.85623 -4.79874 -4.76135 -4.72424 -4.68731 -4.65037 -4.61391 -4.59346 -4.57301 -4.55256 -4.53219 -4.51201 -4.45479 -4.39833 -4.34187 -4.28613 -4.23058 -4.17465 -4.11885 -4.06398 -4.00923 -3.95516 -3.934 -3.91313 -3.89243 -3.87174 -3.8511 -3.81816 -3.78522 -3.75228 -3.71955 -3.68735 -3.63431 -3.58163 -3.52959 -3.47878 -3.42797 -3.3768 -3.32614 -3.27638 -3.22663 -3.17752 -3.16467 -3.15208 -3.13961 -3.12715 -3.11465 -3.07893 -3.0432 -3.00748 -2.972 -2.93738 -2.89016 -2.84316 -2.79711 -2.7524 -2.7077 -2.66268 -2.61823 -2.57479 -2.53135 -2.4887 -2.47437 -2.46046 -2.44667 -2.43288 -2.41898 -2.39118 -2.36339 -2.33559 -2.30795 -2.28121 -2.24071 -2.20077 -2.16123 -2.12312 -2.08518 -2.04699 -2.00888 -1.97225 -1.93608 -1.90041 -1.87478 -1.85011 -1.82558 -1.80106 -1.7758 -1.76596 -1.75613 -1.7463 -1.73648 -1.72708 -1.69395 -1.66128 -1.62861 -1.59646 -1.5653 -1.53397 -1.50264 -1.47245 -1.44341 -1.41439 -1.38521 -1.35659 -1.3288 -1.30101 -1.27402 -1.25828 -1.2433 -1.22832 -1.21334 -1.19782 -1.18696 -1.1761 -1.16525 -1.15439 -1.14403 -1.11935 -1.0951 -1.07087 -1.047 -1.024 -1.00094 -0.977871 -0.955686 -0.934447 -0.913226 -0.891949 -0.870762 -0.850571 -0.830762 -0.811211 -0.791617 -0.772983 -0.754409 -0.735838 -0.717462 -0.712973 -0.708683 -0.704394 -0.700105 -0.695726 -0.6828 -0.669877 -0.656956 -0.644039 -0.631646 -0.615399 -0.599543 -0.583691 -0.568116 -0.553122 -0.538174 -0.523284 -0.508811 -0.495083 -0.481365 -0.467703 -0.454045 -0.440997 -0.428456 -0.415925 -0.40346 -0.391307 -0.379524 -0.367807 -0.356379 -0.345109 -0.334389 -0.323672 -0.312957 -0.302337 -0.298999 -0.295788 -0.292576 -0.289365 -0.286057 -0.279493 -0.272929 -0.266367 -0.259807 -0.253462 -0.244454 -0.235557 -0.226663 -0.217772 -0.209376 -0.201168 -0.1931 -0.185079 -0.177318 -0.169794 -0.162444 -0.155102 -0.147894 -0.141081 -0.134272 -0.127635 -0.121 -0.114757 -0.108845 -0.102935 -0.0971959 -0.0914502 -0.0856501 -0.0796122 -0.0734879 -0.0674981 -0.0626222 -0.0584306 -0.0543437 -0.0511982 -0.047541 -0.0391207 -0.0307035 -0.0222893 -0.0117713 -0.00631907 -0.00535966 -0.00439828 -0.00343493 -0.00244293 -0.00171787 -0.000992989 -0.000268288 0.000456233 0