# vtk DataFile Version 2.0
track0
ASCII
DATASET POLYDATA
POINTS 6430 float
-0.0205 0.001 1e-05
-0.0204727 0.00100011 1e-05
-0.0204454 0.00100021 1e-05
-0.0204181 0.00100032 1e-05
-0.0203908 0.00100042 1e-05
-0.0203635 0.00100053 1e-05
-0.0200299 0.00100181 1e-05
-0.0196963 0.00100312 1e-05
-0.0193627 0.00100443 1e-05
-0.0190291 0.00100573 1e-05
-0.0186954 0.00100701 1e-05
-0.018369 0.00100821 1e-05
-0.0180425 0.00100944 1e-05
-0.017716 0.00101066 1e-05
-0.0173896 0.00101188 1e-05
-0.0170631 0.00101307 1e-05
-0.0167436 0.00101419 1e-05
-0.0164242 0.00101534 1e-05
-0.0161047 0.00101648 1e-05
-0.0157852 0.00101761 1e-05
-0.0154657 0.00101873 1e-05
-0.0151531 0.00101977 1e-05
-0.0148405 0.00102085 1e-05
-0.0145279 0.00102191 1e-05
-0.0142152 0.00102297 1e-05
-0.0139026 0.00102401 1e-05
-0.0135967 0.00102499 1e-05
-0.0132908 0.00102599 1e-05
-0.0129848 0.00102698 1e-05
-0.0126789 0.00102797 1e-05
-0.012373 0.00102894 1e-05
-0.0120736 0.00102985 1e-05
-0.0117742 0.00103078 1e-05
-0.0114749 0.00103171 1e-05
-0.0111755 0.00103263 1e-05
-0.0108761 0.00103354 1e-05
-0.0105832 0.00103438 1e-05
-0.0102902 0.00103524 1e-05
-0.00999724 0.00103611 1e-05
-0.00970429 0.00103697 1e-05
-0.00941133 0.00103781 1e-05
-0.00912465 0.00103859 1e-05
-0.00883797 0.00103939 1e-05
-0.00855129 0.00104019 1e-05
-0.00826461 0.00104099 1e-05
-0.00797793 0.00104177 1e-05
-0.00769739 0.00104249 1e-05
-0.00741686 0.00104323 1e-05
-0.00713632 0.00104398 1e-05
-0.00685578 0.00104471 1e-05
-0.00657525 0.00104543 1e-05
-0.00630072 0.00104609 1e-05
-0.0060262 0.00104677 1e-05
-0.00575167 0.00104746 1e-05
-0.00547714 0.00104814 1e-05
-0.00520262 0.00104879 1e-05
-0.00493398 0.0010494 1e-05
-0.00466533 0.00105002 1e-05
-0.00439669 0.00105064 1e-05
-0.00412805 0.00105126 1e-05
-0.0038594 0.00105186 1e-05
-0.00359652 0.0010524 1e-05
-0.00333363 0.00105297 1e-05
-0.00307074 0.00105354 1e-05
-0.00280786 0.00105411 1e-05
-0.00254497 0.00105465 1e-05
-0.00228772 0.00105514 1e-05
-0.00203046 0.00105564 1e-05
-0.00177321 0.00105614 1e-05
-0.00151596 0.00105662 1e-05
-0.0012587 0.00105707 1e-05
-0.00100696 0.00105748 1e-05
-0.000755223 0.00105794 1e-05
-0.000503482 0.00105834 1e-05
-0.000251741 0.00105861 1e-05
0 0.00105871 1e-05
0.000329256 0.00105853 1e-05
0.000658511 0.00105851 1e-05
0.000987767 0.00105842 1e-05
0.00131702 0.00105811 1e-05
0.00164628 0.00105749 1e-05
0.00197921 0.00105642 1e-05
0.00231214 0.00105586 1e-05
0.00264507 0.00105544 1e-05
0.002978 0.00105494 1e-05
0.00331093 0.00105415 1e-05
0.00364757 0.0010527 1e-05
0.00398422 0.00105191 1e-05
0.00432087 0.00105131 1e-05
0.00465751 0.00105067 1e-05
0.00499415 0.00104974 1e-05
0.00533455 0.00104802 1e-05
0.00567496 0.00104694 1e-05
0.00601536 0.00104606 1e-05
0.00635577 0.00104512 1e-05
0.00669616 0.00104391 1e-05
0.00704036 0.00104188 1e-05
0.00738456 0.00104044 1e-05
0.00772877 0.00103914 1e-05
0.00807297 0.00103779 1e-05
0.00841716 0.00103619 1e-05
0.0087652 0.00103381 1e-05
0.00911324 0.00103193 1e-05
0.00946129 0.00103013 1e-05
0.00980933 0.00102825 1e-05
0.0101574 0.00102618 1e-05
0.0105093 0.0010234 1e-05
0.0108612 0.00102101 1e-05
0.0112131 0.00101863 1e-05
0.0115651 0.00101617 1e-05
0.011917 0.00101355 1e-05
0.0122728 0.00101032 1e-05
0.0126287 0.00100738 1e-05
0.0129845 0.00100439 1e-05
0.0133404 0.00100131 1e-05
0.0136962 0.000998112 1e-05
0.0140561 0.000994406 1e-05
0.0144159 0.000990887 1e-05
0.0147757 0.000987284 1e-05
0.0151355 0.00098359 1e-05
0.0154954 0.000979805 1e-05
0.0158592 0.00097561 1e-05
0.016223 0.000971505 1e-05
0.0165869 0.000967313 1e-05
0.0169507 0.000963035 1e-05
0.0173145 0.000958667 1e-05
0.0176824 0.000953994 1e-05
0.0180503 0.000949333 1e-05
0.0184182 0.000944593 1e-05
0.0187861 0.000939773 1e-05
0.019154 0.000934872 1e-05
0.019526 0.000929744 1e-05
0.019898 0.000924576 1e-05
0.02027 0.000919338 1e-05
0.020642 0.000914028 1e-05
0.0210141 0.000908646 1e-05
0.0213902 0.000903094 1e-05
0.0217664 0.000897474 1e-05
0.0221425 0.000891792 1e-05
0.0225187 0.000886047 1e-05
0.0228948 0.00088024 1e-05
0.0232752 0.000874297 1e-05
0.0236555 0.000868278 1e-05
0.0240359 0.000862205 1e-05
0.0244162 0.000856077 1e-05
0.0247966 0.000849894 1e-05
0.0251385 0.000844291 1e-05
0.0254803 0.000838634 1e-05
0.0258222 0.000832939 1e-05
0.0261641 0.000827205 1e-05
0.0264794 0.00082188 1e-05
0.0265275 0.000821064 1e-05
0.0265755 0.000820247 1e-05
0.0266235 0.00081943 1e-05
0.0266715 0.000818611 1e-05
0.0267196 0.000817792 1e-05
0.0271085 0.00081116 1e-05
0.0274973 0.000804477 1e-05
0.0278862 0.000797747 1e-05
0.0282751 0.000790971 1e-05
0.028664 0.000784148 1e-05
0.0290572 0.000777264 1e-05
0.0294505 0.000770289 1e-05
0.0298437 0.000763268 1e-05
0.0302369 0.000756201 1e-05
0.0306301 0.000749087 1e-05
0.0310278 0.000741951 1e-05
0.0314254 0.000734691 1e-05
0.031823 0.000727384 1e-05
0.0322206 0.000720027 1e-05
0.0326182 0.000712622 1e-05
0.0330203 0.000705218 1e-05
0.0334223 0.000697665 1e-05
0.0338244 0.000690058 1e-05
0.0342264 0.000682397 1e-05
0.0346285 0.000674681 1e-05
0.035035 0.000666982 1e-05
0.0354416 0.000659108 1e-05
0.0358481 0.000651172 1e-05
0.0362546 0.000643175 1e-05
0.0366612 0.000635129 1e-05
0.0370722 0.000627093 1e-05
0.0374833 0.000618877 1e-05
0.0378944 0.000610568 1e-05
0.0383055 0.000602187 1e-05
0.0387166 0.00059378 1e-05
0.0391322 0.000585352 1e-05
0.0395479 0.000576741 1e-05
0.0399635 0.000568001 1e-05
0.0403792 0.000559175 1e-05
0.0407949 0.000550338 1e-05
0.0412152 0.000541449 1e-05
0.0416355 0.000532371 1e-05
0.0420558 0.000523126 1e-05
0.042476 0.00051378 1e-05
0.0428964 0.000504433 1e-05
0.0433214 0.000495003 1e-05
0.0437463 0.000485373 1e-05
0.0441713 0.000475543 1e-05
0.0445963 0.000465602 1e-05
0.0450213 0.000455655 1e-05
0.0454511 0.000445591 1e-05
0.0458808 0.000435315 1e-05
0.0463105 0.000424826 1e-05
0.0467402 0.000414213 1e-05
0.04717 0.000403566 1e-05
0.0476045 0.000392768 1e-05
0.048039 0.000381744 1e-05
0.0484736 0.000370494 1e-05
0.0489081 0.000359103 1e-05
0.0493426 0.000347652 1e-05
0.049782 0.000336013 1e-05
0.0502214 0.000324132 1e-05
0.0506607 0.000312013 1e-05
0.0511001 0.000299742 1e-05
0.0515395 0.000287376 1e-05
0.0519838 0.000274782 1e-05
0.0524281 0.000261932 1e-05
0.0528723 0.000248856 1e-05
0.0533166 0.000235606 1e-05
0.0537609 0.000222208 1e-05
0.0542102 0.000208542 1e-05
0.0546594 0.000194601 1e-05
0.0551086 0.000180445 1e-05
0.0555578 0.000166091 1e-05
0.0560071 0.000151537 1e-05
0.0564614 0.000136673 1e-05
0.0569156 0.000121527 1e-05
0.0573698 0.000106159 1e-05
0.0578241 9.0568e-05 1e-05
0.0582784 7.47511e-05 1e-05
0.0587024 5.98009e-05 1e-05
0.0591264 4.46151e-05 1e-05
0.0595503 2.92183e-05 1e-05
0.0599743 1.36097e-05 1e-05
0.060339 1.69407e-21 1e-05
0.0603862 -1.7813e-06 1e-05
0.0604334 -3.56518e-06 1e-05
0.0604806 -5.35165e-06 1e-05
0.0605278 -7.1407e-06 1e-05
0.060575 -8.93237e-06 1e-05
0.0610394 -2.6589e-05 1e-05
0.0615038 -4.45154e-05 1e-05
0.0619683 -6.27091e-05 1e-05
0.0624327 -8.1171e-05 1e-05
0.0628972 -9.9906e-05 1e-05
0.0633668 -0.000119085 1e-05
0.0638364 -0.000138587 1e-05
0.064306 -0.000158381 1e-05
0.0647756 -0.000178468 1e-05
0.0652453 -0.000198856 1e-05
0.0657202 -0.000219701 1e-05
0.0661951 -0.000240915 1e-05
0.0666699 -0.000262452 1e-05
0.0671447 -0.000284307 1e-05
0.0676197 -0.000306467 1e-05
0.0680998 -0.000329127 1e-05
0.06858 -0.000352176 1e-05
0.0690601 -0.0003756 1e-05
0.0695402 -0.000399371 1e-05
0.0700205 -0.000423445 1e-05
0.070506 -0.000448074 1e-05
0.0709916 -0.000473113 1e-05
0.071477 -0.000498565 1e-05
0.0719625 -0.000524381 1e-05
0.0724481 -0.000550529 1e-05
0.0729391 -0.000577288 1e-05
0.07343 -0.000604481 1e-05
0.0739209 -0.000632108 1e-05
0.0744118 -0.000660123 1e-05
0.0749029 -0.000688509 1e-05
0.0753993 -0.000717565 1e-05
0.0758957 -0.000747079 1e-05
0.0763921 -0.000777026 1e-05
0.0768884 -0.000807387 1e-05
0.077385 -0.00083818 1e-05
0.0778869 -0.000869705 1e-05
0.0783889 -0.000901704 1e-05
0.0788908 -0.000934145 1e-05
0.0793927 -0.000967031 1e-05
0.0798948 -0.00100038 1e-05
0.079963 -0.00100498 1e-05
0.0800312 -0.00100958 1e-05
0.0800994 -0.00101418 1e-05
0.0801676 -0.0010188 1e-05
0.0802345 -0.00102334 1e-05
0.0806741 -0.00105321 1e-05
0.0811137 -0.00108343 1e-05
0.0815533 -0.001114 1e-05
0.0819928 -0.00114492 1e-05
0.0824326 -0.00117622 1e-05
0.0829458 -0.00121311 1e-05
0.083459 -0.00125054 1e-05
0.0839722 -0.00128845 1e-05
0.0844853 -0.00132687 1e-05
0.0849987 -0.0013658 1e-05
0.0855177 -0.00140559 1e-05
0.0860366 -0.00144594 1e-05
0.0865555 -0.00148686 1e-05
0.0870743 -0.0015283 1e-05
0.0875935 -0.00157024 1e-05
0.0881183 -0.00161312 1e-05
0.088643 -0.00165658 1e-05
0.0891676 -0.00170065 1e-05
0.0896922 -0.00174526 1e-05
0.0902172 -0.00179042 1e-05
0.0907478 -0.00183658 1e-05
0.0912784 -0.00188336 1e-05
0.0918089 -0.00193072 1e-05
0.0923393 -0.00197866 1e-05
0.0928702 -0.00202723 1e-05
0.0931109 -0.0020495 1e-05
0.0933515 -0.0020719 1e-05
0.0935922 -0.00209442 1e-05
0.0938328 -0.00211706 1e-05
0.0940602 -0.00213858 1e-05
0.0943587 -0.00216697 1e-05
0.0946572 -0.00219554 1e-05
0.0949557 -0.0022243 1e-05
0.0952542 -0.00225324 1e-05
0.0955528 -0.00228239 1e-05
0.0960954 -0.00233565 1e-05
0.0966378 -0.00238956 1e-05
0.0971802 -0.00244409 1e-05
0.0977225 -0.00249925 1e-05
0.0982654 -0.00255508 1e-05
0.098814 -0.00261208 1e-05
0.0993624 -0.00266978 1e-05
0.0999109 -0.00272817 1e-05
0.100459 -0.00278722 1e-05
0.101008 -0.00284694 1e-05
0.101563 -0.0029079 1e-05
0.102117 -0.0029696 1e-05
0.102672 -0.003032 1e-05
0.103226 -0.00309509 1e-05
0.103782 -0.00315893 1e-05
0.104117 -0.00319794 1e-05
0.104453 -0.00323722 1e-05
0.104789 -0.00327676 1e-05
0.105124 -0.00331655 1e-05
0.105438 -0.00335397 1e-05
0.105667 -0.00338154 1e-05
0.105897 -0.00340922 1e-05
0.106127 -0.00343703 1e-05
0.106356 -0.00346495 1e-05
0.106586 -0.003493 1e-05
0.107153 -0.00356254 1e-05
0.10772 -0.00363282 1e-05
0.108287 -0.00370383 1e-05
0.108854 -0.00377557 1e-05
0.109422 -0.00384813 1e-05
0.109995 -0.00392212 1e-05
0.110568 -0.0039969 1e-05
0.111142 -0.0040725 1e-05
0.111715 -0.00414886 1e-05
0.112289 -0.00422605 1e-05
[...]
POINT_DATA 6430
 FIELD attributes 1
U 3 6430 float
6.81883 	0.0266731 	0 6.80785 	0.0265194 	0 6.79687 	0.0263657 	0 6.78589 	0.026212 	0 6.7749 	0.0260583 	0 6.76392 	0.0259046 	0 6.89478 	0.0272266 	0 6.89908 	0.0270774 	0 6.89461 	0.0268263 	0 6.87858 	0.026443 	0 6.74114 	0.0246711 	0 6.87207 	0.025891 	0 6.88174 	0.0257985 	0 6.87749 	0.0255555 	0 6.85687 	0.0251381 	0 6.71952 	0.0234775 	0 6.85018 	0.0246216 	0 6.8648 	0.0245781 	0 6.86077 	0.0243438 	0 6.83591 	0.0238992 	0 6.69899 	0.0223235 	0 6.8291 	0.0234101 	0 6.84826 	0.0234095 	0 6.84444 	0.0231836 	0 6.81569 	0.0227159 	0 6.67953 	0.0212057 	0 6.80883 	0.0222471 	0 6.83213 	0.0222841 	0 6.8285 	0.0220658 	0 6.79623 	0.0215774 	0 6.66107 	0.0201182 	0 6.78935 	0.0211222 	0 6.8164 	0.0211915 	0 6.81297 	0.0209794 	0 6.77753 	0.0204714 	0 6.64358 	0.0190525 	0 6.77067 	0.020023 	0 6.80108 	0.0201194 	0 6.79784 	0.0199116 	0 6.75958 	0.0193845 	0 6.62704 	0.017998 	0 6.75278 	0.0189364 	0 6.78619 	0.019054 	0 6.78314 	0.0188474 	0 6.7424 	0.0183003 	0 6.61142 	0.0169383 	0 6.73568 	0.0178417 	0 6.77175 	0.0179749 	0 6.76888 	0.017768 	0 6.72599 	0.017203 	0 6.59672 	0.0158647 	0 6.71941 	0.0167366 	0 6.75778 	0.0168773 	0 6.75508 	0.0166619 	0 6.71035 	0.0160689 	0 6.58288 	0.0147325 	0 6.70389 	0.0155444 	0 6.74427 	0.0156875 	0 6.74181 	0.0154753 	0 6.69563 	0.0148825 	0 6.57017 	0.0135991 	0 6.68946 	0.0144512 	0 6.73144 	0.0146424 	0 6.72904 	0.0144541 	0 6.68153 	0.0138262 	0 6.55793 	0.0124569 	0 6.67558 	0.0130104 	0 6.71932 	0.01296 	0 6.71758 	0.012538 	0 6.66964 	0.0117971 	0 6.5486 	0.0105515 	0 6.665 	0.0122381 	0 6.70893 	0.0107334 	0 6.70549 	0.00714596 	0 6.6546 	0.00255581 	0 6.53255 	-0.00353744 	0 6.64603 	-0.000392351 	0 6.68612 	-0.00182358 	0 6.67712 	-0.00630953 	0 6.62126 	-0.0124078 	0 6.49479 	-0.0209361 	0 6.60651 	-0.0110622 	0 6.64205 	-0.00830037 	0 6.62961 	-0.010008 	0 6.57266 	-0.0156522 	0 6.44291 	-0.0277295 	0 6.55574 	-0.0154593 	0 6.58775 	-0.0115776 	0 6.57354 	-0.0124809 	0 6.51707 	-0.0181056 	0 6.38347 	-0.0323284 	0 6.49652 	-0.0204407 	0 6.5237 	-0.0170151 	0 6.50749 	-0.0178542 	0 6.45244 	-0.0230032 	0 6.31548 	-0.0372201 	0 6.42708 	-0.0268111 	0 6.44809 	-0.024378 	0 6.43046 	-0.025339 	0 6.37917 	-0.0296491 	0 6.24097 	-0.0425961 	0 6.34892 	-0.0342538 	0 6.36231 	-0.0330318 	0 6.34399 	-0.0341932 	0 6.29924 	-0.0375649 	0 6.1627 	-0.0486169 	0 6.26412 	-0.0425101 	0 6.26827 	-0.0424238 	0 6.24962 	-0.0437463 	0 6.21374 	-0.046223 	0 6.08205 	-0.055137 	0 6.17391 	-0.0510845 	0 6.16769 	-0.05185 	0 6.14888 	-0.053232 	0 6.12335 	-0.0549598 	0 5.99963 	-0.0617887 	0 6.07945 	-0.0594506 	0 6.06277 	-0.0607084 	0 6.04394 	-0.0620452 	0 6.02492 	-0.0633877 	0 5.91597 	-0.0682007 	0 5.97464 	-0.0674135 	0 5.95611 	-0.0686175 	0 5.93742 	-0.0698262 	0 5.91856 	-0.0710397 	0 5.8317 	-0.0740773 	0 5.86869 	-0.0743495 	0 5.85046 	-0.0753791 	0 5.83208 	-0.0764124 	0 5.81355 	-0.0774494 	0 5.74761 	-0.079234 	0 5.76606 	-0.0801 	0 5.74829 	-0.0809434 	0 5.73041 	-0.0817897 	0 5.7124 	-0.0826388 	0 5.66467 	-0.0836094 	0 5.66868 	-0.0847001 	0 5.65157 	-0.0853723 	0 5.63436 	-0.0860465 	0 5.61705 	-0.0867228 	0 5.58395 	-0.0872419 	0 5.57791 	-0.088271 	0 5.56162 	-0.0888038 	0 5.54524 	-0.0893382 	0 5.52879 	-0.089874 	0 5.5065 	-0.0902439 	0 5.49621 	-0.0909493 	0 5.48257 	-0.0913366 	0 5.46888 	-0.0917247 	0 5.45514 	-0.0921137 	0 5.44241 	-0.0924734 	0 5.44042 	-0.092529 	0 5.43844 	-0.0925847 	0 5.43645 	-0.0926403 	0 5.43446 	-0.092696 	0 5.4326 	-0.0926459 	0 5.41826 	-0.0931175 	0 5.40364 	-0.0935062 	0 5.38895 	-0.0938958 	0 5.37419 	-0.0942861 	0 5.36035 	-0.0938466 	0 5.34874 	-0.0948764 	0 5.33515 	-0.0952571 	0 5.3215 	-0.0956383 	0 5.30779 	-0.0960201 	0 5.29554 	-0.0950478 	0 5.28653 	-0.0965172 	0 5.27394 	-0.0969289 	0 5.26129 	-0.0973411 	0 5.24857 	-0.0977538 	0 5.23762 	-0.0964466 	0 5.23104 	-0.0982782 	0 5.21935 	-0.098754 	0 5.20759 	-0.0992302 	0 5.19577 	-0.0997067 	0 5.18585 	-0.0982068 	0 5.18151 	-0.100362 	0 5.17061 	-0.100931 	0 5.15964 	-0.1015 	0 5.14875 	-0.101903 	0 5.13944 	-0.100469 	0 5.13594 	-0.10265 	0 5.127 	-0.103628 	0 5.11669 	-0.104316 	0 5.10673 	-0.104439 	0 5.09763 	-0.103363 	0 5.09451 	-0.105537 	0 5.0878 	-0.106989 	0 5.07803 	-0.107821 	0 5.06867 	-0.107755 	0 5.05967 	-0.107006 	0 5.05686 	-0.109226 	0 5.05229 	-0.111135 	0 5.04294 	-0.112133 	0 5.03385 	-0.11194 	0 5.02484 	-0.111499 	0 5.02225 	-0.113802 	0 5.01946 	-0.116103 	0 5.01073 	-0.117204 	0 5.00159 	-0.117061 	0 4.99244 	-0.116918 	0 4.98998 	-0.119325 	0 4.98732 	-0.12173 	0 4.98057 	-0.12301 	0 4.97122 	-0.123156 	0 4.96183 	-0.123301 	0 4.95939 	-0.125822 	0 4.95675 	-0.128341 	0 4.95173 	-0.129806 	0 4.94208 	-0.130233 	0 4.93237 	-0.13066 	0 4.92984 	-0.133299 	0 4.92706 	-0.135907 	0 4.92294 	-0.137489 	0 4.91356 	-0.138288 	0 4.90346 	-0.138991 	0 4.90073 	-0.141749 	0 4.89722 	-0.144138 	0 4.8926 	-0.145917 	0 4.88515 	-0.147315 	0 4.8746 	-0.148288 	0 4.87157 	-0.151171 	0 4.86699 	-0.153374 	0 4.86178 	-0.15535 	0 4.85634 	-0.157314 	0 4.84526 	-0.158551 	0 4.84153 	-0.161436 	0 4.83585 	-0.16361 	0 4.82998 	-0.165782 	0 4.82393 	-0.167949 	0 4.81496 	-0.169775 	0 4.8102 	-0.172283 	0 4.8043 	-0.174466 	0 4.79823 	-0.176645 	0 4.79199 	-0.178821 	0 4.78647 	-0.180689 	0 4.78602 	-0.180935 	0 4.78557 	-0.18118 	0 4.78512 	-0.181425 	0 4.78466 	-0.18167 	0 4.78407 	-0.181874 	0 4.78007 	-0.184502 	0 4.7756 	-0.187083 	0 4.77097 	-0.189661 	0 4.76617 	-0.192234 	0 4.75954 	-0.194371 	0 4.75791 	-0.197583 	0 4.75275 	-0.200333 	0 4.74741 	-0.203079 	0 4.74188 	-0.205821 	0 4.73264 	-0.207747 	0 4.73313 	-0.211453 	0 4.72772 	-0.214427 	0 4.72162 	-0.217331 	0 4.71382 	-0.219924 	0 4.70305 	-0.221945 	0 4.70275 	-0.22575 	0 4.70027 	-0.229315 	0 4.69335 	-0.232368 	0 4.68237 	-0.234707 	0 4.67052 	-0.236918 	0 4.66936 	-0.240819 	0 4.66794 	-0.244714 	0 4.66049 	-0.247845 	0 4.64773 	-0.250234 	0 4.63477 	-0.252619 	0 4.63267 	-0.256611 	0 4.63032 	-0.260595 	0 4.6229 	-0.263834 	0 4.60962 	-0.266443 	0 4.5955 	-0.268981 	0 4.5924 	-0.27305 	0 4.58608 	-0.276687 	0 4.57724 	-0.279991 	0 4.56777 	-0.283247 	0 4.55244 	-0.285911 	0 4.54711 	-0.289881 	0 4.53726 	-0.293268 	0 4.52715 	-0.296647 	0 4.51678 	-0.300017 	0 4.50535 	-0.3033 	0 4.50442 	-0.303832 	0 4.50295 	-0.304295 	0 4.50148 	-0.304758 	0 4.5 	-0.305221 	0 4.49855 	-0.305675 	0 4.49038 	-0.30869 	0 4.48202 	-0.311699 	0 4.47349 	-0.314702 	0 4.46476 	-0.317699 	0 4.45571 	-0.320316 	0 4.44689 	-0.324293 	0 4.43613 	-0.327807 	0 4.42512 	-0.331314 	0 4.4137 	-0.334618 	0 4.40167 	-0.337478 	0 4.39206 	-0.341552 	0 4.38188 	-0.345547 	0 4.36952 	-0.349028 	0 4.35619 	-0.351914 	0 4.3426 	-0.354794 	0 4.33178 	-0.35885 	0 4.32065 	-0.362894 	0 4.30835 	-0.366385 	0 4.29354 	-0.36929 	0 4.27836 	-0.372165 	0 4.26626 	-0.376182 	0 4.25298 	-0.379742 	0 4.23904 	-0.383106 	0 4.2248 	-0.386458 	0 4.20881 	-0.389483 	0 4.20272 	-0.391232 	0 4.19597 	-0.392718 	0 4.18917 	-0.394203 	0 4.1823 	-0.395685 	0 4.17575 	-0.397083 	0 4.16826 	-0.398965 	0 4.16068 	-0.400845 	0 4.15301 	-0.40272 	0 4.14527 	-0.404593 	0 4.13726 	-0.406164 	0 4.12414 	-0.409873 	0 4.10954 	-0.413185 	0 4.09466 	-0.416487 	0 4.07927 	-0.41953 	0 4.06322 	-0.422185 	0 4.04912 	-0.425904 	0 4.03471 	-0.429609 	0 4.01843 	-0.432703 	0 4.0009 	-0.435241 	0 3.98308 	-0.437772 	0 3.96756 	-0.441352 	0 3.95135 	-0.444698 	0 3.93411 	-0.447592 	0 3.91642 	-0.450429 	0 3.89677 	-0.452807 	0 3.88659 	-0.454851 	0 3.87555 	-0.45651 	0 3.86436 	-0.45814 	0 3.85305 	-0.459764 	0 3.84238 	-0.461278 	0 3.8355 	-0.462444 	0 3.82858 	-0.463607 	0 3.82162 	-0.464769 	0 3.8146 	-0.465923 	0 3.80736 	-0.466816 	0 3.79076 	-0.469863 	0 3.77294 	-0.472541 	0 3.75482 	-0.475205 	0 3.73612 	-0.477545 	0 3.71675 	-0.479515 	0 3.69905 	-0.482489 	0 3.68101 	-0.485448 	0 3.66161 	-0.487804 	0 3.64067 	-0.489537 	0 3.61942 	-0.49126 	0 3.60016 	-0.49399 	0 3.57982 	-0.49621 	0 3.55883 	-0.498184 	0 3.53751 	-0.500141 	0 3.51542 	-0.501948 	0 3.51289 	-0.502245 	0 3.51023 	-0.50247 	0 3.50754 	-0.502677 	0 3.50484 	-0.502883 	0 3.50217 	-0.503087 	0 3.48493 	-0.504771 	0 3.46748 	-0.506443 	0 3.4498 	-0.508105 	0 3.43183 	-0.509666 	0 3.41321 	-0.510666 	0 3.39332 	-0.5128 	0 3.37298 	-0.514859 	0 3.35115 	-0.516315 	0 3.32844 	-0.517132 	0 3.3054 	-0.517934 	0 3.28394 	-0.51975 	0 3.26179 	-0.521234 	0 3.23876 	-0.52222 	0 3.21542 	-0.523187 	0 3.19082 	-0.523779 	0 3.18451 	-0.524181 	0 3.17796 	-0.524421 	0 3.1713 	-0.524596 	0 3.16461 	-0.524769 	0 3.15808 	-0.524937 	0 3.14231 	-0.525591 	0 3.1264 	-0.526236 	0 3.11033 	-0.526873 	0 3.09405 	-0.52737 	0 3.07739 	-0.527398 	0 3.05552 	-0.528477 	0 3.03311 	-0.529419 	0 3.00955 	-0.529816 	0 2.98524 	-0.529467 	0 2.96062 	-0.529102 	0 2.93721 	-0.529804 	0 2.91317 	-0.530103 	0 2.88844 	-0.52988 	0 2.86342 	-0.529639 	0 2.83746 	-0.529107 	0 2.83304 	-0.529162 	0 2.82852 	-0.529111 	0 2.82393 	-0.529003 	0 2.81934 	-0.528894 	0 2.8148 	-0.528786 	0 2.79588 	-0.52854 	0 2.77677 	-0.528282 	0 2.75749 	-0.528013 	0 2.738 	-0.527516 	0 2.71824 	-0.526462 	0 2.69485 	-0.526321 	0 2.67116 	-0.52616 	0 2.64647 	-0.525202 	0 2.62119 	-0.523501 	0 2.59561 	-0.521779 	0 2.57251 	-0.521268 	0 2.54896 	-0.520155 	0 2.52505 	-0.518689 	0 2.50091 	-0.517206 	0 2.47822 	-0.515809 	0 2.4763 	-0.515704 	0 2.47438 	-0.5156 	0 2.47246 	-0.515495 	0 2.47056 	-0.515364 	0 2.46868 	-0.515176 	0 2.44535 	-0.513701 	0 2.42166 	-0.512078 	0 2.39774 	-0.510437 	0 2.37375 	-0.508319 	0 2.34971 	-0.505599 	0 2.32566 	-0.504166 	0 2.30133 	-0.502712 	0 2.27698 	-0.500372 	0 2.25196 	-0.497351 	0 2.22656 	-0.494192 	0 2.21237 	-0.493161 	0 2.19816 	-0.491763 	0 2.18392 	-0.490107 	0 2.16962 	-0.488446 	0 2.15576 	-0.486838 	0 2.14584 	-0.485698 	0 2.13588 	-0.484555 	0 2.12589 	-0.483409 	0 2.11603 	-0.482089 	0 2.10647 	-0.480438 	0 2.08388 	-0.478136 	0 2.06087 	-0.475386 	0 2.03758 	-0.472433 	0 2.01514 	-0.468365 	0 1.99261 	-0.464232 	0 1.96927 	-0.461574 	0 1.94608 	-0.45849 	0 1.92334 	-0.454637 	0 1.90049 	-0.450772 	0 1.87724 	-0.446548 	0 1.87324 	-0.446049 	0 1.86933 	-0.44544 	0 1.86547 	-0.444747 	0 1.86161 	-0.444054 	0 1.85777 	-0.443366 	0 1.84095 	-0.440225 	0 1.82406 	-0.437079 	0 1.80712 	-0.433928 	0 1.7907 	-0.430417 	0 1.7753 	-0.426237 	0 1.75489 	-0.422873 	0 1.73435 	-0.419496 	0 1.71462 	-0.415157 	0 1.69583 	-0.409873 	0 1.67708 	-0.404588 	0 1.66011 	-0.401604 	0 1.644 	-0.397988 	0 1.62843 	-0.393991 	0 1.61289 	-0.389996 	0 1.59752 	-0.386046 	0 1.59474 	-0.385276 	0 1.59196 	-0.384506 	0 1.58919 	-0.383737 	0 1.58656 	-0.3829 	0 1.5843 	-0.381903 	0 1.56818 	-0.377658 	0 1.55232 	-0.373056 	0 1.53653 	-0.368461 	0 1.52229 	-0.363189 	0 1.50956 	-0.357329 	0 1.49382 	-0.353395 	0 1.47811 	-0.349463 	0 1.46465 	-0.344481 	0 1.45214 	-0.338652 	0 1.43997 	-0.332725 	0 1.42965 	-0.329975 	0 1.42064 	-0.326612 	0 1.41221 	-0.323013 	0 1.40388 	-0.319428 	0 1.39541 	-0.315748 	0 1.39253 	-0.314288 	0 1.38967 	-0.312831 	0 1.38682 	-0.311376 	0 1.38419 	-0.309851 	0 1.38244 	-0.308003 	0 1.37277 	-0.303777 	0 1.36384 	-0.298968 	0 1.35514 	-0.29419 	0 1.34845 	-0.288758 	0 1.34363 	-0.282803 	0 1.3351 	-0.27899 	0 1.32673 	-0.275201 	0 1.3208 	-0.270432 	0 1.31679 	-0.264554 	0 1.31323 	-0.25876 	0 1.30619 	-0.255099 	0 1.30166 	-0.250532 	0 1.29809 	-0.245756 	0 1.29486 	-0.241035 	0 1.29217 	-0.236145 	0 1.29136 	-0.235629 	0 1.29095 	-0.234952 	0 1.29056 	-0.23427 	0 1.29018 	-0.233589 	0 1.2898 	-0.232895 	0 1.28907 	-0.22923 	0 1.28858 	-0.225603 	0 1.28832 	-0.222014 	0 1.28829 	-0.218463 	0 1.29011 	-0.214903 	0 1.29018 	-0.211161 	0 1.29072 	-0.207211 	0 1.29165 	-0.203219 	0 1.29415 	-0.199195 	0 1.2975 	-0.195208 	0 1.29905 	-0.191782 	0 1.30087 	-0.188401 	0 1.30387 	-0.184807 	0 1.30796 	-0.180969 	0 1.31237 	-0.1772 	0 1.31528 	-0.174078 	0 1.3189 	-0.17094 	0 1.32368 	-0.167727 	0 1.32874 	-0.164419 	0 1.33406 	-0.160868 	0 1.33829 	-0.158021 	0 1.3438 	-0.155027 	0 1.34958 	-0.152077 	0 1.35561 	-0.14917 	0 1.36183 	-0.146145 	0 1.36406 	-0.145085 	0 1.36656 	-0.143976 	0 1.3691 	-0.142874 	0 1.37168 	-0.141777 	0 1.37454 	-0.140585 	0 1.37894 	-0.13906 	0 1.38342 	-0.137548 	0 1.38798 	-0.136048 	0 1.3926 	-0.134561 	0 1.39424 	-0.133328 	0 1.40528 	-0.13079 	0 1.41312 	-0.128384 	0 1.42115 	-0.126009 	0 1.42938 	-0.123666 	0 1.42969 	-0.121938 	0 1.44609 	-0.119499 	0 1.45512 	-0.117267 	0 1.46363 	-0.11508 	0 1.46891 	-0.113141 	0 1.46821 	-0.111628 	0 1.4853 	-0.109396 	0 1.49965 	-0.107248 	0 1.50852 	-0.105231 	0 1.50973 	-0.103703 	0 1.50912 	-0.102306 	0 1.5268 	-0.100261 	0 1.5447 	-0.0982442 	0 1.55312 	-0.096476 	0 1.55245 	-0.0951736 	0 1.55185 	-0.093883 	0 1.57003 	-0.092008 	0 1.5884 	-0.0901572 	0 1.5973 	-0.0886687 	0 1.59656 	-0.0874666 	0 1.5959 	-0.0862745 	0 1.61449 	-0.0845536 	0 1.63325 	-0.0828537 	0 1.64251 	-0.0816159 	0 1.64165 	-0.0805064 	0 1.64084 	-0.0794056 	0 1.65978 	-0.0778248 	0 1.67627 	-0.0763718 	0 1.68497 	-0.0752685 	0 1.68732 	-0.0742203 	0 1.68633 	-0.0732045 	0 1.70555 	-0.0717515 	0 1.71915 	-0.0705372 	0 1.7279 	-0.0695275 	0 1.7333 	-0.0685457 	0 1.73207 	-0.0676095 	0 1.75153 	-0.066274 	0 1.76235 	-0.0652643 	0 1.77109 	-0.0643406 	0 1.77934 	-0.0634273 	0 1.77784 	-0.0625664 	0 1.79699 	-0.0613567 	0 1.80562 	-0.060506 	0 1.81434 	-0.0596621 	0 1.82312 	-0.0588249 	0 1.82347 	-0.0580275 	0 1.84022 	-0.0569957 	0 1.84882 	-0.056221 	0 1.85748 	-0.0554522 	0 1.8662 	-0.0546892 	0 1.86883 	-0.0539539 	0 1.88328 	-0.0530799 	0 1.89182 	-0.0523781 	0 1.90042 	-0.0516812 	0 1.90907 	-0.0509894 	0 1.91386 	-0.0503164 	0 1.92609 	-0.0495856 	0 1.93456 	-0.0489572 	0 1.94309 	-0.0483332 	0 1.95166 	-0.0477133 	0 1.9585 	-0.047105 	0 1.96735 	-0.0465936 	0 1.9745 	-0.0461252 	0 1.98169 	-0.0456594 	0 1.9889 	-0.0451962 	0 1.99723 	-0.0446668 	0 1.99835 	-0.0446 	0 1.99947 	-0.0445332 	0 2.0006 	-0.0444665 	0 2.00172 	-0.0443998 	0 1.99663 	-0.0442884 	0 2.01137 	-0.0438925 	0 2.01992 	-0.043452 	0 2.02851 	-0.0430143 	0 2.03714 	-0.0425793 	0 1.98994 	-0.0417735 	0 2.05449 	-0.0418429 	0 2.06332 	-0.0415284 	0 2.07217 	-0.0412162 	0 2.08105 	-0.040906 	0 1.98384 	-0.0399231 	0 2.09866 	-0.0404827 	0 2.10673 	-0.0403868 	0 2.11481 	-0.040292 	0 2.12291 	-0.0401983 	0 1.97248 	-0.0391151 	0 2.13921 	-0.0404764 	0 2.15023 	-0.0412808 	0 2.16122 	-0.0420824 	0 2.17217 	-0.0428812 	0 1.97094 	-0.0423468 	0 2.20015 	-0.045173 	0 2.20704 	-0.0458883 	0 2.2139 	-0.0466013 	0 2.22073 	-0.047312 	0 2.09902 	-0.0473643 	0