# vtk DataFile Version 2.0
track0
ASCII
DATASET POLYDATA
POINTS 6430 float
-0.0205 0.001 1e-05
-0.0204727 0.00100011 1e-05
-0.0204454 0.00100021 1e-05
-0.0204181 0.00100032 1e-05
-0.0203908 0.00100042 1e-05
-0.0203635 0.00100053 1e-05
-0.0200299 0.00100181 1e-05
-0.0196963 0.00100312 1e-05
-0.0193627 0.00100443 1e-05
-0.0190291 0.00100573 1e-05
-0.0186954 0.00100701 1e-05
-0.018369 0.00100821 1e-05
-0.0180425 0.00100944 1e-05
-0.017716 0.00101066 1e-05
-0.0173896 0.00101188 1e-05
-0.0170631 0.00101307 1e-05
-0.0167436 0.00101419 1e-05
-0.0164242 0.00101534 1e-05
-0.0161047 0.00101648 1e-05
-0.0157852 0.00101761 1e-05
-0.0154657 0.00101873 1e-05
-0.0151531 0.00101977 1e-05
-0.0148405 0.00102085 1e-05
-0.0145279 0.00102191 1e-05
-0.0142152 0.00102297 1e-05
-0.0139026 0.00102401 1e-05
-0.0135967 0.00102499 1e-05
-0.0132908 0.00102599 1e-05
-0.0129848 0.00102698 1e-05
-0.0126789 0.00102797 1e-05
-0.012373 0.00102894 1e-05
-0.0120736 0.00102985 1e-05
-0.0117742 0.00103078 1e-05
-0.0114749 0.00103171 1e-05
-0.0111755 0.00103263 1e-05
-0.0108761 0.00103354 1e-05
-0.0105832 0.00103438 1e-05
-0.0102902 0.00103524 1e-05
-0.00999724 0.00103611 1e-05
-0.00970429 0.00103697 1e-05
-0.00941133 0.00103781 1e-05
-0.00912465 0.00103859 1e-05
-0.00883797 0.00103939 1e-05
-0.00855129 0.00104019 1e-05
-0.00826461 0.00104099 1e-05
-0.00797793 0.00104177 1e-05
-0.00769739 0.00104249 1e-05
-0.00741686 0.00104323 1e-05
-0.00713632 0.00104398 1e-05
-0.00685578 0.00104471 1e-05
-0.00657525 0.00104543 1e-05
-0.00630072 0.00104609 1e-05
-0.0060262 0.00104677 1e-05
-0.00575167 0.00104746 1e-05
-0.00547714 0.00104814 1e-05
-0.00520262 0.00104879 1e-05
-0.00493398 0.00104939 1e-05
-0.00466533 0.00105002 1e-05
-0.00439669 0.00105064 1e-05
-0.00412805 0.00105126 1e-05
-0.0038594 0.00105186 1e-05
-0.00359652 0.0010524 1e-05
-0.00333363 0.00105297 1e-05
-0.00307074 0.00105354 1e-05
-0.00280786 0.00105411 1e-05
-0.00254497 0.00105465 1e-05
-0.00228772 0.00105514 1e-05
-0.00203046 0.00105564 1e-05
-0.00177321 0.00105614 1e-05
-0.00151596 0.00105662 1e-05
-0.0012587 0.00105707 1e-05
-0.00100696 0.00105748 1e-05
-0.000755223 0.00105794 1e-05
-0.000503482 0.00105834 1e-05
-0.000251741 0.00105861 1e-05
0 0.00105871 1e-05
0.000329256 0.00105853 1e-05
0.000658511 0.00105851 1e-05
0.000987767 0.00105842 1e-05
0.00131702 0.00105811 1e-05
0.00164628 0.00105749 1e-05
0.00197921 0.00105642 1e-05
0.00231214 0.00105586 1e-05
0.00264507 0.00105544 1e-05
0.002978 0.00105494 1e-05
0.00331093 0.00105415 1e-05
0.00364757 0.0010527 1e-05
0.00398422 0.0010519 1e-05
0.00432087 0.00105131 1e-05
0.00465751 0.00105067 1e-05
0.00499415 0.00104974 1e-05
0.00533455 0.00104801 1e-05
0.00567496 0.00104694 1e-05
0.00601536 0.00104606 1e-05
0.00635577 0.00104512 1e-05
0.00669616 0.00104391 1e-05
0.00704036 0.00104188 1e-05
0.00738456 0.00104044 1e-05
0.00772877 0.00103914 1e-05
0.00807297 0.00103779 1e-05
0.00841716 0.00103619 1e-05
0.0087652 0.00103381 1e-05
0.00911324 0.00103193 1e-05
0.00946129 0.00103013 1e-05
0.00980933 0.00102825 1e-05
0.0101574 0.00102617 1e-05
0.0105093 0.0010234 1e-05
0.0108612 0.00102101 1e-05
0.0112131 0.00101863 1e-05
0.0115651 0.00101617 1e-05
0.011917 0.00101355 1e-05
0.0122728 0.00101032 1e-05
0.0126287 0.00100738 1e-05
0.0129845 0.00100439 1e-05
0.0133404 0.00100131 1e-05
0.0136962 0.000998112 1e-05
0.0140561 0.000994406 1e-05
0.0144159 0.000990887 1e-05
0.0147757 0.000987284 1e-05
0.0151355 0.00098359 1e-05
0.0154954 0.000979804 1e-05
0.0158592 0.000975609 1e-05
0.016223 0.000971503 1e-05
0.0165869 0.000967311 1e-05
0.0169507 0.000963032 1e-05
0.0173145 0.000958664 1e-05
0.0176824 0.00095399 1e-05
0.0180503 0.000949328 1e-05
0.0184182 0.000944588 1e-05
0.0187861 0.000939767 1e-05
0.019154 0.000934865 1e-05
0.019526 0.000929737 1e-05
0.019898 0.000924569 1e-05
0.02027 0.00091933 1e-05
0.020642 0.000914021 1e-05
0.0210141 0.000908639 1e-05
0.0213902 0.000903087 1e-05
0.0217664 0.000897467 1e-05
0.0221425 0.000891786 1e-05
0.0225187 0.000886042 1e-05
0.0228948 0.000880235 1e-05
0.0232752 0.000874294 1e-05
0.0236555 0.000868276 1e-05
0.0240359 0.000862203 1e-05
0.0244162 0.000856076 1e-05
0.0247966 0.000849894 1e-05
0.0251385 0.000844291 1e-05
0.0254804 0.000838634 1e-05
0.0258223 0.000832938 1e-05
0.0261643 0.000827204 1e-05
0.0264796 0.00082188 1e-05
0.0265276 0.000821064 1e-05
0.0265756 0.000820248 1e-05
0.0266236 0.000819431 1e-05
0.0266716 0.000818613 1e-05
0.0267196 0.000817794 1e-05
0.0271085 0.000811162 1e-05
0.0274973 0.000804478 1e-05
0.0278862 0.000797748 1e-05
0.0282751 0.000790972 1e-05
0.028664 0.000784148 1e-05
0.0290572 0.000777263 1e-05
0.0294505 0.000770287 1e-05
0.0298437 0.000763265 1e-05
0.0302369 0.000756196 1e-05
0.0306301 0.000749081 1e-05
0.0310278 0.000741944 1e-05
0.0314254 0.000734683 1e-05
0.031823 0.000727375 1e-05
0.0322206 0.000720017 1e-05
0.0326182 0.000712611 1e-05
0.0330203 0.000705207 1e-05
0.0334223 0.000697654 1e-05
0.0338244 0.000690047 1e-05
0.0342264 0.000682386 1e-05
0.0346285 0.000674671 1e-05
0.035035 0.000666973 1e-05
0.0354416 0.000659099 1e-05
0.0358481 0.000651165 1e-05
0.0362546 0.000643169 1e-05
0.0366612 0.000635124 1e-05
0.0370722 0.000627089 1e-05
0.0374833 0.000618874 1e-05
0.0378944 0.000610567 1e-05
0.0383055 0.000602187 1e-05
0.0387166 0.000593781 1e-05
0.0391322 0.000585353 1e-05
0.0395479 0.000576743 1e-05
0.0399635 0.000568003 1e-05
0.0403792 0.000559177 1e-05
0.0407949 0.00055034 1e-05
0.0412152 0.000541451 1e-05
0.0416355 0.000532372 1e-05
0.0420558 0.000523126 1e-05
0.042476 0.000513779 1e-05
0.0428964 0.000504431 1e-05
0.0433214 0.000495 1e-05
0.0437463 0.000485368 1e-05
0.0441713 0.000475537 1e-05
0.0445963 0.000465595 1e-05
0.0450213 0.000455646 1e-05
0.0454511 0.000445581 1e-05
0.0458808 0.000435304 1e-05
0.0463105 0.000424815 1e-05
0.0467402 0.000414201 1e-05
0.04717 0.000403554 1e-05
0.0476045 0.000392756 1e-05
0.048039 0.000381732 1e-05
0.0484736 0.000370482 1e-05
0.0489081 0.000359093 1e-05
0.0493426 0.000347642 1e-05
0.049782 0.000336003 1e-05
0.0502214 0.000324124 1e-05
0.0506607 0.000312006 1e-05
0.0511001 0.000299736 1e-05
0.0515395 0.00028737 1e-05
0.0519838 0.000274778 1e-05
0.0524281 0.000261928 1e-05
0.0528723 0.000248852 1e-05
0.0533166 0.000235603 1e-05
0.0537609 0.000222204 1e-05
0.0542102 0.000208537 1e-05
0.0546594 0.000194596 1e-05
0.0551086 0.000180438 1e-05
0.0555578 0.000166083 1e-05
0.0560071 0.000151527 1e-05
0.0564614 0.000136661 1e-05
0.0569156 0.000121513 1e-05
0.0573698 0.000106143 1e-05
0.0578241 9.05503e-05 1e-05
0.0582784 7.47316e-05 1e-05
0.0587022 5.97852e-05 1e-05
0.059126 4.46038e-05 1e-05
0.0595499 2.92118e-05 1e-05
0.0599737 1.36085e-05 1e-05
0.0603384 0 1e-05
0.0603857 -1.78628e-06 1e-05
0.060433 -3.57515e-06 1e-05
0.0604803 -5.36661e-06 1e-05
0.0605276 -7.16067e-06 1e-05
0.060575 -8.95736e-06 1e-05
0.0610394 -2.66139e-05 1e-05
0.0615038 -4.45399e-05 1e-05
0.0619683 -6.27328e-05 1e-05
0.0624327 -8.11934e-05 1e-05
0.0628972 -9.99267e-05 1e-05
0.0633668 -0.000119103 1e-05
0.0638364 -0.000138603 1e-05
0.064306 -0.000158395 1e-05
0.0647756 -0.00017848 1e-05
0.0652453 -0.000198865 1e-05
0.0657202 -0.000219707 1e-05
0.0661951 -0.000240919 1e-05
0.0666699 -0.000262453 1e-05
0.0671447 -0.000284307 1e-05
0.0676197 -0.000306465 1e-05
0.0680998 -0.000329124 1e-05
0.06858 -0.000352173 1e-05
0.0690601 -0.000375598 1e-05
0.0695402 -0.000399369 1e-05
0.0700205 -0.000423445 1e-05
0.070506 -0.000448076 1e-05
0.0709916 -0.000473118 1e-05
0.071477 -0.000498572 1e-05
0.0719625 -0.000524392 1e-05
0.0724481 -0.000550543 1e-05
0.0729391 -0.000577306 1e-05
0.07343 -0.000604502 1e-05
0.0739209 -0.000632133 1e-05
0.0744118 -0.000660151 1e-05
0.0749029 -0.00068854 1e-05
0.0753993 -0.000717599 1e-05
0.0758957 -0.000747115 1e-05
0.0763921 -0.000777064 1e-05
0.0768884 -0.000807426 1e-05
0.077385 -0.00083822 1e-05
0.0778869 -0.000869745 1e-05
0.0783889 -0.000901743 1e-05
0.0788908 -0.000934183 1e-05
0.0793927 -0.000967068 1e-05
0.0798948 -0.00100042 1e-05
0.0799629 -0.001005 1e-05
0.080031 -0.0010096 1e-05
0.0800991 -0.0010142 1e-05
0.0801672 -0.00101881 1e-05
0.080234 -0.00102334 1e-05
0.0806737 -0.00105322 1e-05
0.0811134 -0.00108344 1e-05
0.0815531 -0.00111402 1e-05
0.0819927 -0.00114494 1e-05
0.0824326 -0.00117624 1e-05
0.0829458 -0.00121313 1e-05
0.083459 -0.00125055 1e-05
0.0839722 -0.00128847 1e-05
0.0844853 -0.00132689 1e-05
0.0849987 -0.00136581 1e-05
0.0855177 -0.0014056 1e-05
0.0860366 -0.00144595 1e-05
0.0865555 -0.00148687 1e-05
0.0870743 -0.00152831 1e-05
0.0875935 -0.00157025 1e-05
0.0881183 -0.00161312 1e-05
0.088643 -0.00165659 1e-05
0.0891676 -0.00170066 1e-05
0.0896922 -0.00174527 1e-05
0.0902172 -0.00179043 1e-05
0.0907478 -0.00183659 1e-05
0.0912784 -0.00188337 1e-05
0.0918089 -0.00193074 1e-05
0.0923393 -0.00197868 1e-05
0.0928702 -0.00202725 1e-05
0.0931108 -0.00204951 1e-05
0.0933514 -0.00207191 1e-05
0.093592 -0.00209443 1e-05
0.0938326 -0.00211707 1e-05
0.09406 -0.00213858 1e-05
0.0943586 -0.00216697 1e-05
0.0946571 -0.00219555 1e-05
0.0949556 -0.00222431 1e-05
0.0952542 -0.00225326 1e-05
0.0955528 -0.00228241 1e-05
0.0960954 -0.00233567 1e-05
0.0966378 -0.00238958 1e-05
0.0971802 -0.00244411 1e-05
0.0977225 -0.00249927 1e-05
0.0982654 -0.00255511 1e-05
0.098814 -0.0026121 1e-05
0.0993624 -0.0026698 1e-05
0.0999109 -0.00272819 1e-05
0.100459 -0.00278724 1e-05
0.101008 -0.00284696 1e-05
0.101563 -0.00290792 1e-05
0.102117 -0.00296961 1e-05
0.102672 -0.00303202 1e-05
0.103226 -0.0030951 1e-05
0.103782 -0.00315895 1e-05
0.104117 -0.00319795 1e-05
0.104453 -0.00323723 1e-05
0.104789 -0.00327676 1e-05
0.105124 -0.00331655 1e-05
0.105438 -0.00335397 1e-05
0.105667 -0.00338154 1e-05
0.105897 -0.00340923 1e-05
0.106127 -0.00343703 1e-05
0.106356 -0.00346495 1e-05
0.106586 -0.00349301 1e-05
0.107153 -0.00356254 1e-05
0.10772 -0.00363283 1e-05
0.108287 -0.00370383 1e-05
0.108854 -0.00377557 1e-05
0.109422 -0.00384813 1e-05
0.109995 -0.00392211 1e-05
0.110568 -0.0039969 1e-05
0.111142 -0.00407249 1e-05
0.111715 -0.00414885 1e-05
0.112289 -0.00422604 1e-05
[...]
POINT_DATA 6430
 FIELD attributes 1
U 3 6430 float
6.81883 	0.0266731 	0 6.80785 	0.0265194 	0 6.79687 	0.0263657 	0 6.78589 	0.026212 	0 6.7749 	0.0260583 	0 6.76392 	0.0259046 	0 6.89478 	0.0272266 	0 6.89908 	0.0270774 	0 6.89461 	0.0268263 	0 6.87858 	0.026443 	0 6.74114 	0.0246711 	0 6.87207 	0.025891 	0 6.88174 	0.0257985 	0 6.87749 	0.0255555 	0 6.85687 	0.0251381 	0 6.71952 	0.0234775 	0 6.85018 	0.0246216 	0 6.8648 	0.0245781 	0 6.86077 	0.0243438 	0 6.83591 	0.0238992 	0 6.69899 	0.0223235 	0 6.8291 	0.0234101 	0 6.84826 	0.0234095 	0 6.84444 	0.0231836 	0 6.81569 	0.0227159 	0 6.67953 	0.0212057 	0 6.80883 	0.0222471 	0 6.83213 	0.022284 	0 6.8285 	0.0220658 	0 6.79623 	0.0215774 	0 6.66107 	0.0201182 	0 6.78935 	0.0211222 	0 6.8164 	0.0211915 	0 6.81297 	0.0209794 	0 6.77753 	0.0204714 	0 6.64358 	0.0190525 	0 6.77067 	0.0200229 	0 6.80108 	0.0201194 	0 6.79784 	0.0199116 	0 6.75958 	0.0193845 	0 6.62704 	0.017998 	0 6.75278 	0.0189364 	0 6.7862 	0.019054 	0 6.78314 	0.0188473 	0 6.7424 	0.0183003 	0 6.61142 	0.0169383 	0 6.73568 	0.0178417 	0 6.77175 	0.0179748 	0 6.76888 	0.017768 	0 6.72599 	0.0172029 	0 6.59672 	0.0158646 	0 6.71941 	0.0167366 	0 6.75778 	0.0168773 	0 6.75508 	0.0166619 	0 6.71035 	0.0160689 	0 6.58289 	0.0147325 	0 6.70389 	0.0155443 	0 6.74427 	0.0156875 	0 6.74181 	0.0154753 	0 6.69563 	0.0148824 	0 6.57017 	0.0135991 	0 6.68946 	0.0144511 	0 6.73144 	0.0146423 	0 6.72904 	0.0144541 	0 6.68153 	0.0138261 	0 6.55793 	0.0124568 	0 6.67558 	0.0130103 	0 6.71932 	0.0129599 	0 6.71758 	0.012538 	0 6.66964 	0.011797 	0 6.5486 	0.0105514 	0 6.665 	0.0122381 	0 6.70893 	0.0107333 	0 6.70549 	0.00714586 	0 6.6546 	0.00255566 	0 6.53255 	-0.00353766 	0 6.64603 	-0.000392639 	0 6.68613 	-0.00182395 	0 6.67712 	-0.00630998 	0 6.62126 	-0.0124084 	0 6.49479 	-0.0209368 	0 6.60651 	-0.0110632 	0 6.64206 	-0.00830161 	0 6.62961 	-0.0100094 	0 6.57266 	-0.0156536 	0 6.44291 	-0.0277309 	0 6.55574 	-0.015461 	0 6.58775 	-0.0115796 	0 6.57354 	-0.012483 	0 6.51707 	-0.0181075 	0 6.38347 	-0.03233 	0 6.49652 	-0.0204425 	0 6.5237 	-0.0170169 	0 6.50749 	-0.0178559 	0 6.45244 	-0.0230045 	0 6.31548 	-0.0372209 	0 6.42708 	-0.0268117 	0 6.44808 	-0.0243784 	0 6.43046 	-0.025339 	0 6.37917 	-0.0296485 	0 6.24097 	-0.0425951 	0 6.34892 	-0.0342522 	0 6.36231 	-0.0330299 	0 6.34399 	-0.0341908 	0 6.29924 	-0.0375621 	0 6.1627 	-0.0486141 	0 6.26412 	-0.0425069 	0 6.26828 	-0.0424205 	0 6.24962 	-0.043743 	0 6.21374 	-0.0462197 	0 6.08205 	-0.0551343 	0 6.17392 	-0.0510821 	0 6.1677 	-0.0518484 	0 6.14888 	-0.0532311 	0 6.12336 	-0.0549597 	0 5.99964 	-0.0617897 	0 6.07946 	-0.0594531 	0 6.06278 	-0.0607123 	0 6.04395 	-0.0620504 	0 6.02494 	-0.0633943 	0 5.91599 	-0.0682081 	0 5.97465 	-0.0674223 	0 5.95612 	-0.0686272 	0 5.93743 	-0.0698368 	0 5.91857 	-0.0710511 	0 5.83171 	-0.0740884 	0 5.8687 	-0.0743603 	0 5.85046 	-0.075389 	0 5.83207 	-0.0764213 	0 5.81354 	-0.0774574 	0 5.7476 	-0.0792405 	0 5.76604 	-0.0801041 	0 5.74827 	-0.0809451 	0 5.73038 	-0.081789 	0 5.71236 	-0.0826357 	0 5.66464 	-0.0836042 	0 5.66864 	-0.0846926 	0 5.65153 	-0.0853629 	0 5.63432 	-0.0860352 	0 5.617 	-0.0867097 	0 5.58391 	-0.0872275 	0 5.57787 	-0.0882569 	0 5.56158 	-0.0887903 	0 5.54521 	-0.0893251 	0 5.52876 	-0.0898614 	0 5.50648 	-0.0902321 	0 5.49619 	-0.09094 	0 5.48256 	-0.0913298 	0 5.46888 	-0.0917204 	0 5.45514 	-0.0921118 	0 5.44241 	-0.0924736 	0 5.44043 	-0.0925296 	0 5.43845 	-0.0925855 	0 5.43646 	-0.0926415 	0 5.43448 	-0.0926975 	0 5.43262 	-0.0926478 	0 5.41828 	-0.093122 	0 5.40366 	-0.0935133 	0 5.38898 	-0.0939054 	0 5.37423 	-0.0942984 	0 5.36039 	-0.0938615 	0 5.34878 	-0.0948923 	0 5.33519 	-0.0952732 	0 5.32153 	-0.0956546 	0 5.30782 	-0.0960367 	0 5.29556 	-0.095064 	0 5.28655 	-0.0965319 	0 5.27395 	-0.0969413 	0 5.26128 	-0.0973513 	0 5.24856 	-0.0977616 	0 5.2376 	-0.0964512 	0 5.23101 	-0.0982793 	0 5.21931 	-0.0987524 	0 5.20755 	-0.0992258 	0 5.19573 	-0.0996995 	0 5.1858 	-0.0981966 	0 5.18145 	-0.100349 	0 5.17056 	-0.100916 	0 5.15959 	-0.101484 	0 5.1487 	-0.101886 	0 5.13939 	-0.100453 	0 5.1359 	-0.102633 	0 5.12697 	-0.103613 	0 5.11667 	-0.104302 	0 5.10671 	-0.104427 	0 5.09762 	-0.103354 	0 5.09451 	-0.10553 	0 5.08781 	-0.106986 	0 5.07804 	-0.10782 	0 5.06869 	-0.107757 	0 5.0597 	-0.107011 	0 5.05689 	-0.109235 	0 5.05232 	-0.111147 	0 5.04297 	-0.112146 	0 5.03388 	-0.111955 	0 5.02486 	-0.111515 	0 5.02228 	-0.113819 	0 5.01949 	-0.116121 	0 5.01074 	-0.117221 	0 5.00159 	-0.117076 	0 4.99244 	-0.11693 	0 4.98997 	-0.119335 	0 4.9873 	-0.121738 	0 4.98055 	-0.123015 	0 4.97119 	-0.123158 	0 4.9618 	-0.123301 	0 4.95936 	-0.125819 	0 4.9567 	-0.128334 	0 4.95169 	-0.129797 	0 4.94204 	-0.130223 	0 4.93233 	-0.130649 	0 4.9298 	-0.133287 	0 4.92702 	-0.135894 	0 4.92291 	-0.137476 	0 4.91353 	-0.138278 	0 4.90344 	-0.138982 	0 4.90072 	-0.141744 	0 4.89722 	-0.144135 	0 4.89259 	-0.145917 	0 4.88516 	-0.147318 	0 4.8746 	-0.148294 	0 4.87159 	-0.151182 	0 4.867 	-0.153387 	0 4.86179 	-0.155366 	0 4.85635 	-0.157333 	0 4.84527 	-0.158571 	0 4.84154 	-0.161457 	0 4.83585 	-0.163631 	0 4.82998 	-0.165802 	0 4.82393 	-0.167968 	0 4.81495 	-0.169793 	0 4.81019 	-0.172297 	0 4.80428 	-0.174475 	0 4.7982 	-0.17665 	0 4.79196 	-0.178821 	0 4.78644 	-0.180686 	0 4.78599 	-0.180932 	0 4.78553 	-0.181177 	0 4.78508 	-0.181423 	0 4.78462 	-0.181668 	0 4.78403 	-0.181872 	0 4.78003 	-0.184496 	0 4.77556 	-0.187073 	0 4.77092 	-0.189646 	0 4.76612 	-0.192215 	0 4.75949 	-0.194348 	0 4.75787 	-0.197557 	0 4.75271 	-0.200307 	0 4.74737 	-0.203052 	0 4.74186 	-0.205793 	0 4.73262 	-0.207721 	0 4.73312 	-0.211429 	0 4.72772 	-0.214406 	0 4.72162 	-0.217313 	0 4.71383 	-0.219911 	0 4.70307 	-0.221938 	0 4.70277 	-0.225749 	0 4.70029 	-0.22932 	0 4.69339 	-0.232378 	0 4.6824 	-0.234722 	0 4.67055 	-0.236938 	0 4.66938 	-0.240845 	0 4.66797 	-0.244744 	0 4.66051 	-0.247878 	0 4.64774 	-0.250267 	0 4.63478 	-0.252652 	0 4.63267 	-0.256644 	0 4.63031 	-0.260629 	0 4.62289 	-0.263865 	0 4.6096 	-0.26647 	0 4.59547 	-0.269003 	0 4.59236 	-0.273068 	0 4.58603 	-0.2767 	0 4.57719 	-0.279999 	0 4.56772 	-0.28325 	0 4.55239 	-0.285909 	0 4.54705 	-0.289874 	0 4.5372 	-0.293257 	0 4.52709 	-0.296632 	0 4.51672 	-0.299998 	0 4.50529 	-0.303277 	0 4.50437 	-0.303809 	0 4.5029 	-0.304271 	0 4.50143 	-0.304733 	0 4.49996 	-0.305195 	0 4.4985 	-0.305648 	0 4.49034 	-0.308663 	0 4.48198 	-0.311672 	0 4.47345 	-0.314675 	0 4.46473 	-0.317672 	0 4.45568 	-0.32029 	0 4.44685 	-0.324268 	0 4.4361 	-0.327785 	0 4.4251 	-0.331293 	0 4.41368 	-0.3346 	0 4.40165 	-0.337464 	0 4.39204 	-0.341541 	0 4.38187 	-0.34554 	0 4.36951 	-0.349024 	0 4.35618 	-0.351912 	0 4.34259 	-0.354795 	0 4.33177 	-0.358853 	0 4.32064 	-0.362901 	0 4.30834 	-0.366393 	0 4.29353 	-0.369298 	0 4.27835 	-0.372174 	0 4.26625 	-0.376192 	0 4.25296 	-0.379752 	0 4.23902 	-0.383115 	0 4.22478 	-0.386466 	0 4.20879 	-0.38949 	0 4.2027 	-0.391238 	0 4.19595 	-0.392724 	0 4.18914 	-0.394207 	0 4.18227 	-0.395688 	0 4.17573 	-0.397086 	0 4.16823 	-0.398968 	0 4.16065 	-0.400847 	0 4.15299 	-0.402722 	0 4.14524 	-0.404594 	0 4.13723 	-0.406164 	0 4.12411 	-0.409871 	0 4.10951 	-0.413182 	0 4.09463 	-0.416482 	0 4.07923 	-0.419524 	0 4.06318 	-0.422178 	0 4.04908 	-0.425895 	0 4.03467 	-0.429599 	0 4.01839 	-0.432692 	0 4.00086 	-0.43523 	0 3.98304 	-0.437759 	0 3.96752 	-0.441339 	0 3.95132 	-0.444685 	0 3.93408 	-0.447579 	0 3.91638 	-0.450415 	0 3.89674 	-0.452793 	0 3.88655 	-0.454837 	0 3.87552 	-0.456495 	0 3.86432 	-0.458125 	0 3.85302 	-0.45975 	0 3.84235 	-0.461263 	0 3.83547 	-0.462429 	0 3.82855 	-0.463593 	0 3.82159 	-0.464754 	0 3.81457 	-0.465908 	0 3.80733 	-0.466801 	0 3.79073 	-0.469849 	0 3.77291 	-0.472526 	0 3.75479 	-0.47519 	0 3.73609 	-0.47753 	0 3.71673 	-0.479499 	0 3.69902 	-0.482474 	0 3.68099 	-0.485432 	0 3.66158 	-0.487788 	0 3.64065 	-0.489521 	0 3.6194 	-0.491244 	0 3.60014 	-0.493974 	0 3.5798 	-0.496193 	0 3.55881 	-0.498167 	0 3.53749 	-0.500124 	0 3.5154 	-0.501931 	0 3.51287 	-0.502229 	0 3.51021 	-0.502454 	0 3.50752 	-0.50266 	0 3.50482 	-0.502867 	0 3.50215 	-0.50307 	0 3.48491 	-0.504754 	0 3.46746 	-0.506427 	0 3.44979 	-0.508088 	0 3.43182 	-0.509648 	0 3.4132 	-0.510649 	0 3.39331 	-0.512783 	0 3.37297 	-0.514842 	0 3.35115 	-0.516298 	0 3.32844 	-0.517114 	0 3.3054 	-0.517918 	0 3.28394 	-0.519733 	0 3.26179 	-0.521218 	0 3.23876 	-0.522204 	0 3.21543 	-0.523171 	0 3.19083 	-0.523762 	0 3.18451 	-0.524165 	0 3.17795 	-0.524405 	0 3.17129 	-0.52458 	0 3.16461 	-0.524754 	0 3.15807 	-0.524922 	0 3.14231 	-0.525576 	0 3.1264 	-0.526221 	0 3.11034 	-0.526858 	0 3.09406 	-0.527355 	0 3.0774 	-0.527383 	0 3.05553 	-0.528462 	0 3.03312 	-0.529404 	0 3.00956 	-0.529802 	0 2.98526 	-0.529454 	0 2.96064 	-0.529089 	0 2.93723 	-0.529791 	0 2.9132 	-0.53009 	0 2.88847 	-0.529868 	0 2.86345 	-0.529627 	0 2.83749 	-0.529095 	0 2.83307 	-0.52915 	0 2.82854 	-0.5291 	0 2.82395 	-0.528991 	0 2.81935 	-0.528882 	0 2.81481 	-0.528775 	0 2.79589 	-0.528528 	0 2.77679 	-0.528271 	0 2.75751 	-0.528002 	0 2.73803 	-0.527506 	0 2.71828 	-0.526452 	0 2.69489 	-0.526312 	0 2.6712 	-0.526151 	0 2.64651 	-0.525193 	0 2.62123 	-0.523493 	0 2.59565 	-0.521771 	0 2.57255 	-0.521261 	0 2.54899 	-0.520148 	0 2.52508 	-0.518682 	0 2.50094 	-0.517199 	0 2.47824 	-0.515802 	0 2.47633 	-0.515698 	0 2.47441 	-0.515593 	0 2.4725 	-0.515489 	0 2.4706 	-0.515358 	0 2.46872 	-0.515171 	0 2.4454 	-0.513697 	0 2.42171 	-0.512073 	0 2.39779 	-0.510434 	0 2.37381 	-0.508316 	0 2.34977 	-0.505597 	0 2.32572 	-0.504165 	0 2.30139 	-0.502711 	0 2.27704 	-0.500372 	0 2.25203 	-0.497351 	0 2.22662 	-0.494193 	0 2.21242 	-0.493162 	0 2.19821 	-0.491764 	0 2.18397 	-0.490107 	0 2.16966 	-0.488445 	0 2.15579 	-0.486836 	0 2.14588 	-0.485697 	0 2.13593 	-0.484556 	0 2.12594 	-0.483411 	0 2.11609 	-0.482092 	0 2.10653 	-0.480442 	0 2.08395 	-0.478141 	0 2.06094 	-0.475391 	0 2.03765 	-0.472439 	0 2.01522 	-0.468371 	0 1.99268 	-0.46424 	0 1.96935 	-0.461582 	0 1.94615 	-0.458499 	0 1.92342 	-0.454647 	0 1.90057 	-0.450783 	0 1.87732 	-0.446558 	0 1.87331 	-0.446059 	0 1.86938 	-0.445449 	0 1.86552 	-0.444754 	0 1.86165 	-0.44406 	0 1.85781 	-0.443371 	0 1.84099 	-0.440232 	0 1.82412 	-0.437087 	0 1.80718 	-0.433938 	0 1.79076 	-0.430429 	0 1.77538 	-0.426252 	0 1.75496 	-0.422888 	0 1.73442 	-0.419511 	0 1.71469 	-0.415173 	0 1.6959 	-0.40989 	0 1.67715 	-0.404605 	0 1.66017 	-0.40162 	0 1.64405 	-0.398003 	0 1.62848 	-0.394005 	0 1.61293 	-0.390008 	0 1.59756 	-0.386057 	0 1.59479 	-0.385289 	0 1.59201 	-0.384521 	0 1.58924 	-0.383753 	0 1.58662 	-0.382918 	0 1.58436 	-0.381922 	0 1.56825 	-0.377677 	0 1.55239 	-0.373076 	0 1.53659 	-0.368482 	0 1.52236 	-0.36321 	0 1.50962 	-0.35735 	0 1.49388 	-0.353417 	0 1.47817 	-0.349485 	0 1.4647 	-0.344504 	0 1.4522 	-0.338674 	0 1.44003 	-0.332747 	0 1.4297 	-0.329997 	0 1.42068 	-0.326632 	0 1.41225 	-0.323032 	0 1.40392 	-0.319445 	0 1.39545 	-0.315764 	0 1.39257 	-0.314306 	0 1.38971 	-0.31285 	0 1.38687 	-0.311396 	0 1.38424 	-0.309873 	0 1.38249 	-0.308027 	0 1.37282 	-0.3038 	0 1.36388 	-0.298991 	0 1.35518 	-0.294213 	0 1.34849 	-0.288782 	0 1.34367 	-0.282826 	0 1.33514 	-0.279013 	0 1.32677 	-0.275224 	0 1.32084 	-0.270455 	0 1.31683 	-0.264576 	0 1.31326 	-0.258782 	0 1.30622 	-0.255121 	0 1.30169 	-0.250554 	0 1.29812 	-0.245778 	0 1.29489 	-0.241057 	0 1.2922 	-0.236166 	0 1.29138 	-0.23565 	0 1.29097 	-0.234972 	0 1.29059 	-0.234289 	0 1.29021 	-0.233608 	0 1.28983 	-0.232913 	0 1.2891 	-0.229249 	0 1.2886 	-0.225622 	0 1.28834 	-0.222034 	0 1.28831 	-0.218482 	0 1.29014 	-0.214922 	0 1.2902 	-0.211181 	0 1.29075 	-0.20723 	0 1.29167 	-0.203238 	0 1.29417 	-0.199213 	0 1.29752 	-0.195226 	0 1.29907 	-0.191799 	0 1.30089 	-0.188418 	0 1.30389 	-0.184825 	0 1.30798 	-0.180986 	0 1.31238 	-0.177216 	0 1.3153 	-0.174094 	0 1.31892 	-0.170956 	0 1.3237 	-0.167742 	0 1.32876 	-0.164434 	0 1.33408 	-0.160883 	0 1.3383 	-0.158035 	0 1.34382 	-0.155041 	0 1.34959 	-0.15209 	0 1.35563 	-0.149183 	0 1.36185 	-0.146157 	0 1.36408 	-0.145098 	0 1.36657 	-0.14399 	0 1.36911 	-0.142888 	0 1.37169 	-0.141792 	0 1.37455 	-0.1406 	0 1.37895 	-0.139075 	0 1.38344 	-0.137562 	0 1.38799 	-0.136061 	0 1.39262 	-0.134572 	0 1.39426 	-0.133339 	0 1.4053 	-0.1308 	0 1.41314 	-0.128393 	0 1.42117 	-0.126019 	0 1.4294 	-0.123675 	0 1.42971 	-0.121946 	0 1.44611 	-0.119507 	0 1.45514 	-0.117275 	0 1.46365 	-0.115087 	0 1.46893 	-0.113148 	0 1.46823 	-0.111635 	0 1.48532 	-0.109402 	0 1.49968 	-0.107255 	0 1.50854 	-0.105237 	0 1.50975 	-0.103709 	0 1.50915 	-0.102311 	0 1.52683 	-0.100266 	0 1.54472 	-0.0982491 	0 1.55315 	-0.0964807 	0 1.55247 	-0.0951777 	0 1.55188 	-0.0938865 	0 1.57006 	-0.0920114 	0 1.58842 	-0.0901605 	0 1.59733 	-0.0886719 	0 1.59659 	-0.0874691 	0 1.59593 	-0.0862765 	0 1.61452 	-0.0845555 	0 1.63328 	-0.0828555 	0 1.64255 	-0.0816175 	0 1.64168 	-0.0805075 	0 1.64087 	-0.0794062 	0 1.65981 	-0.0778253 	0 1.67629 	-0.0763722 	0 1.685 	-0.0752687 	0 1.68736 	-0.0742201 	0 1.68636 	-0.0732036 	0 1.70558 	-0.0717506 	0 1.71918 	-0.0705362 	0 1.72792 	-0.0695263 	0 1.73333 	-0.0685441 	0 1.7321 	-0.0676073 	0 1.75156 	-0.0662717 	0 1.76237 	-0.065262 	0 1.77112 	-0.064338 	0 1.77938 	-0.0634244 	0 1.77788 	-0.062563 	0 1.79701 	-0.0613533 	0 1.80565 	-0.0605024 	0 1.81437 	-0.0596582 	0 1.82315 	-0.0588207 	0 1.8235 	-0.0580229 	0 1.84025 	-0.0569909 	0 1.84885 	-0.0562161 	0 1.85751 	-0.055447 	0 1.86623 	-0.0546838 	0 1.86886 	-0.0539481 	0 1.8833 	-0.0530739 	0 1.89184 	-0.0523718 	0 1.90044 	-0.0516748 	0 1.90909 	-0.0509827 	0 1.91388 	-0.0503093 	0 1.92611 	-0.0495784 	0 1.93458 	-0.0489497 	0 1.94311 	-0.0483254 	0 1.95168 	-0.0477053 	0 1.95851 	-0.0470966 	0 1.96736 	-0.0465857 	0 1.9745 	-0.0461176 	0 1.98167 	-0.0456521 	0 1.98888 	-0.0451892 	0 1.9972 	-0.0446602 	0 1.99833 	-0.0445928 	0 1.99946 	-0.0445254 	0 2.00059 	-0.0444581 	0 2.00172 	-0.0443909 	0 1.99659 	-0.0442785 	0 2.01137 	-0.0438827 	0 2.01993 	-0.0434419 	0 2.02852 	-0.0430039 	0 2.03714 	-0.0425686 	0 1.98989 	-0.0417623 	0 2.05449 	-0.0418315 	0 2.06331 	-0.0415168 	0 2.07216 	-0.0412041 	0 2.08104 	-0.0408936 	0 1.9838 	-0.0399103 	0 2.09864 	-0.0404697 	0 2.10671 	-0.0403734 	0 2.11479 	-0.0402781 	0 2.12289 	-0.0401839 	0 1.97244 	-0.0391005 	0 2.13919 	-0.0404611 	0 2.1502 	-0.0412646 	0 2.16118 	-0.0420653 	0 2.17213 	-0.042863 	0 1.9709 	-0.0423282 	0 2.2001 	-0.0451528 	0 2.20698 	-0.0458674 	0 2.21384 	-0.0465797 	0 2.22067 	-0.0472899 	0 2.09897 	-0.0473421 	0