# vtk DataFile Version 2.0
track0
ASCII
DATASET POLYDATA
POINTS 6430 float
-0.0205 0.001 1e-05
-0.0204727 0.00100011 1e-05
-0.0204454 0.00100021 1e-05
-0.0204181 0.00100032 1e-05
-0.0203908 0.00100042 1e-05
-0.0203635 0.00100053 1e-05
-0.0200299 0.00100181 1e-05
-0.0196963 0.00100312 1e-05
-0.0193627 0.00100443 1e-05
-0.0190291 0.00100573 1e-05
-0.0186954 0.00100701 1e-05
-0.018369 0.00100821 1e-05
-0.0180425 0.00100944 1e-05
-0.017716 0.00101066 1e-05
-0.0173896 0.00101188 1e-05
-0.0170631 0.00101307 1e-05
-0.0167436 0.00101419 1e-05
-0.0164242 0.00101534 1e-05
-0.0161047 0.00101648 1e-05
-0.0157852 0.00101761 1e-05
-0.0154657 0.00101873 1e-05
-0.0151531 0.00101977 1e-05
-0.0148405 0.00102085 1e-05
-0.0145279 0.00102191 1e-05
-0.0142152 0.00102297 1e-05
-0.0139026 0.00102401 1e-05
-0.0135967 0.00102499 1e-05
-0.0132908 0.00102599 1e-05
-0.0129848 0.00102698 1e-05
-0.0126789 0.00102797 1e-05
-0.012373 0.00102894 1e-05
-0.0120736 0.00102985 1e-05
-0.0117742 0.00103078 1e-05
-0.0114749 0.00103171 1e-05
-0.0111755 0.00103263 1e-05
-0.0108761 0.00103354 1e-05
-0.0105832 0.00103438 1e-05
-0.0102902 0.00103524 1e-05
-0.00999724 0.00103611 1e-05
-0.00970429 0.00103697 1e-05
-0.00941133 0.00103781 1e-05
-0.00912465 0.00103859 1e-05
-0.00883797 0.00103939 1e-05
-0.00855129 0.00104019 1e-05
-0.00826461 0.00104099 1e-05
-0.00797793 0.00104177 1e-05
-0.00769739 0.00104249 1e-05
-0.00741686 0.00104323 1e-05
-0.00713632 0.00104398 1e-05
-0.00685578 0.00104471 1e-05
-0.00657525 0.00104543 1e-05
-0.00630072 0.00104609 1e-05
-0.0060262 0.00104677 1e-05
-0.00575167 0.00104746 1e-05
-0.00547714 0.00104814 1e-05
-0.00520262 0.00104879 1e-05
-0.00493398 0.00104939 1e-05
-0.00466533 0.00105002 1e-05
-0.00439669 0.00105064 1e-05
-0.00412805 0.00105126 1e-05
-0.0038594 0.00105186 1e-05
-0.00359652 0.0010524 1e-05
-0.00333363 0.00105297 1e-05
-0.00307074 0.00105354 1e-05
-0.00280786 0.00105411 1e-05
-0.00254497 0.00105465 1e-05
-0.00228772 0.00105514 1e-05
-0.00203046 0.00105564 1e-05
-0.00177321 0.00105614 1e-05
-0.00151596 0.00105662 1e-05
-0.0012587 0.00105707 1e-05
-0.00100696 0.00105748 1e-05
-0.000755223 0.00105794 1e-05
-0.000503482 0.00105834 1e-05
-0.000251741 0.00105861 1e-05
0 0.00105871 1e-05
0.000329256 0.00105853 1e-05
0.000658511 0.00105851 1e-05
0.000987767 0.00105842 1e-05
0.00131702 0.00105811 1e-05
0.00164628 0.00105749 1e-05
0.00197921 0.00105642 1e-05
0.00231214 0.00105586 1e-05
0.00264507 0.00105544 1e-05
0.002978 0.00105494 1e-05
0.00331093 0.00105415 1e-05
0.00364757 0.0010527 1e-05
0.00398422 0.0010519 1e-05
0.00432087 0.00105131 1e-05
0.00465751 0.00105067 1e-05
0.00499415 0.00104974 1e-05
0.00533455 0.00104801 1e-05
0.00567496 0.00104694 1e-05
0.00601536 0.00104606 1e-05
0.00635577 0.00104512 1e-05
0.00669616 0.00104391 1e-05
0.00704036 0.00104188 1e-05
0.00738456 0.00104044 1e-05
0.00772877 0.00103914 1e-05
0.00807297 0.00103779 1e-05
0.00841716 0.00103619 1e-05
0.0087652 0.00103381 1e-05
0.00911324 0.00103193 1e-05
0.00946129 0.00103013 1e-05
0.00980933 0.00102825 1e-05
0.0101574 0.00102617 1e-05
0.0105093 0.0010234 1e-05
0.0108612 0.00102101 1e-05
0.0112131 0.00101863 1e-05
0.0115651 0.00101617 1e-05
0.011917 0.00101355 1e-05
0.0122728 0.00101032 1e-05
0.0126287 0.00100738 1e-05
0.0129845 0.00100439 1e-05
0.0133404 0.00100131 1e-05
0.0136962 0.000998112 1e-05
0.0140561 0.000994406 1e-05
0.0144159 0.000990887 1e-05
0.0147757 0.000987284 1e-05
0.0151355 0.00098359 1e-05
0.0154954 0.000979804 1e-05
0.0158592 0.000975609 1e-05
0.016223 0.000971503 1e-05
0.0165869 0.000967311 1e-05
0.0169507 0.000963032 1e-05
0.0173145 0.000958664 1e-05
0.0176824 0.00095399 1e-05
0.0180503 0.000949328 1e-05
0.0184182 0.000944588 1e-05
0.0187861 0.000939767 1e-05
0.019154 0.000934865 1e-05
0.019526 0.000929737 1e-05
0.019898 0.000924569 1e-05
0.02027 0.00091933 1e-05
0.020642 0.000914021 1e-05
0.0210141 0.000908639 1e-05
0.0213902 0.000903087 1e-05
0.0217664 0.000897467 1e-05
0.0221425 0.000891786 1e-05
0.0225187 0.000886042 1e-05
0.0228948 0.000880235 1e-05
0.0232752 0.000874294 1e-05
0.0236555 0.000868276 1e-05
0.0240359 0.000862203 1e-05
0.0244162 0.000856076 1e-05
0.0247966 0.000849894 1e-05
0.0251385 0.000844291 1e-05
0.0254804 0.000838634 1e-05
0.0258223 0.000832938 1e-05
0.0261643 0.000827204 1e-05
0.0264796 0.00082188 1e-05
0.0265276 0.000821064 1e-05
0.0265756 0.000820248 1e-05
0.0266236 0.000819431 1e-05
0.0266716 0.000818613 1e-05
0.0267196 0.000817794 1e-05
0.0271085 0.000811162 1e-05
0.0274973 0.000804478 1e-05
0.0278862 0.000797748 1e-05
0.0282751 0.000790972 1e-05
0.028664 0.000784148 1e-05
0.0290572 0.000777263 1e-05
0.0294505 0.000770287 1e-05
0.0298437 0.000763265 1e-05
0.0302369 0.000756196 1e-05
0.0306301 0.000749081 1e-05
0.0310278 0.000741944 1e-05
0.0314254 0.000734683 1e-05
0.031823 0.000727375 1e-05
0.0322206 0.000720017 1e-05
0.0326182 0.000712611 1e-05
0.0330203 0.000705207 1e-05
0.0334223 0.000697654 1e-05
0.0338244 0.000690047 1e-05
0.0342264 0.000682386 1e-05
0.0346285 0.000674671 1e-05
0.035035 0.000666973 1e-05
0.0354416 0.000659099 1e-05
0.0358481 0.000651165 1e-05
0.0362546 0.000643169 1e-05
0.0366612 0.000635124 1e-05
0.0370722 0.000627089 1e-05
0.0374833 0.000618874 1e-05
0.0378944 0.000610567 1e-05
0.0383055 0.000602187 1e-05
0.0387166 0.000593781 1e-05
0.0391322 0.000585353 1e-05
0.0395479 0.000576743 1e-05
0.0399635 0.000568003 1e-05
0.0403792 0.000559177 1e-05
0.0407949 0.00055034 1e-05
0.0412152 0.000541451 1e-05
0.0416355 0.000532372 1e-05
0.0420558 0.000523126 1e-05
0.042476 0.000513779 1e-05
0.0428964 0.000504431 1e-05
0.0433214 0.000495 1e-05
0.0437463 0.000485368 1e-05
0.0441713 0.000475537 1e-05
0.0445963 0.000465595 1e-05
0.0450213 0.000455646 1e-05
0.0454511 0.000445581 1e-05
0.0458808 0.000435304 1e-05
0.0463105 0.000424815 1e-05
0.0467402 0.000414201 1e-05
0.04717 0.000403554 1e-05
0.0476045 0.000392756 1e-05
0.048039 0.000381732 1e-05
0.0484736 0.000370482 1e-05
0.0489081 0.000359093 1e-05
0.0493426 0.000347642 1e-05
0.049782 0.000336003 1e-05
0.0502214 0.000324124 1e-05
0.0506607 0.000312006 1e-05
0.0511001 0.000299736 1e-05
0.0515395 0.00028737 1e-05
0.0519838 0.000274778 1e-05
0.0524281 0.000261928 1e-05
0.0528723 0.000248852 1e-05
0.0533166 0.000235603 1e-05
0.0537609 0.000222204 1e-05
0.0542102 0.000208537 1e-05
0.0546594 0.000194596 1e-05
0.0551086 0.000180438 1e-05
0.0555578 0.000166083 1e-05
0.0560071 0.000151527 1e-05
0.0564614 0.000136661 1e-05
0.0569156 0.000121513 1e-05
0.0573698 0.000106143 1e-05
0.0578241 9.05503e-05 1e-05
0.0582784 7.47316e-05 1e-05
0.0587022 5.97852e-05 1e-05
0.059126 4.46038e-05 1e-05
0.0595499 2.92118e-05 1e-05
0.0599737 1.36085e-05 1e-05
0.0603384 0 1e-05
0.0603857 -1.78628e-06 1e-05
0.060433 -3.57515e-06 1e-05
0.0604803 -5.36661e-06 1e-05
0.0605276 -7.16067e-06 1e-05
0.060575 -8.95736e-06 1e-05
0.0610394 -2.66139e-05 1e-05
0.0615038 -4.45399e-05 1e-05
0.0619683 -6.27328e-05 1e-05
0.0624327 -8.11934e-05 1e-05
0.0628972 -9.99267e-05 1e-05
0.0633668 -0.000119103 1e-05
0.0638364 -0.000138603 1e-05
0.064306 -0.000158395 1e-05
0.0647756 -0.00017848 1e-05
0.0652453 -0.000198865 1e-05
0.0657202 -0.000219707 1e-05
0.0661951 -0.000240919 1e-05
0.0666699 -0.000262453 1e-05
0.0671447 -0.000284307 1e-05
0.0676197 -0.000306465 1e-05
0.0680998 -0.000329124 1e-05
0.06858 -0.000352173 1e-05
0.0690601 -0.000375598 1e-05
0.0695402 -0.000399369 1e-05
0.0700205 -0.000423445 1e-05
0.070506 -0.000448076 1e-05
0.0709916 -0.000473118 1e-05
0.071477 -0.000498572 1e-05
0.0719625 -0.000524392 1e-05
0.0724481 -0.000550543 1e-05
0.0729391 -0.000577306 1e-05
0.07343 -0.000604502 1e-05
0.0739209 -0.000632133 1e-05
0.0744118 -0.000660151 1e-05
0.0749029 -0.00068854 1e-05
0.0753993 -0.000717599 1e-05
0.0758957 -0.000747115 1e-05
0.0763921 -0.000777064 1e-05
0.0768884 -0.000807426 1e-05
0.077385 -0.00083822 1e-05
0.0778869 -0.000869745 1e-05
0.0783889 -0.000901743 1e-05
0.0788908 -0.000934183 1e-05
0.0793927 -0.000967068 1e-05
0.0798948 -0.00100042 1e-05
0.0799629 -0.001005 1e-05
0.080031 -0.0010096 1e-05
0.0800991 -0.0010142 1e-05
0.0801672 -0.00101881 1e-05
0.080234 -0.00102334 1e-05
0.0806737 -0.00105322 1e-05
0.0811134 -0.00108344 1e-05
0.0815531 -0.00111402 1e-05
0.0819927 -0.00114494 1e-05
0.0824326 -0.00117624 1e-05
0.0829458 -0.00121313 1e-05
0.083459 -0.00125055 1e-05
0.0839722 -0.00128847 1e-05
0.0844853 -0.00132689 1e-05
0.0849987 -0.00136581 1e-05
0.0855177 -0.0014056 1e-05
0.0860366 -0.00144595 1e-05
0.0865555 -0.00148687 1e-05
0.0870743 -0.00152831 1e-05
0.0875935 -0.00157025 1e-05
0.0881183 -0.00161312 1e-05
0.088643 -0.00165659 1e-05
0.0891676 -0.00170066 1e-05
0.0896922 -0.00174527 1e-05
0.0902172 -0.00179043 1e-05
0.0907478 -0.00183659 1e-05
0.0912784 -0.00188337 1e-05
0.0918089 -0.00193074 1e-05
0.0923393 -0.00197868 1e-05
0.0928702 -0.00202725 1e-05
0.0931108 -0.00204951 1e-05
0.0933514 -0.00207191 1e-05
0.093592 -0.00209443 1e-05
0.0938326 -0.00211707 1e-05
0.09406 -0.00213858 1e-05
0.0943586 -0.00216697 1e-05
0.0946571 -0.00219555 1e-05
0.0949556 -0.00222431 1e-05
0.0952542 -0.00225326 1e-05
0.0955528 -0.00228241 1e-05
0.0960954 -0.00233567 1e-05
0.0966378 -0.00238958 1e-05
0.0971802 -0.00244411 1e-05
0.0977225 -0.00249927 1e-05
0.0982654 -0.00255511 1e-05
0.098814 -0.0026121 1e-05
0.0993624 -0.0026698 1e-05
0.0999109 -0.00272819 1e-05
0.100459 -0.00278724 1e-05
0.101008 -0.00284696 1e-05
0.101563 -0.00290792 1e-05
0.102117 -0.00296961 1e-05
0.102672 -0.00303202 1e-05
0.103226 -0.0030951 1e-05
0.103782 -0.00315895 1e-05
0.104117 -0.00319795 1e-05
0.104453 -0.00323723 1e-05
0.104789 -0.00327676 1e-05
0.105124 -0.00331655 1e-05
0.105438 -0.00335397 1e-05
0.105667 -0.00338154 1e-05
0.105897 -0.00340923 1e-05
0.106127 -0.00343703 1e-05
0.106356 -0.00346495 1e-05
0.106586 -0.00349301 1e-05
0.107153 -0.00356254 1e-05
0.10772 -0.00363283 1e-05
0.108287 -0.00370383 1e-05
0.108854 -0.00377557 1e-05
0.109422 -0.00384813 1e-05
0.109995 -0.00392211 1e-05
0.110568 -0.0039969 1e-05
0.111142 -0.00407249 1e-05
0.111715 -0.00414885 1e-05
0.112289 -0.00422604 1e-05
[...]
POINT_DATA 6430
 FIELD attributes 2
p 1 6430 float
-9.87065 -9.87103 -9.87141 -9.87179 -9.87218 -9.87256 -9.87628 -9.88047 -9.8847 -9.88897 -9.89373 -9.89737 -9.90149 -9.90567 -9.90992 -9.91467 -9.91827 -9.92235 -9.92652 -9.93077 -9.93551 -9.93911 -9.94318 -9.94736 -9.95164 -9.95639 -9.96002 -9.96412 -9.96833 -9.97267 -9.97745 -9.98116 -9.9853 -9.98959 -9.99401 -9.99885 -10.0027 -10.0069 -10.0113 -10.0158 -10.0208 -10.0247 -10.0291 -10.0337 -10.0384 -10.0434 -10.0476 -10.0522 -10.0569 -10.0618 -10.0671 -10.0715 -10.0763 -10.0813 -10.0866 -10.0921 -10.0969 -10.102 -10.1074 -10.1129 -10.1187 -10.1239 -10.1297 -10.1358 -10.1421 -10.1488 -10.1554 -10.1617 -10.1679 -10.1742 -10.1807 -10.1907 -10.2011 -10.2115 -10.2215 -10.2308 -10.2476 -10.2558 -10.2583 -10.2562 -10.2472 -10.254 -10.2558 -10.2545 -10.2513 -10.2449 -10.2625 -10.2737 -10.2813 -10.2838 -10.277 -10.2916 -10.2996 -10.3043 -10.3049 -10.2968 -10.3032 -10.306 -10.3073 -10.3068 -10.3016 -10.303 -10.3037 -10.3042 -10.3043 -10.3031 -10.3014 -10.3013 -10.3014 -10.3018 -10.3033 -10.2992 -10.2985 -10.2982 -10.2982 -10.3014 -10.2958 -10.2951 -10.2945 -10.294 -10.2981 -10.2925 -10.2919 -10.2913 -10.2908 -10.2948 -10.2901 -10.2899 -10.2896 -10.2893 -10.2927 -10.2897 -10.2899 -10.2902 -10.2904 -10.2933 -10.2921 -10.2931 -10.2941 -10.2951 -10.2976 -10.2983 -10.3002 -10.3022 -10.3041 -10.3066 -10.3088 -10.3115 -10.3141 -10.3167 -10.3192 -10.3196 -10.3199 -10.3203 -10.3207 -10.321 -10.3251 -10.3291 -10.3332 -10.3372 -10.3413 -10.3463 -10.3514 -10.3566 -10.3617 -10.3671 -10.3729 -10.3791 -10.3853 -10.3915 -10.3981 -10.4047 -10.4118 -10.4189 -10.426 -10.4337 -10.4409 -10.4487 -10.4566 -10.4645 -10.4731 -10.4809 -10.4892 -10.4975 -10.5061 -10.5152 -10.5235 -10.532 -10.5407 -10.5497 -10.559 -10.5675 -10.5762 -10.5849 -10.5941 -10.6033 -10.6119 -10.6205 -10.6291 -10.638 -10.647 -10.6553 -10.6637 -10.6721 -10.6805 -10.689 -10.6969 -10.7049 -10.7128 -10.7205 -10.7283 -10.7356 -10.7429 -10.7501 -10.757 -10.7639 -10.7703 -10.7767 -10.783 -10.789 -10.7949 -10.8003 -10.8055 -10.8106 -10.8158 -10.8204 -10.8246 -10.8284 -10.8323 -10.8361 -10.8397 -10.8421 -10.8443 -10.8465 -10.8488 -10.8507 -10.8509 -10.8512 -10.8514 -10.8517 -10.8519 -10.8527 -10.8535 -10.8543 -10.8551 -10.8557 -10.8551 -10.8541 -10.8532 -10.8522 -10.8508 -10.8487 -10.8459 -10.843 -10.84 -10.8366 -10.8325 -10.8281 -10.8232 -10.8178 -10.8123 -10.8061 -10.7998 -10.7928 -10.785 -10.7773 -10.7688 -10.7603 -10.751 -10.741 -10.7309 -10.72 -10.7086 -10.6969 -10.6851 -10.6726 -10.659 -10.6446 -10.6303 -10.616 -10.6017 -10.5995 -10.5972 -10.5949 -10.5927 -10.5904 -10.576 -10.5616 -10.5472 -10.5328 -10.5175 -10.4991 -10.4798 -10.4605 -10.4407 -10.4199 -10.3989 -10.3778 -10.3557 -10.3321 -10.3085 -10.2847 -10.261 -10.2358 -10.2095 -10.183 -10.1565 -10.1287 -10.1004 -10.0722 -10.0433 -10.0301 -10.0161 -10.0022 -9.9882 -9.97501 -9.95794 -9.94089 -9.92385 -9.90681 -9.88884 -9.8561 -9.82259 -9.78911 -9.7549 -9.7195 -9.68416 -9.64886 -9.61218 -9.57401 -9.53582 -9.49768 -9.45893 -9.41892 -9.37886 -9.33796 -9.31349 -9.28797 -9.2624 -9.23683 -9.21295 -9.19567 -9.1784 -9.16113 -9.14385 -9.12573 -9.08149 -9.03665 -8.99185 -8.94614 -8.89931 -8.85275 -8.80623 -8.75835 -8.70919 -8.65997 -8.61099 -8.56079 -8.51005 -8.45933 -8.40837 -8.40217 -8.3958 -8.38939 -8.38298 -8.37665 -8.33049 -8.28434 -8.23823 -8.19191 -8.14411 -8.09019 -8.03625 -7.98154 -7.92544 -7.86924 -7.81346 -7.75711 -7.69985 -7.64261 -7.58498 -7.56929 -7.55335 -7.5373 -7.52125 -7.50561 -7.46302 -7.42045 -7.3779 -7.33512 -7.29142 -7.23198 -7.17251 -7.11265 -7.0517 -6.99062 -6.93008 -6.86912 -6.80758 -6.74606 -6.68433 -6.67348 -6.66254 -6.65154 -6.64055 -6.62973 -6.57853 -6.52735 -6.47619 -6.42481 -6.37276 -6.31025 -6.24777 -6.18503 -6.12185 -6.05851 -6.00011 -5.94147 -5.88269 -5.82394 -5.76925 -5.76405 -5.75885 -5.75364 -5.74842 -5.74317 -5.68004 -5.61696 -5.5539 -5.4907 -5.42714 -5.36435 -5.30158 -5.23876 -5.17612 -5.11335 -5.0784 -5.04352 -5.00868 -4.97385 -4.94025 -4.91272 -4.88518 -4.85765 -4.83012 -4.80255 -4.74096 -4.67961 -4.61836 -4.55734 -4.49617 -4.43585 -4.37571 -4.31588 -4.25605 -4.1963 -4.1865 -4.17677 -4.16709 -4.1574 -4.14779 -4.09873 -4.04968 -4.00063 -3.95171 -3.90299 -3.84555 -3.78812 -3.73125 -3.6749 -3.61848 -3.57254 -3.52703 -3.48177 -3.43652 -3.39175 -3.38211 -3.37247 -3.36283 -3.35322 -3.34367 -3.29029 -3.23709 -3.18389 -3.13105 -3.07857 -3.02729 -2.97601 -2.92538 -2.87527 -2.82529 -2.79154 -2.75824 -2.72511 -2.69198 -2.65784 -2.643 -2.62816 -2.61332 -2.59845 -2.58348 -2.53751 -2.49139 -2.44527 -2.39894 -2.35261 -2.30929 -2.26596 -2.22241 -2.17864 -2.13503 -2.09428 -2.0534 -2.0125 -1.9716 -1.93087 -1.92521 -1.91955 -1.91389 -1.90822 -1.90244 -1.86952 -1.83662 -1.80373 -1.77085 -1.73543 -1.70174 -1.66638 -1.63046 -1.59241 -1.55368 -1.52255 -1.49144 -1.45792 -1.42194 -1.38615 -1.35747 -1.32801 -1.29693 -1.26521 -1.23223 -1.20577 -1.17723 -1.14873 -1.12027 -1.09124 -1.0813 -1.07085 -1.06039 -1.04995 -1.03853 -1.02302 -1.00753 -0.992048 -0.976582 -0.961281 -0.937426 -0.91348 -0.889569 -0.865693 -0.84215 -0.820672 -0.798896 -0.777119 -0.755446 -0.733968 -0.714526 -0.694973 -0.675174 -0.655509 -0.635916 -0.618348 -0.600812 -0.582927 -0.565049 -0.547204 -0.531357 -0.515538 -0.49956 -0.483307 -0.46708 -0.45281 -0.438565 -0.424326 -0.409573 -0.394839 -0.382014 -0.369198 -0.356362 -0.34318 -0.329824 -0.318323 -0.306797 -0.295249 -0.283522 -0.271439 -0.261153 -0.2508 -0.240437 -0.230052 -0.219147 -0.209976 -0.200701 -0.191435 -0.182177 -0.172479 -0.164316 -0.156066 -0.147823 -0.139586 -0.131043 -0.123824 -0.116538 -0.109258 -0.101983 -0.094522 -0.0882084 -0.0818567 -0.07551 -0.0691682 -0.0627493 -0.058156 -0.0535429 -0.0489327 -0.0443255 -0.0390337 -0.0383355 -0.0376373 -0.0369392 -0.0362412 -0.0356301 -0.0311085 -0.0266728 -0.0222404 -0.0178115 -0.0141259 -0.00992581 -0.00634725 -0.00277112 0.000802629 0.00316789 0.006179 0.00763274 0.00908507 0.010536 0.00960634 0.0120224 0.0147516 0.0174816 0.0202125 0.0228256 0.0253801 0.0214542 0.0175332 0.0136171 0.00313582
-9.86378 -9.86412 -9.86446 -9.8648 -9.86514 -9.86548 -9.86955 -9.87365 -9.87778 -9.88191 -9.88606 -9.89012 -9.89419 -9.89828 -9.90236 -9.90644 -9.9105 -9.91456 -9.91863 -9.92268 -9.92672 -9.93079 -9.93486 -9.93893 -9.94297 -9.94699 -9.95109 -9.95518 -9.95928 -9.96333 -9.96736 -9.97151 -9.97565 -9.97979 -9.98388 -9.98794 -9.99215 -9.99637 -10.0006 -10.0047 -10.0088 -10.0131 -10.0174 -10.0218 -10.026 -10.0302 -10.0346 -10.039 -10.0435 -10.0478 -10.0521 -10.0566 -10.0612 -10.0658 -10.0703 -10.0747 -10.0794 -10.0841 -10.0889 -10.0935 -10.0981 -10.1029 -10.1077 -10.1127 -10.1175 -10.1222 -10.1272 -10.1321 -10.1372 -10.1419 -10.1465 -10.1513 -10.1562 -10.1615 -10.1668 -10.172 -10.1771 -10.1821 -10.1868 -10.1909 -10.1948 -10.1986 -10.2022 -10.2051 -10.2077 -10.2101 -10.2126 -10.2152 -10.2179 -10.2206 -10.2234 -10.226 -10.2285 -10.2312 -10.2336 -10.236 -10.2375 -10.2391 -10.2407 -10.2423 -10.2439 -10.2441 -10.2444 -10.2451 -10.2463 -10.2477 -10.2472 -10.2469 -10.2472 -10.2481 -10.2494 -10.2487 -10.2482 -10.2482 -10.2488 -10.2497 -10.249 -10.2484 -10.2481 -10.2485 -10.2492 -10.2485 -10.2479 -10.2477 -10.2479 -10.2484 -10.248 -10.2477 -10.2477 -10.248 -10.2486 -10.2486 -10.2487 -10.2491 -10.2497 -10.2506 -10.2511 -10.2518 -10.2527 -10.2538 -10.2552 -10.2564 -10.2577 -10.2593 -10.2611 -10.2632 -10.265 -10.2672 -10.2696 -10.2722 -10.275 -10.2776 -10.2806 -10.2839 -10.2873 -10.2909 -10.2944 -10.2983 -10.3024 -10.3066 -10.3111 -10.3154 -10.3201 -10.325 -10.33 -10.3352 -10.3403 -10.3459 -10.3515 -10.3572 -10.363 -10.3689 -10.3751 -10.3813 -10.3876 -10.3939 -10.4003 -10.407 -10.4137 -10.4205 -10.427 -10.4339 -10.4409 -10.4479 -10.4549 -10.4616 -10.4687 -10.4758 -10.4829 -10.49 -10.4967 -10.5037 -10.5107 -10.5177 -10.5247 -10.5312 -10.5381 -10.5448 -10.5515 -10.5582 -10.5644 -10.5708 -10.577 -10.5832 -10.5894 -10.5952 -10.6009 -10.6064 -10.6119 -10.6174 -10.6227 -10.6274 -10.6321 -10.6368 -10.6414 -10.6461 -10.6465 -10.6469 -10.6473 -10.6477 -10.6481 -10.6514 -10.6547 -10.6579 -10.6612 -10.6645 -10.6671 -10.6696 -10.6721 -10.6747 -10.6771 -10.6787 -10.6798 -10.681 -10.6822 -10.6831 -10.6835 -10.6832 -10.6829 -10.6826 -10.6816 -10.6807 -10.679 -10.6771 -10.6748 -10.672 -10.6695 -10.6665 -10.6629 -10.6583 -10.6535 -10.6492 -10.6448 -10.6392 -10.6323 -10.6254 -10.6191 -10.6129 -10.6053 -10.5962 -10.5871 -10.5788 -10.5702 -10.5603 -10.5494 -10.5381 -10.5275 -10.5158 -10.5035 -10.4913 -10.4776 -10.4643 -10.4496 -10.4349 -10.4202 -10.4053 -10.4012 -10.3968 -10.3924 -10.388 -10.3838 -10.3712 -10.3588 -10.3463 -10.3338 -10.3204 -10.302 -10.2827 -10.2635 -10.2439 -10.2226 -10.2021 -10.1812 -10.1594 -10.1357 -10.1118 -10.0887 -10.0655 -10.0406 -10.0142 -9.98771 -9.96186 -9.93488 -9.90696 -9.87906 -9.85007 -9.83119 -9.81108 -9.79097 -9.77088 -9.75232 -9.74174 -9.73116 -9.72058 -9.71 -9.69871 -9.66665 -9.63402 -9.60143 -9.5682 -9.5335 -9.49924 -9.46501 -9.4293 -9.39199 -9.35467 -9.31775 -9.28006 -9.24109 -9.20214 -9.16234 -9.14419 -9.12523 -9.10615 -9.08708 -9.06889 -9.0467 -9.02452 -9.00235 -8.98005 -8.95709 -8.9143 -8.87122 -8.82806 -8.78373 -8.73917 -8.69399 -8.64869 -8.60219 -8.55563 -8.50879 -8.48681 -8.46442 -8.44185 -8.41929 -8.39766 -8.37144 -8.34522 -8.31901 -8.29272 -8.26592 -8.21546 -8.1649 -8.11434 -8.06301 -8.01143 -7.95902 -7.90663 -7.85336 -7.80006 -7.74671 -7.71285 -7.67863 -7.6443 -7.60997 -7.57719 -7.5564 -7.53561 -7.51483 -7.49396 -7.47276 -7.41665 -7.36055 -7.30446 -7.24776 -7.19072 -7.1333 -7.0759 -7.01781 -6.95973 -6.90165 -6.86677 -6.83166 -6.79645 -6.76125 -6.72737 -6.70331 -6.67925 -6.6552 -6.63109 -6.60677 -6.54685 -6.4872 -6.42756 -6.36762 -6.30754 -6.24711 -6.18668 -6.12608 -6.06559 -6.0053 -5.97736 -5.94942 -5.92149 -5.89356 -5.86627 -5.83334 -5.80041 -5.76748 -5.73454 -5.70157 -5.6404 -5.57953 -5.51889 -5.45842 -5.3979 -5.33709 -5.2764 -5.21599 -5.15558 -5.09563 -5.07846 -5.06141 -5.04441 -5.02742 -5.0106 -4.96766 -4.92472 -4.88178 -4.83895 -4.79637 -4.73662 -4.67696 -4.61809 -4.55981 -4.50149 -4.44292 -4.38482 -4.32718 -4.26954 -4.21216 -4.20469 -4.19733 -4.19 -4.18268 -4.17538 -4.12607 -4.07676 -4.02745 -3.97837 -3.92993 -3.87405 -3.81816 -3.7634 -3.70956 -3.65572 -3.60167 -3.54846 -3.49572 -3.44298 -3.39039 -3.38709 -3.38386 -3.38065 -3.37745 -3.37424 -3.32613 -3.27802 -3.22991 -3.18206 -3.1352 -3.08507 -3.03494 -2.98606 -2.93831 -2.89056 -2.84269 -2.79567 -2.74929 -2.7029 -2.65694 -2.649 -2.64127 -2.63361 -2.62594 -2.61824 -2.58133 -2.54441 -2.5075 -2.47075 -2.43504 -2.39179 -2.3488 -2.30661 -2.26577 -2.22496 -2.18413 -2.14361 -2.10427 -2.06514 -2.02677 -2.00346 -1.98094 -1.95853 -1.93612 -1.91304 -1.89844 -1.88385 -1.86925 -1.85467 -1.84061 -1.80492 -1.76982 -1.73472 -1.7002 -1.6665 -1.63293 -1.59937 -1.56689 -1.53549 -1.50413 -1.47289 -1.44219 -1.41225 -1.38231 -1.3532 -1.33475 -1.31707 -1.29938 -1.2817 -1.26307 -1.25306 -1.24305 -1.23304 -1.22303 -1.21337 -1.18702 -1.16099 -1.13497 -1.10914 -1.08421 -1.0596 -1.03514 -1.01115 -0.988163 -0.965204 -0.942558 -0.919916 -0.898063 -0.876932 -0.85583 -0.835033 -0.814771 -0.794857 -0.774948 -0.755538 -0.739578 -0.724138 -0.708701 -0.693268 -0.676302 -0.673783 -0.671263 -0.668744 -0.666224 -0.663764 -0.646848 -0.629978 -0.613115 -0.59626 -0.579868 -0.564196 -0.548804 -0.53342 -0.518245 -0.50343 -0.489168 -0.474956 -0.460944 -0.447425 -0.433933 -0.420982 -0.408035 -0.395433 -0.383157 -0.370895 -0.359161 -0.347474 -0.336166 -0.324988 -0.313868 -0.303266 -0.292911 -0.282701 -0.272506 -0.262451 -0.252954 -0.243769 -0.234588 -0.22541 -0.216294 -0.209509 -0.202853 -0.196199 -0.189547 -0.182224 -0.180788 -0.179352 -0.177917 -0.176481 -0.175047 -0.167709 -0.160358 -0.15301 -0.145666 -0.138341 -0.131995 -0.125508 -0.119024 -0.112543 -0.106069 -0.10064 -0.0950721 -0.0895022 -0.0839813 -0.0786056 -0.07425 -0.0695249 -0.0644838 -0.0592523 -0.0539011 -0.0495097 -0.0452275 -0.0417118 -0.0398105 -0.0379716 -0.0369874 -0.0360031 -0.0292054 -0.0169959 -0.00478667 0.00709504 0.0189769 0.0198409 0.00992066 0
-9.85865 -9.85896 -9.85928 -9.85959 -9.85991 -9.86022 -9.86418 -9.86814 -9.8721 -9.87606 -9.87998 -9.8839 -9.88781 -9.89173 -9.89564 -9.89952 -9.90341 -9.90729 -9.91118 -9.91507 -9.91891 -9.92278 -9.92665 -9.93052 -9.93439 -9.93821 -9.94207 -9.94594 -9.9498 -9.95367 -9.95748 -9.96135 -9.96522 -9.96909 -9.97296 -9.97678 -9.98065 -9.98454 -9.98842 -9.99231 -9.99613 -10 -10.0039 -10.0078 -10.0117 -10.0156 -10.0195 -10.0234 -10.0273 -10.0312 -10.0351 -10.039 -10.0429 -10.0469 -10.0508 -10.0546 -10.0585 -10.0624 -10.0663 -10.0702 -10.074 -10.0778 -10.0817 -10.0855 -10.0894 -10.0931 -10.0968 -10.1005 -10.1042 -10.1079 -10.1114 -10.1149 -10.1186 -10.1223 -10.126 -10.1297 -10.1334 -10.1371 -10.1409 -10.1446 -10.1483 -10.1518 -10.155 -10.1583 -10.1616 -10.1646 -10.1674 -10.17 -10.1727 -10.1754 -10.1779 -10.1802 -10.1825 -10.1847 -10.187 -10.1891 -10.1911 -10.1929 -10.1947 -10.1965 -10.1981 -10.1996 -10.2009 -10.2022 -10.2035 -10.2047 -10.2058 -10.2067 -10.2076 -10.2086 -10.2095 -10.2103 -10.211 -10.2117 -10.2124 -10.2131 -10.2138 -10.2143 -10.2149 -10.2155 -10.216 -10.2166 -10.2172 -10.2177 -10.2182 -10.2188 -10.2194 -10.22 -10.2207 -10.2213 -10.222 -10.2228 -10.2237 -10.2245 -10.2254 -10.2263 -10.2275 -10.2287 -10.2299 -10.2311 -10.2323 -10.2339 -10.2356 -10.2372 -10.2389 -10.2406 -10.2427 -10.2449 -10.2471 -10.2493 -10.2515 -10.2542 -10.257 -10.2597 -10.2625 -10.2653 -10.2686 -10.2719 -10.2753 -10.2786 -10.282 -10.2858 -10.2897 -10.2937 -10.2976 -10.3015 -10.3058 -10.3103 -10.3147 -10.3191 -10.3235 -10.3283 -10.3331 -10.338 -10.3428 -10.3476 -10.3527 -10.3578 -10.363 -10.3681 -10.3732 -10.3767 -10.3801 -10.3836 -10.3871 -10.3901 -10.392 -10.3939 -10.3958 -10.3977 -10.3996 -10.4049 -10.4102 -10.4155 -10.4208 -10.4261 -10.4313 -10.4365 -10.4416 -10.4468 -10.4519 -10.4569 -10.4617 -10.4665 -10.4714 -10.4762 -10.4808 -10.4851 -10.4895 -10.4938 -10.4982 -10.5022 -10.5059 -10.5096 -10.5133 -10.517 -10.5204 -10.5233 -10.5262 -10.5291 -10.5318 -10.5345 -10.5364 -10.5384 -10.5403 -10.542 -10.5437 -10.5447 -10.5455 -10.5463 -10.5468 -10.5473 -10.5472 -10.5468 -10.5462 -10.5454 -10.5446 -10.5434 -10.5416 -10.5395 -10.5372 -10.5349 -10.5325 -10.5292 -10.5253 -10.5214 -10.5175 -10.5136 -10.5087 -10.503 -10.4974 -10.4918 -10.4861 -10.4796 -10.4721 -10.4646 -10.4571 -10.4496 -10.4412 -10.4318 -10.4223 -10.4129 -10.4031 -10.3926 -10.3816 -10.37 -10.3585 -10.3461 -10.3335 -10.3208 -10.3071 -10.2932 -10.2783 -10.2634 -10.2485 -10.2332 -10.223 -10.2124 -10.2018 -10.1912 -10.1815 -10.1748 -10.1682 -10.1615 -10.1548 -10.1478 -10.1289 -10.1096 -10.0903 -10.0711 -10.0506 -10.0301 -10.0084 -9.98676 -9.96448 -9.94109 -9.91815 -9.89501 -9.8709 -9.845 -9.8191 -9.79366 -9.76824 -9.74127 -9.71284 -9.68443 -9.65648 -9.62785 -9.59801 -9.56786 -9.53693 -9.50629 -9.47388 -9.4415 -9.40914 -9.37657 -9.371 -9.36517 -9.35934 -9.35351 -9.34777 -9.31911 -9.29048 -9.26185 -9.23325 -9.20319 -9.16736 -9.1306 -9.09381 -9.05587 -9.017 -8.97873 -8.94047 -8.90075 -8.85952 -8.81828 -8.77763 -8.73621 -8.69355 -8.65084 -8.60735 -8.57923 -8.54982 -8.52041 -8.49102 -8.46316 -8.44757 -8.43198 -8.4164 -8.40079 -8.38452 -8.33847 -8.29204 -8.24563 -8.19844 -8.15017 -8.10231 -8.05446 -8.00546 -7.95534 -7.90522 -7.85547 -7.80466 -7.75329 -7.70193 -7.6504 -7.64191 -7.63321 -7.62447 -7.61573 -7.60708 -7.56323 -7.51938 -7.47555 -7.43147 -7.38648 -7.33272 -7.27896 -7.22474 -7.16965 -7.11453 -7.05947 -7.00386 -6.94779 -6.89173 -6.83563 -6.82935 -6.823 -6.81663 -6.81025 -6.80392 -6.75353 -6.70315 -6.65277 -6.60216 -6.55112 -6.49351 -6.43591 -6.37804 -6.32008 -6.26209 -6.2223 -6.18239 -6.1424 -6.1024 -6.06366 -6.04495 -6.02623 -6.00751 -5.98878 -5.97002 -5.91099 -5.85227 -5.79362 -5.73502 -5.67639 -5.61819 -5.56009 -5.50211 -5.44414 -5.38834 -5.38709 -5.38584 -5.38459 -5.38334 -5.3821 -5.32338 -5.26471 -5.20603 -5.14751 -5.08923 -5.03056 -4.9719 -4.91365 -4.85616 -4.79866 -4.76126 -4.72415 -4.68721 -4.65027 -4.6138 -4.59336 -4.57291 -4.55246 -4.5321 -4.51192 -4.4547 -4.39824 -4.34178 -4.28604 -4.23048 -4.17455 -4.11875 -4.06388 -4.00913 -3.95504 -3.93388 -3.91302 -3.89232 -3.87162 -3.85098 -3.81804 -3.7851 -3.75216 -3.71942 -3.68722 -3.63418 -3.58149 -3.52945 -3.47864 -3.42782 -3.37665 -3.32599 -3.27623 -3.22647 -3.17736 -3.16451 -3.15193 -3.13946 -3.127 -3.11451 -3.07878 -3.04305 -3.00731 -2.97183 -2.93719 -2.88997 -2.84297 -2.79692 -2.7522 -2.7075 -2.66248 -2.61803 -2.57458 -2.53114 -2.48848 -2.47417 -2.46026 -2.44648 -2.4327 -2.41881 -2.391 -2.36319 -2.33538 -2.30773 -2.28098 -2.24047 -2.20053 -2.16098 -2.12288 -2.08493 -2.04673 -2.00862 -1.97199 -1.93582 -1.90015 -1.87453 -1.84987 -1.82535 -1.80084 -1.77559 -1.76574 -1.75589 -1.74605 -1.73622 -1.7268 -1.69367 -1.661 -1.62833 -1.59617 -1.56501 -1.53368 -1.50234 -1.47216 -1.44311 -1.41409 -1.38491 -1.35629 -1.3285 -1.30071 -1.27372 -1.25799 -1.24302 -1.22805 -1.21309 -1.19757 -1.1867 -1.17583 -1.16496 -1.1541 -1.14372 -1.11904 -1.09479 -1.07056 -1.04669 -1.02369 -1.00063 -0.977561 -0.955376 -0.934138 -0.912918 -0.89164 -0.870454 -0.850265 -0.830456 -0.810906 -0.791314 -0.772681 -0.754109 -0.73554 -0.717165 -0.712684 -0.708402 -0.704121 -0.69984 -0.69547 -0.682537 -0.669608 -0.656681 -0.643758 -0.631359 -0.615114 -0.59926 -0.583411 -0.56784 -0.552849 -0.537903 -0.523016 -0.508547 -0.494822 -0.481108 -0.46745 -0.453795 -0.44075 -0.428214 -0.415687 -0.403226 -0.391078 -0.379298 -0.367586 -0.356163 -0.344897 -0.334182 -0.323469 -0.312759 -0.302144 -0.298806 -0.295594 -0.292383 -0.289171 -0.285864 -0.279304 -0.272746 -0.266189 -0.259633 -0.253294 -0.244291 -0.235399 -0.22651 -0.217624 -0.209234 -0.201031 -0.192968 -0.184953 -0.177196 -0.169678 -0.162333 -0.154996 -0.147793 -0.140985 -0.134181 -0.12755 -0.120919 -0.114682 -0.108774 -0.10287 -0.0971348 -0.0913939 -0.0855984 -0.0795645 -0.0734445 -0.0674589 -0.0625854 -0.0583976 -0.0543156 -0.0511736 -0.0475257 -0.0391101 -0.0306975 -0.022288 -0.0117684 -0.00630095 -0.00533813 -0.00437333 -0.00340655 -0.00241089 -0.00169549 -0.000980253 -0.000265196 0.000449685 0