/*--------------------------------*- C++ -*----------------------------------*\
| =========                 |                                                 |
| \\      /  F ield         | OpenFOAM: The Open Source CFD Toolbox           |
|  \\    /   O peration     | Version:  4.1                                   |
|   \\  /    A nd           | Web:      www.OpenFOAM.org                      |
|    \\/     M anipulation  |                                                 |
\*---------------------------------------------------------------------------*/
FoamFile
{
    version     2.0;
    format      ascii;
    class       volScalarField;
    location    "4";
    object      p;
}
// * * * * * * * * * * * * * * * * * * * * * * * * * * * * * * * * * * * * * //

dimensions      [0 2 -2 0 0 0 0];

internalField   nonuniform List<scalar> 
26785
(
0.0794475
0.0749142
0.0704834
0.0663405
0.0625322
0.0590722
0.0559121
0.0530223
0.0503574
0.0478886
0.0455932
0.0434433
0.0414258
0.0395183
0.0377127
0.0359936
0.034353
0.0327793
0.0312712
0.0298213
0.0284398
0.0271211
0.0258784
0.0247034
0.0236073
0.0225834
0.0216389
0.0207671
0.0199695
0.0192358
0.0185624
0.0179399
0.0173635
0.0168251
0.0163204
0.0158432
0.0153903
0.0149599
0.0145505
0.0141621
0.013794
0.0134435
0.0131063
0.0127789
0.0124568
0.0121376
0.0118213
0.0115084
0.0111996
0.0108955
0.0105951
0.010298
0.0100046
0.00971534
0.0094312
0.00915294
0.00888122
0.00861697
0.00836078
0.00811276
0.00787331
0.00764343
0.00742469
0.00721904
0.00702793
0.00685186
0.00669088
0.00654477
0.00641349
0.00629705
0.00619494
0.00610575
0.0060268
0.00595245
0.00587522
0.00578944
0.00569013
0.00557523
0.00544431
0.00529792
0.00513703
0.00496276
0.00477619
0.00457812
0.00436892
0.0041486
0.00391708
0.00367462
0.00342193
0.00315994
0.00288953
0.00261139
0.00232605
0.00203437
0.00173763
0.00143714
0.00112989
0.000815779
0.000494954
0.000167285
0.0794489
0.0749132
0.070481
0.0663377
0.0625294
0.05907
0.0559104
0.0530211
0.0503568
0.0478884
0.0455935
0.0434439
0.0414268
0.0395197
0.0377143
0.0359955
0.034355
0.0327814
0.0312733
0.0298234
0.0284418
0.027123
0.0258803
0.0247053
0.0236092
0.0225852
0.0216409
0.0207693
0.0199719
0.0192384
0.0185653
0.017943
0.0173668
0.0168286
0.0163241
0.0158471
0.0153944
0.0149639
0.0145546
0.0141662
0.013798
0.0134475
0.0131105
0.0127833
0.0124616
0.0121426
0.0118264
0.0115133
0.0112045
0.0109003
0.0106
0.0103032
0.0100099
0.00972067
0.00943634
0.00915776
0.00888567
0.00862109
0.00836464
0.00811639
0.00787672
0.00764663
0.00742768
0.00722178
0.00703035
0.00685398
0.00669274
0.00654652
0.00641521
0.00629864
0.00619627
0.00610672
0.00602738
0.00595281
0.00587525
0.00578927
0.00568978
0.00557473
0.00544376
0.00529739
0.00513656
0.00496238
0.00477595
0.00457806
0.00436901
0.00414876
0.00391731
0.00367492
0.00342227
0.00316033
0.00289
0.0026119
0.00232657
0.00203488
0.00173809
0.00143742
0.00113
0.000815835
0.000494937
0.000167243
0.079451
0.0749112
0.0704763
0.0663322
0.0625241
0.0590656
0.055907
0.0530187
0.0503555
0.0478881
0.0455941
0.0434455
0.041429
0.0395226
0.0377177
0.0359992
0.034359
0.0327855
0.0312775
0.0298275
0.0284459
0.027127
0.0258843
0.0247091
0.0236131
0.0225891
0.0216451
0.0207737
0.0199767
0.0192437
0.018571
0.0179491
0.0173734
0.0168357
0.0163316
0.015855
0.0154027
0.0149723
0.0145629
0.0141744
0.0138059
0.0134553
0.0131186
0.012792
0.0124712
0.0121527
0.0118366
0.0115233
0.0112142
0.01091
0.0106101
0.0103138
0.0100207
0.00973125
0.00944649
0.00916735
0.00889453
0.00862916
0.008372
0.00812322
0.00788317
0.00765279
0.00743348
0.00722699
0.00703489
0.00685796
0.0066964
0.00655004
0.0064186
0.00630177
0.0061989
0.00610866
0.00602853
0.00595339
0.00587508
0.00578864
0.00568883
0.00557363
0.00544266
0.00529641
0.00513578
0.00496185
0.00477567
0.00457803
0.00436921
0.00414913
0.00391775
0.00367541
0.0034228
0.00316084
0.00289047
0.00261237
0.00232702
0.00203524
0.00173843
0.00143774
0.00113019
0.000815908
0.000494936
0.000167184
0.0794538
0.0749083
0.0704694
0.0663239
0.0625161
0.0590589
0.0559019
0.0530153
0.0503536
0.0478877
0.0455952
0.0434478
0.0414324
0.0395269
0.0377227
0.0360047
0.034365
0.0327916
0.0312837
0.0298337
0.028452
0.0271331
0.0258902
0.0247149
0.023619
0.022595
0.0216513
0.0207805
0.0199841
0.0192516
0.0185797
0.0179584
0.0173832
0.0168463
0.0163429
0.0158669
0.0154151
0.014985
0.0145755
0.0141867
0.0138178
0.0134669
0.0131307
0.0128052
0.0124855
0.0121679
0.0118518
0.0115381
0.0112287
0.0109247
0.0106254
0.0103297
0.0100369
0.0097471
0.00946171
0.00918172
0.00890777
0.00864109
0.00838283
0.00813331
0.00789282
0.00766203
0.00744208
0.00723467
0.00704158
0.0068639
0.00670195
0.00655542
0.00642376
0.00630648
0.0062029
0.00611169
0.00603039
0.00595425
0.00587481
0.00578764
0.00568735
0.00557193
0.005441
0.00529495
0.00513462
0.00496105
0.00477526
0.00457797
0.00436943
0.0041496
0.00391842
0.00367616
0.00342356
0.00316153
0.00289103
0.00261283
0.0023275
0.00203573
0.00173892
0.00143812
0.00113057
0.000816176
0.000495019
0.000167143
0.0794574
0.0749043
0.0704601
0.0663129
0.0625055
0.05905
0.0558952
0.0530107
0.0503511
0.0478872
0.0455965
0.0434509
0.0414369
0.0395327
0.0377294
0.0360122
0.0343729
0.0327997
0.0312919
0.0298419
0.0284601
0.0271411
0.0258981
0.0247226
0.0236268
0.022603
0.0216597
0.0207896
0.0199938
0.0192622
0.0185912
0.0179707
0.0173963
0.0168604
0.0163579
0.0158828
0.0154318
0.015002
0.0145924
0.0142033
0.0138336
0.0134823
0.0131468
0.0128227
0.0125046
0.012188
0.011872
0.0115579
0.0112481
0.0109442
0.0106457
0.0103509
0.0100584
0.00976819
0.00948199
0.00920088
0.00892536
0.0086569
0.00839714
0.00814671
0.00790567
0.00767431
0.00745348
0.00724484
0.00705047
0.00687188
0.00670946
0.00656269
0.00643072
0.00631288
0.00620841
0.00611596
0.00603312
0.0059555
0.00587457
0.00578637
0.00568541
0.00556964
0.00543869
0.00529292
0.00513302
0.00495991
0.0047746
0.00457777
0.00436966
0.00415018
0.00391927
0.00367715
0.00342449
0.00316233
0.00289171
0.00261345
0.00232808
0.00203631
0.00173965
0.00143883
0.00113109
0.000816556
0.00049523
0.000167154
0.0794626
0.0748992
0.0704484
0.066299
0.0624923
0.0590389
0.0558867
0.0530049
0.050348
0.0478867
0.0455983
0.0434549
0.0414426
0.03954
0.0377378
0.0360215
0.0343828
0.0328099
0.0313021
0.0298522
0.0284702
0.0271512
0.025908
0.0247324
0.0236366
0.0226131
0.0216702
0.020801
0.020006
0.0192754
0.0186055
0.0179861
0.0174127
0.016878
0.0163768
0.0159027
0.0154528
0.0150234
0.0146136
0.014224
0.0138535
0.0135016
0.0131669
0.0128446
0.0125284
0.0122131
0.0118972
0.0115825
0.0112722
0.0109687
0.0106712
0.0103774
0.0100853
0.00979451
0.00950733
0.00922479
0.00894722
0.0086765
0.00841491
0.0081634
0.00792174
0.00768968
0.00746772
0.00725753
0.00706163
0.00688197
0.00671899
0.00657189
0.00643954
0.00632106
0.0062156
0.00612168
0.00603692
0.0059573
0.00587454
0.00578493
0.00568299
0.00556672
0.00543572
0.00529027
0.00513092
0.00495838
0.00477362
0.00457741
0.00436985
0.00415082
0.0039202
0.00367823
0.00342557
0.00316327
0.00289249
0.00261418
0.00232892
0.00203725
0.00174066
0.00143978
0.00113191
0.000817141
0.000495551
0.00016722
0.0794693
0.0748931
0.0704343
0.0662824
0.0624763
0.0590256
0.0558766
0.0529981
0.0503443
0.0478861
0.0456004
0.0434597
0.0414495
0.0395488
0.0377479
0.0360327
0.0343946
0.032822
0.0313144
0.0298646
0.0284824
0.0271634
0.02592
0.0247441
0.0236485
0.0226252
0.0216828
0.0208145
0.0200207
0.0192912
0.0186226
0.0180045
0.0174323
0.0168991
0.0163994
0.0159267
0.015478
0.0150493
0.0146393
0.0142489
0.0138774
0.0135248
0.0131909
0.0128708
0.0125568
0.0122429
0.0119271
0.0116118
0.0113012
0.010998
0.0107018
0.0104093
0.0101175
0.00982603
0.0095377
0.00925345
0.00897333
0.00869983
0.00843609
0.00818336
0.007941
0.0077081
0.00748475
0.00727275
0.00707511
0.00689423
0.00673059
0.00658311
0.00645033
0.00633116
0.00622459
0.00612901
0.00604201
0.00595989
0.00587487
0.00578338
0.00568007
0.00556309
0.00543202
0.00528696
0.00512822
0.00495636
0.00477232
0.00457678
0.00436984
0.00415135
0.00392113
0.00367936
0.00342671
0.00316433
0.00289348
0.00261522
0.0023301
0.00203853
0.00174211
0.00144115
0.00113308
0.000817978
0.000496026
0.000167358
0.0794771
0.0748858
0.0704177
0.0662628
0.0624577
0.05901
0.0558648
0.0529901
0.05034
0.0478854
0.045603
0.0434653
0.0414575
0.0395591
0.0377598
0.0360457
0.0344084
0.0328363
0.0313287
0.0298791
0.0284967
0.0271776
0.025934
0.024758
0.0236624
0.0226394
0.0216976
0.0208303
0.0200377
0.0193096
0.0186425
0.0180259
0.0174552
0.0169236
0.0164258
0.0159548
0.0155076
0.0150797
0.0146694
0.0142781
0.0139053
0.013552
0.013219
0.0129012
0.0125897
0.0122774
0.0119619
0.011646
0.0113349
0.0110322
0.0107374
0.0104465
0.0101551
0.00986268
0.00957307
0.00928683
0.0090036
0.00872684
0.00846065
0.00820655
0.00796339
0.0077295
0.00750456
0.00729054
0.00709101
0.00690879
0.00674441
0.0065965
0.00646326
0.00634334
0.00623552
0.0061381
0.0060486
0.00596349
0.00587565
0.00578172
0.00567665
0.00555873
0.00542753
0.00528292
0.00512491
0.00495383
0.00477058
0.00457578
0.00436954
0.00415168
0.00392196
0.00368047
0.00342792
0.00316557
0.00289479
0.00261667
0.00233174
0.00204035
0.001744
0.00144292
0.00113455
0.000819032
0.000496661
0.000167565
0.079486
0.0748773
0.0703987
0.0662404
0.0624364
0.0589923
0.0558513
0.0529811
0.0503352
0.0478847
0.0456059
0.0434718
0.0414668
0.0395708
0.0377734
0.0360607
0.0344242
0.0328525
0.0313451
0.0298955
0.028513
0.0271939
0.0259501
0.0247739
0.0236783
0.0226556
0.0217145
0.0208484
0.0200571
0.0193306
0.0186652
0.0180504
0.0174813
0.0169517
0.016456
0.015987
0.0155415
0.0151145
0.0147039
0.0143114
0.0139373
0.0135831
0.013251
0.0129358
0.0126271
0.0123165
0.0120014
0.011685
0.0113734
0.0110712
0.0107781
0.010489
0.010198
0.00990439
0.00961338
0.00932481
0.00903793
0.00875745
0.00848852
0.00823286
0.00798879
0.00775378
0.0075271
0.00731095
0.00710941
0.00692578
0.0067606
0.00661221
0.00647849
0.00635776
0.00624857
0.0061491
0.00605682
0.00596825
0.00587694
0.00577995
0.00567267
0.00555359
0.0054222
0.00527812
0.00512098
0.00495078
0.00476835
0.00457435
0.00436892
0.0041518
0.00392268
0.00368159
0.00342929
0.00316712
0.00289652
0.0026186
0.00233371
0.0020424
0.00174626
0.00144512
0.0011364
0.000820351
0.000497449
0.000167822
0.0794961
0.0748675
0.070377
0.0662151
0.0624124
0.0589722
0.0558361
0.0529709
0.0503298
0.047884
0.0456092
0.0434791
0.0414772
0.0395841
0.0377887
0.0360776
0.034442
0.0328708
0.0313635
0.0299141
0.0285314
0.0272123
0.0259683
0.024792
0.0236963
0.0226739
0.0217335
0.0208686
0.0200789
0.0193542
0.0186908
0.0180778
0.0175106
0.0169831
0.0164899
0.0160234
0.0155797
0.0151537
0.0147428
0.0143491
0.0139734
0.0136183
0.013287
0.0129745
0.0126688
0.0123604
0.0120458
0.0117288
0.0114167
0.0111151
0.0108238
0.0105367
0.0102461
0.009951
0.0096585
0.00936724
0.0090762
0.00879158
0.00851963
0.00826221
0.00801709
0.00778087
0.00755239
0.00733406
0.00713049
0.00694539
0.00677937
0.00663045
0.00649617
0.00637457
0.00626392
0.00616218
0.00606675
0.00597421
0.00587872
0.00577801
0.00566809
0.00554763
0.00541603
0.00527258
0.00511644
0.00494719
0.00476561
0.0045725
0.00436799
0.00415176
0.00392337
0.00368284
0.00343094
0.00316909
0.00289854
0.00262049
0.00233584
0.00204498
0.00174913
0.00144783
0.00113858
0.000821844
0.000498301
0.000168079
0.0795083
0.0748563
0.0703526
0.0661867
0.0623856
0.05895
0.0558193
0.0529597
0.0503239
0.0478832
0.045613
0.0434872
0.0414889
0.0395989
0.0378057
0.0360964
0.0344618
0.0328912
0.031384
0.0299347
0.0285519
0.0272328
0.0259886
0.0248121
0.0237164
0.0226942
0.0217546
0.0208911
0.0201031
0.0193805
0.0187192
0.0181083
0.0175433
0.0170181
0.0165277
0.0160639
0.0156223
0.0151973
0.014786
0.0143909
0.0140137
0.0136575
0.0133271
0.0130173
0.0127149
0.0124089
0.012095
0.0117774
0.0114649
0.0111639
0.0108745
0.0105895
0.0102992
0.0100023
0.00970823
0.00941391
0.00911826
0.00882911
0.00855388
0.00829449
0.00804816
0.0078107
0.00758043
0.00735999
0.00715445
0.00696788
0.00680093
0.00665141
0.00651648
0.00639391
0.00628166
0.00617743
0.00607847
0.0059814
0.00588093
0.00577579
0.00566279
0.00554079
0.00540902
0.00526633
0.00511133
0.00494308
0.00476241
0.00457029
0.00436687
0.00415167
0.00392416
0.00368428
0.00343278
0.003171
0.00290054
0.00262283
0.0023387
0.00204834
0.00175255
0.00145082
0.00114082
0.000823283
0.00049906
0.00016827
0.0795226
0.0748437
0.0703254
0.0661553
0.0623561
0.0589255
0.0558008
0.0529474
0.0503174
0.0478824
0.0456173
0.0434962
0.0415018
0.0396152
0.0378244
0.0361171
0.0344835
0.0329137
0.0314066
0.0299574
0.0285745
0.0272554
0.026011
0.0248343
0.0237384
0.0227166
0.0217778
0.0209157
0.0201298
0.0194095
0.0187505
0.018142
0.0175793
0.0170567
0.0165692
0.0161084
0.015669
0.0152451
0.0148336
0.014437
0.0140581
0.0137009
0.0133712
0.0130643
0.0127655
0.0124621
0.0121493
0.0118311
0.0115179
0.0112176
0.0109302
0.0106473
0.0103571
0.0100582
0.0097623
0.00946458
0.00916395
0.00886996
0.00859119
0.00832962
0.00808194
0.00784323
0.00761131
0.0073889
0.00718151
0.00699348
0.00682552
0.00667525
0.00653955
0.00641587
0.00630184
0.00619486
0.00609198
0.00598977
0.00588353
0.00577328
0.00565673
0.00553301
0.00540112
0.00525938
0.00510571
0.00493845
0.00475872
0.00456771
0.00436555
0.00415155
0.003925
0.00368581
0.00343476
0.00317335
0.00290332
0.00262614
0.0023425
0.00205237
0.00175621
0.00145366
0.00114272
0.000824385
0.000499572
0.000168344
0.0795384
0.0748296
0.0702954
0.0661208
0.0623238
0.0588988
0.0557807
0.0529341
0.0503105
0.0478816
0.045622
0.0435061
0.0415159
0.039633
0.0378449
0.0361398
0.0345074
0.0329383
0.0314314
0.0299823
0.0285993
0.0272802
0.0260355
0.0248587
0.0237625
0.0227409
0.0218031
0.0209426
0.0201589
0.0194413
0.0187848
0.0181788
0.0176187
0.0170988
0.0166144
0.016157
0.0157199
0.0152971
0.0148854
0.0144874
0.0141067
0.0137485
0.0134194
0.0131155
0.0128205
0.0125202
0.0122085
0.0118899
0.011576
0.0112762
0.0109908
0.0107098
0.0104195
0.0101182
0.00982041
0.00951894
0.00921307
0.00891401
0.00863149
0.00836754
0.00811836
0.00787845
0.00764511
0.007421
0.00721191
0.00702245
0.00685334
0.00670211
0.00656544
0.00644047
0.00632444
0.00621439
0.00610712
0.00599913
0.00588639
0.00577042
0.00564997
0.00552438
0.00539243
0.00525184
0.00509968
0.0049334
0.00475459
0.0045648
0.00436407
0.00415145
0.00392604
0.00368773
0.00343741
0.00317665
0.00290726
0.0026306
0.00234714
0.00205669
0.00175956
0.00145583
0.0011439
0.000824952
0.000499781
0.000168295
0.0795563
0.0748138
0.0702623
0.0660832
0.0622887
0.0588699
0.0557589
0.0529197
0.0503031
0.0478809
0.0456273
0.0435169
0.0415313
0.0396523
0.0378671
0.0361643
0.0345332
0.0329651
0.0314583
0.0300093
0.0286263
0.0273072
0.0260621
0.0248851
0.0237885
0.0227672
0.0218304
0.0209717
0.0201904
0.0194758
0.0188222
0.0182188
0.0176616
0.0171445
0.0166634
0.0162094
0.0157748
0.0153531
0.0149414
0.0145421
0.0141596
0.0138003
0.013472
0.013171
0.0128803
0.0125833
0.012273
0.011954
0.0116392
0.0113398
0.011056
0.0107766
0.0104859
0.0101822
0.00988222
0.00957668
0.00926544
0.00896121
0.00867476
0.00840824
0.00815746
0.00791642
0.00768197
0.00745648
0.00724588
0.00705499
0.00688456
0.00673208
0.00659416
0.00646763
0.00634929
0.00623576
0.0061236
0.00600917
0.00588933
0.00576718
0.00564261
0.00551513
0.00538322
0.00524394
0.00509345
0.0049281
0.00475027
0.00456185
0.0043627
0.00415163
0.00392754
0.00369035
0.00344101
0.00318113
0.0029124
0.00263601
0.0023522
0.00206074
0.00176207
0.00145692
0.00114417
0.000825003
0.000499777
0.000168171
0.0795761
0.0747962
0.0702262
0.0660423
0.0622507
0.0588387
0.0557356
0.0529044
0.0502952
0.0478803
0.0456331
0.0435287
0.0415479
0.0396732
0.037891
0.0361909
0.0345611
0.032994
0.0314875
0.0300386
0.0286555
0.0273364
0.0260909
0.0249135
0.0238165
0.0227953
0.0218597
0.0210031
0.0202245
0.0195133
0.0188627
0.0182622
0.0177079
0.0171938
0.016716
0.0162656
0.0158336
0.0154132
0.0150016
0.014601
0.0142168
0.0138565
0.0135289
0.013231
0.0129448
0.0126516
0.0123428
0.0120234
0.0117077
0.0114083
0.0111257
0.0108474
0.010556
0.0102499
0.00994742
0.00963753
0.00932095
0.00901156
0.00872105
0.00845178
0.00819928
0.00795722
0.007722
0.00749552
0.00728361
0.00709123
0.00691925
0.00676517
0.00662561
0.00649717
0.00637614
0.00625861
0.00614093
0.00601949
0.00589219
0.0057636
0.00563491
0.00550564
0.00537389
0.00523606
0.00508728
0.00492284
0.00474611
0.00455922
0.0043618
0.00415237
0.00392974
0.00369382
0.00344561
0.00318665
0.00291844
0.00264191
0.00235711
0.00206396
0.0017634
0.00145691
0.00114374
0.000824793
0.000499759
0.000168049
0.0795991
0.0747762
0.0701868
0.0659981
0.0622099
0.0588053
0.0557106
0.052888
0.0502869
0.0478797
0.0456394
0.0435414
0.0415659
0.0396956
0.0379167
0.0362193
0.0345911
0.033025
0.0315189
0.0300702
0.028687
0.0273677
0.0261217
0.024944
0.0238465
0.0228254
0.0218911
0.0210366
0.0202611
0.0195536
0.0189065
0.0183089
0.0177578
0.0172468
0.0167722
0.0163255
0.0158962
0.0154772
0.015066
0.0146644
0.0142783
0.0139172
0.0135904
0.0132957
0.0130143
0.0127251
0.0124181
0.0120983
0.0117815
0.0114815
0.0111996
0.0109218
0.0106293
0.0103209
0.0100157
0.00970132
0.00937952
0.00906513
0.00877046
0.00849823
0.00824391
0.00800094
0.00776527
0.00753821
0.00732518
0.00713123
0.0069574
0.00680131
0.00665964
0.00652881
0.00640457
0.00628243
0.00615857
0.00602965
0.00589483
0.00575984
0.00562727
0.00549647
0.00536501
0.00522863
0.00508147
0.004918
0.00474253
0.00455731
0.00436163
0.00415383
0.00393265
0.00369803
0.00345094
0.00319281
0.00292487
0.00264773
0.00236137
0.00206608
0.00176368
0.00145623
0.00114311
0.000824727
0.000499936
0.000168004
0.079625
0.0747545
0.0701441
0.0659505
0.0621662
0.0587697
0.0556841
0.0528707
0.0502783
0.0478793
0.0456463
0.0435551
0.0415851
0.0397196
0.0379441
0.0362497
0.0346231
0.0330583
0.0315526
0.0301041
0.0287208
0.0274013
0.0261546
0.0249764
0.0238783
0.0228573
0.0219244
0.0210724
0.0203002
0.0195968
0.0189534
0.0183591
0.0178113
0.0173034
0.0168321
0.016389
0.0159625
0.0155452
0.0151347
0.0147322
0.0143445
0.0139826
0.0136569
0.0133653
0.0130889
0.0128039
0.0124987
0.0121786
0.0118604
0.0115593
0.0112773
0.0109993
0.0107056
0.0103951
0.010087
0.00976797
0.00944121
0.00912207
0.00882317
0.00854772
0.00829145
0.00804765
0.00781181
0.00758454
0.0073706
0.00717495
0.00699891
0.00684034
0.00669601
0.0065622
0.00643411
0.00630667
0.00617597
0.0060393
0.00589727
0.00575621
0.00562021
0.00548824
0.00535719
0.00522211
0.00507632
0.00491389
0.00473985
0.0045563
0.00436226
0.00415591
0.00393604
0.0037026
0.00345654
0.00319908
0.00293113
0.00265302
0.00236483
0.00206732
0.00176351
0.00145576
0.00114296
0.000825022
0.000500425
0.000168092
0.0796534
0.0747307
0.0700978
0.0658995
0.0621196
0.0587318
0.055656
0.0528525
0.0502692
0.0478791
0.0456539
0.0435698
0.0416056
0.0397451
0.0379734
0.0362821
0.0346572
0.0330937
0.0315887
0.0301403
0.028757
0.0274371
0.0261895
0.0250108
0.023912
0.0228911
0.0219597
0.0211104
0.0203418
0.0196428
0.0190035
0.0184126
0.0178682
0.0173636
0.0168956
0.016456
0.0160326
0.0156173
0.0152077
0.0148046
0.0144154
0.0140529
0.0137284
0.0134401
0.0131686
0.012888
0.0125846
0.0122641
0.0119443
0.0116415
0.0113585
0.0110798
0.0107848
0.0104724
0.0101611
0.00983758
0.00950621
0.00918259
0.00887939
0.0086004
0.00834197
0.00809738
0.00786161
0.00763442
0.00741974
0.00722224
0.00704359
0.00688203
0.00673443
0.0065969
0.00646422
0.00633077
0.0061927
0.00604828
0.00589969
0.00575316
0.00561433
0.00548161
0.005351
0.00521688
0.00507205
0.00491072
0.00473815
0.00455614
0.00436347
0.00415829
0.00393949
0.00370708
0.00346192
0.00320501
0.00293692
0.00265774
0.00236783
0.00206862
0.00176432
0.00145603
0.0011432
0.000825872
0.000501511
0.000168391
0.0796849
0.0747043
0.0700479
0.065845
0.0620701
0.0586918
0.0556264
0.0528333
0.0502599
0.047879
0.0456621
0.0435855
0.0416276
0.0397723
0.0380044
0.0363164
0.0346933
0.0331313
0.031627
0.030179
0.0287955
0.0274751
0.0262266
0.0250471
0.0239476
0.0229267
0.0219969
0.0211505
0.0203859
0.0196917
0.0190567
0.0184694
0.0179286
0.0174274
0.0169627
0.0165267
0.0161066
0.0156936
0.0152853
0.0148819
0.0144914
0.0141286
0.0138055
0.0135203
0.0132535
0.0129773
0.0126756
0.0123546
0.0120329
0.0117278
0.0114429
0.0111629
0.0108666
0.0105527
0.0102381
0.00991039
0.0095748
0.00924694
0.0089393
0.00865638
0.0083955
0.00815012
0.00791456
0.00768766
0.00747236
0.00727287
0.00709119
0.00692608
0.00677454
0.00663249
0.00649438
0.0063543
0.00620851
0.00605664
0.00590247
0.00575128
0.00561028
0.00547714
0.00534686
0.00521317
0.00506875
0.00490847
0.00473724
0.00455647
0.0043648
0.00416046
0.00394253
0.00371105
0.00346678
0.00321046
0.00294233
0.00266245
0.00237179
0.00207129
0.00176574
0.00145679
0.00114421
0.000827675
0.000503472
0.000169019
0.0797197
0.0746752
0.0699941
0.0657868
0.0620177
0.0586495
0.0555952
0.0528132
0.0502502
0.0478792
0.0456711
0.0436024
0.0416509
0.0398011
0.0380372
0.0363526
0.0347316
0.0331712
0.0316677
0.0302201
0.0288364
0.0275154
0.0262658
0.0250853
0.023985
0.0229641
0.022036
0.0211927
0.0204325
0.0197433
0.0191128
0.0185294
0.0179924
0.0174948
0.0170336
0.0166012
0.0161845
0.0157742
0.0153676
0.0149643
0.0145729
0.01421
0.0138885
0.013606
0.0133435
0.0130714
0.0127713
0.0124496
0.0121258
0.0118177
0.0115302
0.0112485
0.0109513
0.0106362
0.0103182
0.00998675
0.00964735
0.00931537
0.00900305
0.00871573
0.00845207
0.00820585
0.00797055
0.00774401
0.00752815
0.00732653
0.00714141
0.00697215
0.00681597
0.00666856
0.00652421
0.00637696
0.00622343
0.00606472
0.00590621
0.00575123
0.00560869
0.00547528
0.00534498
0.005211
0.00506634
0.00490686
0.00473667
0.00455674
0.00436572
0.00416198
0.00394483
0.00371435
0.00347117
0.00321586
0.00294847
0.00266865
0.00237676
0.00207449
0.00176796
0.00145871
0.00114652
0.000830712
0.000506457
0.000170141
0.0797594
0.0746423
0.0699362
0.0657249
0.0619623
0.0586051
0.0555626
0.0527923
0.0502402
0.0478796
0.0456808
0.0436204
0.0416756
0.0398316
0.0380719
0.0363907
0.034772
0.0332133
0.0317107
0.0302637
0.0288798
0.027558
0.0263071
0.0251256
0.0240244
0.0230034
0.0220771
0.0212371
0.0204813
0.0197974
0.0191717
0.0185925
0.0180594
0.0175657
0.0171081
0.0166794
0.0162666
0.0158594
0.0154549
0.0150522
0.0146603
0.0142977
0.0139778
0.0136975
0.0134384
0.0131699
0.0128711
0.0125486
0.0122225
0.011911
0.0116203
0.0113367
0.0110389
0.0107231
0.010402
0.0100671
0.00972427
0.00938808
0.00907064
0.00877839
0.00851165
0.00826452
0.00802948
0.00780326
0.00758678
0.00738289
0.00719392
0.00701991
0.00685836
0.00670477
0.00655343
0.00639869
0.00623771
0.00607304
0.00591158
0.00575367
0.00561004
0.00547625
0.00534532
0.00521019
0.00506459
0.00490546
0.00473586
0.00455638
0.00436576
0.00416263
0.00394656
0.0037175
0.00347591
0.00322197
0.00295528
0.00267522
0.00238223
0.00207871
0.00177173
0.0014624
0.00115028
0.0008348
0.000510928
0.000171941
0.0798031
0.0746072
0.0698741
0.0656593
0.0619039
0.0585585
0.0555285
0.0527706
0.05023
0.0478803
0.0456912
0.0436396
0.0417018
0.0398637
0.0381084
0.0364308
0.0348145
0.0332577
0.031756
0.0303097
0.0289255
0.0276029
0.0263506
0.0251679
0.0240657
0.0230447
0.02212
0.0212835
0.0205325
0.0198539
0.0192332
0.0186584
0.0181297
0.01764
0.0171864
0.0167617
0.016353
0.0159495
0.0155475
0.015146
0.0147544
0.0143923
0.0140737
0.0137948
0.013538
0.0132722
0.0129745
0.0126511
0.0123226
0.0120075
0.0117131
0.0114274
0.0111296
0.0108138
0.0104897
0.010152
0.00980588
0.00946516
0.00914189
0.00884399
0.00857424
0.00832636
0.00809135
0.00786528
0.00764798
0.00744162
0.00724845
0.00706905
0.00690138
0.00674089
0.00658199
0.00641968
0.00625185
0.00608229
0.00591925
0.00575913
0.0056146
0.00547996
0.00534755
0.00521037
0.00506315
0.0049038
0.00473433
0.00455513
0.00436519
0.00416301
0.00394799
0.00372034
0.00348049
0.00322815
0.00296245
0.00268255
0.00238904
0.00208453
0.00177784
0.00146791
0.0011549
0.000840614
0.000517229
0.000174458
0.0798504
0.074569
0.0698076
0.0655897
0.0618425
0.0585098
0.0554929
0.052748
0.0502195
0.0478813
0.0457024
0.04366
0.0417296
0.0398977
0.0381468
0.0364728
0.0348591
0.0333044
0.0318038
0.0303581
0.0289736
0.0276501
0.0263962
0.0252122
0.0241089
0.023088
0.022165
0.0213319
0.0205857
0.0199126
0.0192971
0.0187271
0.018203
0.0177178
0.0172685
0.0168481
0.0164439
0.0160446
0.0156458
0.0152461
0.0148555
0.0144943
0.0141764
0.013898
0.0136418
0.0133776
0.0130809
0.0127565
0.0124256
0.0121068
0.0118085
0.0115209
0.0112237
0.0109085
0.010582
0.0102418
0.00989241
0.00954645
0.00921612
0.00891245
0.00863963
0.00839131
0.00815668
0.00793014
0.00771164
0.00750251
0.00730475
0.00711936
0.00694484
0.00677682
0.00661003
0.00644029
0.00626645
0.00609317
0.00592959
0.00576789
0.00562234
0.00548607
0.00535114
0.00521107
0.00506165
0.00490154
0.00473202
0.00455317
0.00436374
0.00416236
0.00394858
0.00372277
0.00348513
0.0032348
0.0029705
0.0026913
0.00239805
0.00209392
0.0017863
0.00147416
0.00116149
0.000848652
0.000525188
0.000177473
0.0799028
0.074527
0.0697365
0.0655162
0.0617781
0.0584589
0.055456
0.0527247
0.0502088
0.0478827
0.0457145
0.0436816
0.0417589
0.0399334
0.0381871
0.0365168
0.0349058
0.0333534
0.0318539
0.0304089
0.0290241
0.0276996
0.0264441
0.0252586
0.0241543
0.0231334
0.022212
0.0213824
0.0206409
0.0199734
0.0193632
0.0187984
0.0182793
0.0177991
0.0173545
0.0169387
0.0165396
0.0161451
0.0157501
0.015353
0.0149642
0.014604
0.0142862
0.0140068
0.0137497
0.0134857
0.0131895
0.0128643
0.0125313
0.0122089
0.0119067
0.0116173
0.0113211
0.0110074
0.0106795
0.0103368
0.00998381
0.00963152
0.00929396
0.00898411
0.00870766
0.00845867
0.0082248
0.00799826
0.00777791
0.0075655
0.00736271
0.00717074
0.00698868
0.00681264
0.00663783
0.00646105
0.00628216
0.00610625
0.00594239
0.00577985
0.00563285
0.00549392
0.00535544
0.00521178
0.00505976
0.00489849
0.00472864
0.00454989
0.00436096
0.00416064
0.00394862
0.00372522
0.00349035
0.00324255
0.00298019
0.00270231
0.00240985
0.00210505
0.00179556
0.00148276
0.0011709
0.000858832
0.000534064
0.000180541
0.0799603
0.0744809
0.0696605
0.0654387
0.0617107
0.0584059
0.0554177
0.0527007
0.050198
0.0478844
0.0457274
0.0437046
0.0417899
0.0399709
0.0382295
0.0365629
0.0349547
0.0334046
0.0319064
0.0304621
0.0290769
0.0277513
0.0264941
0.025307
0.0242017
0.0231809
0.022261
0.0214347
0.0206981
0.020036
0.0194314
0.0188723
0.0183587
0.0178838
0.0174444
0.0170337
0.0166402
0.0162511
0.0158607
0.0154672
0.0150809
0.0147219
0.0144032
0.0141213
0.0138612
0.0135959
0.0132998
0.0129743
0.0126395
0.0123139
0.0120079
0.0117168
0.0114222
0.0111106
0.0107822
0.0104373
0.0100801
0.00972124
0.00937593
0.00905912
0.00877814
0.00852795
0.00829498
0.00806888
0.00784708
0.00763082
0.0074224
0.00722326
0.00703303
0.00684859
0.00666583
0.00648252
0.00629952
0.00612183
0.00595696
0.00579449
0.00564538
0.00550269
0.00535973
0.00521198
0.00505708
0.00489431
0.00472385
0.00454515
0.00435693
0.00415822
0.00394871
0.00372849
0.00349693
0.00325193
0.00299181
0.00271526
0.00242299
0.00211823
0.00180805
0.00149482
0.00118318
0.000870469
0.000542757
0.000183132
0.0800251
0.0744285
0.0695793
0.065357
0.0616403
0.0583509
0.0553781
0.0526759
0.050187
0.0478866
0.0457412
0.0437289
0.0418225
0.0400104
0.0382738
0.036611
0.0350057
0.0334581
0.0319613
0.0305176
0.0291321
0.0278052
0.0265463
0.0253576
0.0242512
0.0232306
0.0223121
0.021489
0.020757
0.0201004
0.0195016
0.0189486
0.0184411
0.0179721
0.0175382
0.0171332
0.0167458
0.0163629
0.015978
0.0155889
0.0152059
0.0148479
0.0145273
0.0142412
0.0139761
0.0137079
0.0134117
0.0130863
0.0127502
0.0124217
0.0121123
0.0118197
0.011527
0.0112181
0.0108901
0.0105434
0.010182
0.00981615
0.00946237
0.0091376
0.00885095
0.00859872
0.00836659
0.00814141
0.00791854
0.00769874
0.00748421
0.00727717
0.00707821
0.00688508
0.00669454
0.00650524
0.00631885
0.0061399
0.00597352
0.00581096
0.00565893
0.00551151
0.00536339
0.00521123
0.00505326
0.00488877
0.00471762
0.00453917
0.00435223
0.00415596
0.0039494
0.00373215
0.00350392
0.00326255
0.00300541
0.00273078
0.00243946
0.0021354
0.00182453
0.00151043
0.00119763
0.000882424
0.000550127
0.000184818
0.0800954
0.0743732
0.0694927
0.0652711
0.0615669
0.0582938
0.0553372
0.0526506
0.050176
0.0478892
0.045756
0.0437546
0.0418568
0.0400518
0.0383202
0.0366612
0.035059
0.0335139
0.0320185
0.0305756
0.0291895
0.0278612
0.0266006
0.0254102
0.0243028
0.0232824
0.0223653
0.0215451
0.0208178
0.0201665
0.0195737
0.0190275
0.0185266
0.0180638
0.0176361
0.0172372
0.0168566
0.0164806
0.0161022
0.0157184
0.0153391
0.014982
0.0146583
0.0143663
0.0140944
0.0138216
0.0135248
0.0132004
0.0128637
0.0125328
0.0122202
0.0119263
0.0116357
0.0113302
0.0110033
0.0106553
0.0102898
0.00991656
0.00955345
0.00921952
0.00892598
0.00867075
0.00843919
0.00821532
0.00799186
0.00776875
0.00754831
0.00733314
0.00712478
0.00692263
0.00672445
0.00652957
0.00634019
0.00616006
0.00599178
0.00582821
0.00567246
0.00551958
0.00536586
0.00520916
0.00504808
0.0048819
0.00471029
0.00453254
0.00434719
0.00415317
0.00394984
0.00373691
0.00351332
0.00327616
0.00302228
0.00274979
0.00245957
0.00215605
0.00184432
0.00152859
0.00121294
0.000893417
0.000555295
0.000185398
0.0801713
0.0743129
0.0694005
0.0651809
0.0614905
0.0582347
0.0552951
0.0526246
0.0501649
0.0478923
0.0457717
0.0437817
0.0418929
0.0400951
0.0383687
0.0367137
0.0351144
0.0335719
0.0320781
0.0306359
0.0292492
0.0279195
0.026657
0.0254648
0.0243563
0.0233362
0.0224205
0.0216031
0.0208802
0.0202342
0.0196479
0.0191089
0.0186152
0.0181592
0.017738
0.0173458
0.0169726
0.0166045
0.0162335
0.0158556
0.0154803
0.0151238
0.0147961
0.0144966
0.0142161
0.0139372
0.0136395
0.0133168
0.0129805
0.0126477
0.0123322
0.012037
0.0117487
0.0114469
0.0111218
0.010773
0.0104034
0.0100225
0.00964915
0.00930486
0.00900322
0.00874396
0.00851256
0.00829031
0.00806673
0.00784057
0.00761427
0.00739098
0.00717335
0.00696204
0.00675607
0.0065556
0.00636311
0.00618154
0.00601102
0.00584532
0.00568525
0.00552634
0.00536679
0.00520555
0.00504152
0.00487381
0.00470185
0.00452489
0.00434174
0.00415136
0.00395286
0.00374528
0.00352665
0.00329355
0.00304259
0.00277192
0.00248255
0.00217911
0.00186619
0.00154839
0.00122795
0.000902317
0.000557823
0.000184928
0.0802547
0.074247
0.0693024
0.0650864
0.0614112
0.0581737
0.0552519
0.0525981