/*--------------------------------*- C++ -*----------------------------------*\
| =========                 |                                                 |
| \\      /  F ield         | OpenFOAM: The Open Source CFD Toolbox           |
|  \\    /   O peration     | Version:  4.1                                   |
|   \\  /    A nd           | Web:      www.OpenFOAM.org                      |
|    \\/     M anipulation  |                                                 |
\*---------------------------------------------------------------------------*/
FoamFile
{
    version     2.0;
    format      ascii;
    class       surfaceScalarField;
    location    "4";
    object      phi;
}
// * * * * * * * * * * * * * * * * * * * * * * * * * * * * * * * * * * * * * //

dimensions      [0 3 -1 0 0 0 0];

internalField   nonuniform List<scalar> 
52920
(
16.8281
-0.00313044
16.8102
0.017875
16.7716
0.038619
16.7135
0.0581068
16.6372
0.0763586
16.5442
0.0929638
16.436
0.108173
16.3141
0.121886
16.1797
0.134443
16.0339
0.145796
15.8777
0.156189
15.7122
0.165524
15.5383
0.173926
15.3567
0.181535
15.1686
0.188081
14.9746
0.194019
14.7756
0.199022
14.5722
0.203402
14.3651
0.207118
14.1548
0.210324
13.9419
0.212848
13.7268
0.215096
13.51
0.216832
13.2919
0.218103
13.0727
0.219221
12.8529
0.219776
12.6328
0.22007
12.4126
0.22022
12.1926
0.219977
11.9731
0.219533
11.7541
0.218945
11.5362
0.217907
11.3195
0.216691
11.1041
0.215426
10.8903
0.213811
10.6782
0.212073
10.4681
0.210173
10.2603
0.207758
10.0552
0.205084
9.85292
0.202284
9.65361
0.19931
9.45707
0.196538
9.26303
0.194047
9.07141
0.191614
8.88225
0.189159
8.69581
0.186439
8.51254
0.183268
8.33275
0.179797
8.15642
0.176326
7.98333
0.173091
7.81322
0.17011
7.64596
0.167254
7.48166
0.164306
7.32061
0.161049
7.1632
0.157407
7.00976
0.153445
6.86043
0.149322
6.71516
0.145272
6.5737
0.141461
6.43582
0.137881
6.30142
0.134402
6.17058
0.130839
6.0435
0.127079
5.92033
0.123167
5.80111
0.11922
5.68578
0.115332
5.57423
0.11155
5.46639
0.107839
5.36226
0.104127
5.26189
0.100374
5.16533
0.0965601
5.07263
0.0926957
4.98378
0.0888516
4.89848
0.0852965
4.8167
0.0817846
4.73876
0.077939
4.66477
0.073991
4.59477
0.0700001
4.52878
0.0659914
4.4668
0.0619763
4.40884
0.0579552
4.35492
0.053923
4.30506
0.0498639
4.2593
0.0457543
4.21772
0.0415805
4.18039
0.0373341
4.14738
0.0330054
4.11879
0.0285889
4.09471
0.0240838
4.07522
0.0194942
4.06038
0.0148362
4.05025
0.01013
4.04487
0.00538014
4.04429
0.000579204
4.04856
-0.00427335
4.05763
-0.0090667
4.07175
-0.0141174
4.0911
-0.0193494
4.11583
-0.0247283
-0.0301846
16.8279
-0.00641135
16.81
0.0357453
16.7714
0.0772547
16.7133
0.116225
16.6369
0.152742
16.5439
0.185935
16.4357
0.216356
16.3138
0.243784
16.1794
0.268887
16.0336
0.291601
15.8774
0.312376
15.7118
0.33108
15.5379
0.347863
15.3563
0.363117
15.1682
0.376188
14.9742
0.388077
14.7751
0.398061
14.5717
0.406804
14.3646
0.41421
14.1543
0.420631
13.9415
0.425699
13.7264
0.430206
13.5095
0.433728
13.2913
0.436253
13.072
0.438491
12.8522
0.439594
12.6322
0.440135
12.4119
0.440453
12.1919
0.439979
11.9724
0.439049
11.7535
0.437883
11.5356
0.435823
11.3189
0.433344
11.1035
0.430847
10.8896
0.427653
10.6776
0.424142
10.4674
0.420383
10.2595
0.415584
10.0544
0.410178
9.85213
0.404586
9.65279
0.39865
9.45627
0.393052
9.26223
0.388093
9.07057
0.383266
8.8814
0.378332
8.69498
0.372863
8.51177
0.366472
8.33208
0.359488
8.15584
0.35257
7.98276
0.346169
7.81261
0.340258
7.6453
0.33456
7.48094
0.328666
7.31985
0.322142
7.16243
0.314821
7.00902
0.306855
6.85976
0.298578
6.71456
0.29048
6.57311
0.282908
6.43519
0.275798
6.30075
0.268845
6.1699
0.261691
6.04284
0.254134
5.91972
0.246287
5.80053
0.238409
5.6852
0.230667
5.57362
0.223122
5.46575
0.215713
5.36158
0.208295
5.26117
0.200779
5.16458
0.19315
5.07185
0.185424
4.98297
0.177733
4.89767
0.170599
4.81586
0.163595
4.7379
0.155895
4.6639
0.147988
4.59391
0.139993
4.52794
0.13196
4.466
0.123921
4.40808
0.115874
4.35419
0.107807
4.30437
0.0996888
4.25865
0.091471
4.21711
0.0831215
4.17982
0.0746297
4.14684
0.0659787
4.11828
0.0571484
4.09423
0.0481369
4.07476
0.0389612
4.05995
0.0296551
4.04982
0.0202584
4.04441
0.0107863
4.04378
0.001212
4.04798
-0.00847734
4.05699
-0.0180718
4.07105
-0.0281738
4.09032
-0.0386261
4.11496
-0.0493664
-0.0602674
16.8275
-0.00974194
16.8096
0.0536249
16.7709
0.115914
16.7128
0.174374
16.6364
0.229158
16.5434
0.278935
16.4352
0.324556
16.3132
0.365703
16.1788
0.403338
16.033
0.437425
15.8768
0.468569
15.7112
0.496682
15.5372
0.521858
15.3555
0.544778
15.1673
0.564381
14.9732
0.582188
14.7742
0.597111
14.5708
0.610177
14.3638
0.621244
14.1535
0.630907
13.9406
0.638599
13.7254
0.645391
13.5084
0.650751
13.2901
0.654524
13.0708
0.657822
12.8509
0.65948
12.6308
0.660233
12.4105
0.660692
12.1905
0.660011
11.971
0.658552
11.7521
0.656768
11.5342
0.653734
11.3176
0.649984
11.1022
0.646235
10.8883
0.641533
10.6762
0.636242
10.466
0.630617
10.258
0.623512
10.0529
0.615352
9.8505
0.606938
9.65107
0.598079
9.45451
0.589617
9.26045
0.582145
9.0688
0.574916
8.87971
0.56743
8.69343
0.559138
8.51038
0.549527
8.33078
0.539086
8.15455
0.528793
7.98145
0.51927
7.81126
0.510449
7.64392
0.501895
7.47956
0.49303
7.31847
0.483227
7.1611
0.472194
7.00776
0.460196
6.85855
0.44779
6.71334
0.435683
6.57188
0.424373
6.43394
0.413731
6.29953
0.403262
6.16874
0.392475
6.04176
0.381121
5.91868
0.369367
5.79949
0.357597
5.68411
0.346042
5.57248
0.33475
5.46456
0.323638
5.36034
0.312515
5.25987
0.301244
5.16321
0.289808
5.0704
0.278235
4.98144
0.266697
4.8961
0.255938
4.81423
0.245466
4.73623
0.233894
4.66222
0.221995
4.59225
0.209968
4.52632
0.197885
4.46444
0.185797
4.40661
0.173714
4.35281
0.161601
4.30309
0.149409
4.25748
0.137078
4.21604
0.124562
4.17884
0.111833
4.14595
0.098866
4.11747
0.0856342
4.09347
0.0721332
4.07404
0.0583944
4.05921
0.0444791
4.04903
0.0304428
4.04353
0.0162839
4.04279
0.00195293
4.04687
-0.0125566
4.05572
-0.0269264
4.06963
-0.0420795
4.08874
-0.0577311
4.11317
-0.0738035
-0.0901736
16.8268
-0.0130243
16.8089
0.0715221
16.7702
0.154607
16.712
0.232568
16.6356
0.305619
16.5425
0.371975
16.4343
0.432785
16.3123
0.487655
16.1779
0.5378
16.032
0.583278
15.8758
0.624782
15.7101
0.662345
15.536
0.695945
15.3543
0.726543
15.166
0.752699
14.9718
0.776362
14.7727
0.796161
14.5694
0.81351
14.3624
0.828213
14.1522
0.841156
13.9392
0.851587
13.7239
0.860699
13.5067
0.867941
13.2883
0.872966
13.0688
0.877231
12.8489
0.879449
12.6287
0.880399
12.4085
0.880937
12.1884
0.880064
11.9689
0.878053
11.7501
0.875591
11.5322
0.871633
11.3155
0.866632
11.1002
0.861587
10.8863
0.855447
10.6741
0.848403
10.4639
0.840881
10.2558
0.831554
10.0505
0.820653
9.84808
0.809361
9.64854
0.797613
9.45189
0.786269
9.25783
0.776208
9.06622
0.766525
8.87725
0.756399
8.69117
0.745217
8.50829
0.73241
8.32877
0.718601
8.15254
0.705021
7.9794
0.692408
7.80918
0.680678
7.64182
0.669252
7.47747
0.657377
7.31643
0.644267
7.15913
0.629497
7.00587
0.613447
6.85671
0.596952
6.7115
0.58089
6.57003
0.565849
6.43211
0.551652
6.29775
0.537621
6.16706
0.523159
6.04016
0.508025
5.91711
0.492418
5.7979
0.476805
5.68246
0.461477
5.57076
0.446454
5.46276
0.431635
5.35846
0.416815
5.2579
0.401803
5.16114
0.386568
5.06821
0.37116
4.97913
0.355777
4.89374
0.341329
4.81179
0.327414
4.73374
0.311946
4.65973
0.296011
4.58978
0.279913
4.52391
0.263753
4.46212
0.247588
4.4044
0.231441
4.35073
0.215269
4.30114
0.198996
4.25567
0.182546
4.21437
0.16587
4.17727
0.148925
4.14448
0.131659
4.11607
0.114044
4.09212
0.0960872
4.07268
0.0778319
4.05781
0.0593506
4.04754
0.0407172
4.04189
0.0219259
4.04098
0.00286409
4.04488
-0.0164571
4.05357
-0.0356135
4.06727
-0.0557751
4.08614
-0.0766037
4.11034
-0.0980091
-0.119889
16.8259
-0.0161633
16.808
0.0894427
16.7693
0.193343
16.711
0.290821
16.6345
0.382137
16.5414
0.465071
16.4331
0.541056
16.3111
0.609654
16.1766
0.672286
16.0307
0.729174
15.8745
0.781031
15.7087
0.828085
15.5345
0.87015
15.3526
0.90843
15.1642
0.941162
14.9699
0.970612
14.7709
0.995211
14.5676
1.01681
14.3607
1.03513
14.1504
1.0514
13.9373
1.0647
13.7218
1.07617
13.5045
1.08532
13.2858
1.0916
13.0663
1.09673
12.8463
1.09951
12.626
1.10066
12.4057
1.1012
12.1857
1.10013
11.9662
1.09757
11.7474
1.09437
11.5295
1.08952
11.3128
1.08331
11.0975
1.07691
10.8835
1.06938
10.6713
1.06064
10.461
1.05118
10.2529
1.0397
10.0474
1.0261
9.84491
1.01187
9.64527
0.997254
9.44851
0.983028
9.25443
0.970289
9.06289
0.958065
8.87408
0.94521
8.6882
0.931093
8.50547
0.915138
8.32601
0.898059
8.14975
0.881279
7.97657
0.865596
7.80631
0.850937
7.63894
0.836615
7.47464
0.821677
7.31369
0.805214
7.1565
0.786687
7.00337
0.766582
6.85427
0.746047
6.70907
0.726096
6.56759
0.707324
6.42971
0.68953
6.29544
0.671896
6.16486
0.653733
6.03804
0.634846
5.915
0.61546
5.79575
0.596059
5.68023
0.576988
5.56843
0.558255
5.46033
0.539734
5.35593
0.521221
5.25524
0.502486
5.15835
0.483461
5.06529
0.464221
4.97607
0.444992
4.89061
0.426789
4.80859
0.409433
4.73049
0.390048
4.65646
0.370039
4.58655
0.349824
4.52075
0.329553
4.45905
0.309288
4.40145
0.289049
4.34792
0.268796
4.29848
0.248437
4.25314
0.22788
4.21195
0.207063
4.17495
0.185922
4.14222
0.164387
4.11385
0.142417
4.0899
0.120037
4.07042
0.0973152
4.05544
0.074333
4.045
0.0511561
4.03917
0.0277553
4.03806
0.00396965
4.04175
-0.0201498
4.05023
-0.0440896
4.06373
-0.0692753
4.0824
-0.0952695
4.1064
-0.122008
-0.149436
16.8248
-0.0191928
16.8068
0.107378
16.7681
0.232119
16.7097
0.349145
16.6332
0.458725
16.54
0.558238
16.4317
0.649385
16.3096
0.731716
16.1751
0.80681
16.0291
0.875132
15.8728
0.937336
15.707
0.993916
15.5326
1.04449
15.3506
1.09044
15.162
1.12977
14.9677
1.16494
14.7686
1.19427
14.5653
1.22009
14.3584
1.24205
14.1482
1.26166
13.9349
1.27797
13.7192
1.29182
13.5017
1.30288
13.2828
1.31045
13.0632
1.31634
12.8431
1.31965
12.6227
1.32103
12.4024
1.3215
12.1823
1.32022
11.9628
1.31714
11.744
1.31315
11.5261
1.30741
11.3094
1.30004
11.094
1.29223
10.8801
1.28333
10.6678
1.27295
10.4574
1.26152
10.2492
1.24791
10.0436
1.23167
9.84105
1.21446
9.64131
1.197
9.44443
1.1799
9.25033
1.1644
9.05886
1.14953
8.8702
1.13387
8.6845
1.11679
8.50188
1.09775
8.32244
1.0775
8.14613
1.0576
7.97287
1.03885
7.80259
1.02122
7.63526
1.00395
7.47105
0.985884
7.31026
0.966007
7.15324
0.943705
7.00025
0.919565
6.85125
0.895053
6.70606
0.871283
6.5646
0.848784
6.42679
0.827341
6.29261
0.806071
6.16213
0.784212
6.03537
0.761612
5.91231
0.738518
5.79299
0.715382
5.67738
0.692591
5.56547
0.670167
5.45725
0.647953
5.35272
0.625751
5.25189
0.603309
5.15485
0.580505
5.06164
0.557426
4.97229
0.53434
4.88676
0.512322
4.80467
0.491522
4.72653
0.468191
4.65249
0.444077
4.58261
0.41971
4.51687
0.395292
4.45526
0.370901
4.39775
0.346553
4.34434
0.322205
4.29502
0.297758
4.24978
0.27312
4.20866
0.248189
4.17171
0.222873
4.139
0.197092
4.11061
0.170806
4.0866
0.144053
4.06699
0.11692
4.05183
0.0894911
4.04118
0.0618115
4.03511
0.0338271
4.03377
0.00531235
4.03725
-0.0236331
4.04555
-0.0523912
4.05888
-0.0826091
4.0774
-0.113786
4.10127
-0.145878
-0.178865
16.8235
-0.0223774
16.8055
0.125352
16.7667
0.270952
16.7082
0.407552
16.6316
0.535396
16.5383
0.651491
16.4299
0.757789
16.3078
0.853863
16.1732
0.941398
16.0271
1.02118
15.8707
1.09372
15.7048
1.15985
15.5303
1.21897
15.3482
1.27257
15.1595
1.31852
14.965
1.35936
14.766
1.39335
14.5627
1.4234
14.3557
1.44901
14.1454
1.472
13.9319
1.49143
13.7161
1.50767
13.4983
1.52062
13.2793
1.52948
13.0596
1.53605
12.8393
1.53988
12.6188
1.54152
12.3985
1.54185
12.1784
1.54034
11.9587
1.53679
11.7399
1.53197
11.522
1.52534
11.3052
1.51686
11.0898
1.50757
10.8759
1.49727
10.6635
1.48532
10.4531
1.47187
10.2449
1.45614
10.0392
1.43734
9.83656
1.41714
9.63672
1.39683
9.43973
1.3769
9.24558
1.35854
9.05417
1.34093
8.86564
1.32241
8.68006
1.30237
8.49749
1.28032
8.31801
1.25698
8.1416
1.234
7.96826
1.21219
7.79798
1.1915
7.63072
1.1712
7.46667
1.14994
7.3061
1.12657
7.14933
1.10047
6.99653
1.07237
6.84763
1.04395
6.70249
1.01642
6.56107
0.990209
6.42333
0.965074
6.28925
0.94015
6.15884
0.914624
6.0321
0.888357
5.909
0.861616
5.78958
0.834803
5.67386
0.80831
5.56182
0.782206
5.45346
0.756311
5.34879
0.730415
5.24784
0.704264
5.15065
0.677692
5.0573
0.65077
4.96784
0.623803
4.88224
0.597918
4.8001
0.573666
4.72192
0.546368
4.64788
0.518121
4.57801
0.489585
4.5123
0.460998
4.45074
0.432459
4.3933
0.403991
4.33996
0.375547
4.29069
0.347028
4.24548
0.31833
4.20436
0.289311
4.16739
0.25984
4.13464
0.229842
4.10617
0.199283
4.08201
0.168208
4.06221
0.13672
4.0468
0.1049
4.03586
0.0727524
4.02951
0.0401789
4.02794
0.0068847
4.03124
-0.0269294
4.03941
-0.0605624
4.05266
-0.0958645
4.07113
-0.132257
4.09497
-0.169714
-0.208228
16.8219
-0.0256202
16.8039
0.143361
16.765
0.309847
16.7065
0.466054
16.6297
0.612163
16.5364
0.744846
16.4279
0.866289
16.3056
0.976118
16.1709
1.07608
16.0248
1.16734
15.8683
1.2502
15.7023
1.32589
15.5277
1.39357
15.3454
1.4548
15.1566
1.50739
14.9621
1.55386
14.7629
1.59248
14.5595
1.62679
14.3524
1.65608
14.142
1.68245
13.9283
1.70508
13.7123
1.72372
13.4944
1.7385
13.2752
1.74869
13.0554
1.75588
12.8351
1.76019
12.6145
1.76212
12.394
1.76228
12.1738
1.76052
11.9541
1.75657
11.7351
1.7509
11.5171
1.74334
11.3002
1.73378
11.0848
1.72296
10.8709
1.71119
10.6585
1.69772
10.4481
1.68223
10.2399
1.66434
10.0342
1.64305
9.83148
1.61989
9.63156
1.59676
9.43443
1.57403
9.24022
1.55276
9.04884
1.53231
8.86037
1.51088
8.67485
1.48789
8.49225
1.46292
8.31267
1.43656
8.13614
1.41053
7.96271
1.38562
7.79244
1.36177
7.62532
1.33832
7.4615
1.31376
7.30123
1.28684
7.14478
1.25693
6.99219
1.22495
6.84342
1.19273
6.69835
1.16149
6.55698
1.13158
6.41932
1.10273
6.28532
1.07415
6.15494
1.045
6.02818
1.01512
5.90501
0.984783
5.78547
0.954343
5.66961
0.924171
5.55743
0.894385
5.44893
0.864812
5.34413
0.835215
5.24306
0.805335
5.14576
0.774989
5.05231
0.744219
4.96276
0.713349
4.87712
0.683556
4.79495
0.65584
4.71675
0.624572
4.64269
0.59218
4.5728
0.559472
4.50708
0.526715
4.44552
0.494019
4.38808
0.461431
4.33472
0.428909
4.28541
0.39634
4.24014
0.363598
4.19894
0.33051
4.16188
0.296908
4.129
0.262715
4.10036
0.227924
4.07599
0.192586
4.05591
0.156797
4.04018
0.120626
4.02891
0.0840243
4.02226
0.046832
4.02047
0.00867378
4.02367
-0.0301232
4.03182
-0.0687194
4.04512
-0.109162
4.06365
-0.150791
4.08754
-0.193594
-0.237563
16.8202
-0.028842
16.8021
0.161413
16.7631
0.348813
16.7045
0.524662
16.6277
0.689039
16.5342
0.83832
16.4256
0.974906
16.3032
1.09851
16.1684
1.21089
16.0221
1.31364
15.8655
1.40681
15.6993
1.49205
15.5246
1.56829
15.3423
1.6371
15.1533
1.69634
14.9587
1.74846
14.7595
1.79172
14.556
1.83032
14.3487
1.86336
14.138
1.89309
13.9242
1.91895
13.7079
1.93996
13.4899
1.9565
13.2706
1.96804
13.0506
1.97582
12.8303
1.98056
12.6096
1.98283
12.389
1.98282
12.1687
1.9808
11.9488
1.9765
11.7297
1.97001
11.5116
1.96147
11.2945
1.95083
11.0791
1.93843
10.8652
1.9251
10.6528
1.9101
10.4425
1.89254
10.2344
1.87243
10.0287
1.84875
9.82585
1.8227
9.62585
1.79676
9.42858
1.77129
9.23427
1.74707
9.04287
1.72371
8.85439
1.69936
8.66884
1.67344
8.48614
1.64562
8.30639
1.61631
8.12972
1.58721
7.95621
1.55913
7.78597
1.532
7.61906
1.50523
7.45554
1.47727
7.29565
1.44673
7.13956
1.41301
6.98723
1.37729
6.83859
1.34136
6.69362
1.30647
6.55231
1.27289
6.41471
1.24033
6.28076
1.20809
6.15039
1.17537
6.02357
1.14194
5.9003
1.10805
5.78062
1.07402
5.6646
1.04019
5.55227
1.00671
5.44363
0.97345
5.33871
0.940136
5.23755
0.906496
5.14019
0.872346
5.0467
0.837713
4.95712
0.802925
4.87147
0.769207
4.7893
0.738013
4.71107
0.702798
4.63698
0.666274
4.56704
0.62941
4.50125
0.592503
4.43961
0.555667
4.38207
0.518971
4.32857
0.482402
4.2791
0.445811
4.23367
0.409033
4.1923
0.37188
4.15505
0.334161
4.12197
0.295794
4.09308
0.256808
4.06841
0.21726
4.04799
0.177222
4.03189
0.136727
4.02026
0.0956503
4.01338
0.0537098
4.01153
0.0105289
4.01475
-0.0333472
4.02301
-0.0769762
4.03644
-0.122593
4.0551
-0.169453
4.07906
-0.217554
-0.266872
16.8182
-0.0319421
16.8001
0.179491
16.7611
0.387855
16.7023
0.583386
16.6253
0.766038
16.5317
0.931932
16.423
1.08366
16.3004
1.22107
16.1654
1.34587
16.019
1.46012
15.8622
1.56358
15.6959
1.65833
15.5211
1.7431
15.3388
1.81945
15.1498
1.88534
14.9551
1.94314
14.7557
1.99111
14.5519
2.03407
14.3444
2.07092
14.1335
2.10397
13.9194
2.13304
13.703
2.15637
13.4849
2.17459
13.2655
2.1875
13.0454
2.19586
12.825
2.201
12.6042
2.20364
12.3835
2.20349
12.1631
2.20121
11.9429
2.19665
11.7236
2.18935
11.5053
2.17976
11.2881
2.16802
11.0726
2.154
10.8587
2.13898
10.6464
2.12242
10.4361
2.10276
10.2282
2.08039
10.0225
2.05438
9.81969
2.02555
9.61958
1.99687
9.42216
1.96871
9.2277
1.94153
9.03623
1.91518
8.84767
1.88792
8.66201
1.8591
8.47915
1.82847
8.29919
1.79627
8.12235
1.76405
7.94878
1.73271
7.77862
1.70216
7.61196
1.67189
7.44882
1.64041
7.28935
1.60621
7.13366
1.5687
6.9816
1.52935
6.83312
1.48985
6.68824
1.45134
6.547
1.41414
6.40943
1.3779
6.27551
1.34202
6.1451
1.30578
6.01819
1.26886
5.8948
1.23144
5.77497
1.19385
5.65878
1.15638
5.5463
1.11919
5.43754
1.08221
5.33253
1.04515
5.23132
1.00771
5.13396
0.969706
5.04049
0.931177
4.95096
0.892458
4.86535
0.854817
4.78322
0.820142
4.70498
0.781039
4.63082
0.740436
4.56077
0.699458
4.49483
0.658446
4.43298
0.617509
4.37522
0.576734
4.32147
0.536152
4.27172
0.495565
4.226
0.454753
4.18435
0.413524
4.14683
0.371686
4.11346
0.329162
4.08426
0.286008
4.05923
0.242293
4.03841
0.198038
4.02199
0.153152
4.01021
0.10743
4.0033
0.0606159
4.00149
0.0123394
4.00483
-0.036684
4.01325
-0.0853934
4.02685
-0.136194
4.04564
-0.188249
4.06966
-0.241568
-0.29612
16.8159
-0.034813
16.7979
0.19752
16.7588
0.426957
16.6999
0.642237
16.6228
0.843173
16.529
1.0257
16.4201
1.19259
16.2973
1.34382
16.1622
1.48105
16.0155
1.60682
15.8585
1.72052
15.6921
1.82473
15.5172
1.91798
15.3349
2.00179
15.1459
2.07435
14.9511
2.13791
14.7515
2.19069
14.5475
2.23811
14.3396
2.27884
14.1284
2.31514
13.9141
2.34736
13.6975
2.37295
13.4793
2.39276
13.2598
2.40703
13.0397
2.416
12.8192
2.42149
12.5983
2.42455
12.3775
2.42431
12.1569
2.42178
11.9365
2.41702
11.7169
2.40896
11.4984
2.39826
11.2811
2.38537
11.0654
2.36968
10.8515
2.35284
10.6393
2.33464
10.4292
2.31287
10.2214
2.28817
10.0159
2.25991
9.81297
2.22846
9.61275
2.19708
9.41515
2.16631
9.2205
2.13618
9.02888
2.1068
8.84017
2.07662
8.65434
2.04493
8.47128
2.01153
8.29109
1.97646
8.11408
1.94105
7.94047
1.90632
7.77042
1.87221
7.60406
1.83825
7.44135
1.80312
7.28234
1.76522
7.12706
1.72397
6.97528
1.68113
6.82694
1.63818
6.68215
1.59613
6.54097
1.55532
6.40342
1.51545
6.26947
1.47596
6.13901
1.43624
6.01198
1.39588
5.88844
1.35498
5.76846
1.31383
5.65211
1.27272
5.53948
1.23182
5.43063
1.19106
5.32557
1.1502
5.22436
1.10892
5.12706
1.06701
5.0337
1.02454
4.94428
0.981879
4.85875
0.940348
4.7767
0.902192
4.69846
0.859273
4.62421
0.814692
4.55398
0.769686
4.48779
0.724637
4.42564
0.679662
4.36752
0.634852
4.31338
0.590289
4.26322
0.545728
4.21709
0.500879
4.17507
0.455544
4.1372
0.409565
4.10348
0.362882
4.07392
0.31556
4.04858
0.267642
4.02755
0.219067
4.01103
0.169668
3.99925
0.119214
3.99241
0.0674591
3.99071
0.0140404
3.9942
-0.0401737
4.00279
-0.0939852
4.01654
-0.14995
4.03542
-0.207126
4.05941
-0.265558
-0.325233
16.8136
-0.0379342
16.7955
0.215621
16.7563
0.466145
16.6973
0.701225
16.62
0.920458
16.5261
1.11964
16.417
1.3017
16.294
1.4668
16.1585
1.61649
16.0116
1.75377
15.8544
1.87767
15.6879
1.99127
15.513
2.09289
15.3306
2.18411
15.1417
2.26334
14.9468
2.33275
14.747
2.3905
14.5426
2.44249
14.3343
2.48718
14.1227
2.52667
13.9082
2.5619
13.6915
2.58968
13.4732
2.61099
13.2536
2.62661
13.0334
2.63622
12.8129
2.64205
12.5919
2.64553
12.3709
2.64528
12.1501
2.64255
11.9295
2.63764
11.7096
2.62886
11.4909
2.61701
11.2734
2.60288
11.0576
2.58548
10.8437
2.5667
10.6316
2.54672
10.4216
2.52284
10.214
2.49576
10.0086
2.46532
9.80567
2.43142
9.60531
2.39745
9.40749
2.36413
9.2126
2.33108
9.02078
2.29861
8.83188
2.26553
8.64582
2.23099
8.46253
2.19481
8.28212
2.15688
8.10497
2.1182
7.93137
2.07992
7.76147
2.04211
7.59541
2.00431
7.43316
1.96538
7.27462
1.92375
7.11973
1.87887
6.96821
1.83264
6.82001
1.78639
6.67528
1.74086
6.53413
1.69647
6.39657
1.65301
6.26257
1.60997
6.13202
1.56679
6.00487
1.52303
5.88118
1.47867
5.76105
1.43396
5.64456
1.38921
5.53181
1.34456
5.42289
1.29998
5.31784
1.25525
5.2167
1.21006
5.11952
1.16419
5.02632
1.11774
4.93706
1.07114
4.85163
1.02577
4.76967
0.984156
4.69144
0.937507
4.61706
0.889071
4.54659
0.84015
4.48008
0.791153
4.41752
0.742217
4.35895
0.693429
4.30432
0.644913
4.25368
0.596375
4.20709
0.547465
4.16465
0.497981
4.12641
0.447811
4.09237
0.396922
4.06256
0.345365
4.03705
0.293153
4.01596
0.240162
3.99946
0.18617
3.98775
0.130926
3.98102
0.0741899
3.97945
0.0156041
3.9831
-0.0438222
3.99185
-0.102728
4.00569
-0.163798
4.02456
-0.225988
4.0484
-0.289403
-0.354107
16.811
-0.0412142
16.7929
0.233779
16.7536
0.505426
16.6944
0.760364
16.617
0.997906
16.5229
1.21378
16.4135
1.41103
16.2903
1.59004
16.1546
1.75222
16.0073
1.901
15.8499
2.03507
15.6832
2.15796
15.5083
2.26784
15.326
2.36639
15.1371
2.45229
14.9422
2.52767
14.7421
2.59059
14.5373
2.64728
14.3285
2.69599
14.1165
2.73861
13.9018
2.7767
13.6849
2.80656
13.4666
2.8293
13.2469
2.84623
13.0266
2.85652
12.806
2.86267
12.585
2.86659
12.3638
2.86641
12.1428
2.86354
11.922
2.85851
11.7018
2.84906
11.4828
2.83601
11.2651
2.82055
11.0492
2.8014
10.8353
2.78056
10.6234
2.75867
10.4135
2.73266
10.2061
2.7032
10.0008
2.67062
9.79774
2.63448
9.59718
2.598
9.39912
2.56219
9.20394
2.52626
9.01188
2.49067
8.82275
2.45466
8.63645
2.41729
8.45296
2.3783
8.27236
2.33747
8.0951
2.29545
7.92154
2.25348
7.75183
2.21183
7.58609
2.17004
7.42428
2.12718
7.2662
2.08183
7.11165
2.03343
6.96034
1.98395
6.81224
1.93449
6.66754
1.88557
6.52639
1.83761
6.3888
1.7906
6.25472
1.74405
6.12407
1.69743
5.99681
1.65029
5.87298
1.6025
5.7527
1.55424
5.6361
1.50582
5.52327
1.45739
5.41432
1.40893
5.30933
1.36024
5.20832
1.31107
5.11132
1.26119
5.01832
1.21073
4.92926
1.16021
4.84394
1.11109
4.76205
1.06605
4.68379
1.01576
4.60926
0.963602
4.53852
0.910894
4.47162
0.858048
4.40861
0.805233
4.34951
0.752531
4.29435
0.700073
4.24321
0.647516
4.19618
0.594487
4.15338
0.54079
4.11483
0.486359
4.08056
0.43119
4.05061
0.375317
4.02504
0.318719
4.00397
0.261233
3.98755
0.202594
3.97595
0.142527
3.96935
0.0807905
3.96793
0.0170278
3.97171
-0.04761
3.98055
-0.111567
3.9944
-0.177641
4.0131
-0.244695
4.03665
-0.312952
-0.38262
16.8083
-0.0446156
16.79
0.252025
16.7507
0.544809
16.6914
0.819664
16.6137
1.07553
16.5194
1.30813
16.4098
1.5206
16.2863
1.71355
16.1503
1.88826
16.0027
2.04854
15.845
2.19273
15.6782
2.32481
15.5032
2.44281
15.321
2.5486
15.1321
2.64117
14.9371
2.72264
14.7368
2.79097
14.5316
2.8525
14.3222
2.90531
14.1099
2.95098
13.8948
2.99175
13.6778
3.02361
13.4594
3.0477
13.2397
3.06589
13.0193
3.0769
12.7986
3.08337
12.5775
3.08773
12.3562
3.08771
12.135
3.08474
11.9139
3.07961
11.6934
3.06951
11.4742
3.05524
11.2564
3.03836
11.0403
3.01743
10.8265
2.99444
10.6146
2.9705
10.4049
2.94237
10.1976
2.91053
9.99232
2.87588
9.78911
2.83769
9.5883
2.79882
9.38995
2.76053
9.19445
2.72177
9.00212
2.68299
8.81277
2.64401
8.62625
2.60381
8.44259
2.56196
8.26188
2.51819
8.08457
2.47276
7.91109
2.42695
7.74158
2.38134
7.57615
2.33548
7.41475
2.28858
7.25708
2.23949
7.10278
2.18773
6.95161
2.13511
6.80356
2.08254
6.65884
2.03029
6.51766
1.97879
6.38001
1.92824
6.24585
1.87822
6.11511
1.82816
5.98775
1.77765
5.8638
1.72644
5.74342
1.67462
5.62673
1.6225
5.51387
1.57026
5.40495
1.51785
5.30006
1.46513
5.19923
1.4119
5.10245
1.35797
5.00967
1.3035
4.92079
1.24909
4.83556
1.19632
4.75373
1.14788
4.67542
1.09407
4.60071
1.03831
4.52967
0.981941
4.46236
0.925351
4.39886
0.868733
4.33922
0.812173
4.28354
0.755755
4.23196
0.699103
4.18457
0.641873
4.14148
0.583884
4.10272
0.525115
4.06833
0.465587
4.03833
0.405317
4.01279
0.344258
3.9918
0.282221
3.97549
0.218906
3.96401
0.154005
3.95754
0.087261
3.95625
0.0183248
3.96013
-0.0514946
3.96898
-0.120413
3.98267
-0.191336
4.00105
-0.263075
4.02414
-0.336036
-0.410648
16.8053
-0.0480356
16.787
0.270325
16.7475
0.584303
16.6881
0.879142
16.6102
1.15335
16.5157
1.40271
16.4058
1.63042
16.282
1.83736
16.1456
2.02466
15.9978
2.19642
15.8398
2.35069
15.6727
2.49185
15.4977
2.61782
15.3156
2.73077
15.1267
2.82999
14.9317
2.91766
14.7311
2.99164
14.5254
3.05815
14.3156
3.11514
14.1027
3.16381
13.8874
3.20709
13.6702
3.24084
13.4516
3.26623
13.2319
3.28562
13.0114
3.29738
12.7906
3.30418
12.5694
3.30895
12.3479
3.30916
12.1265
3.30616
11.9052
3.3009
11.6846
3.29017
11.4651
3.27469
11.2472
3.25629
11.0311
3.23356
10.8171
3.20838
10.6054
3.18225
10.3958
3.15201
10.1884
3.11785
9.98314
3.08117
9.77972
3.04111
9.57859
2.99996
9.37992
2.95919
9.18409
2.9176
8.99148
2.8756
8.80192
2.83357
8.61524
2.7905
8.43148
2.74572
8.25074
2.69893
8.07344
2.65006
7.90008
2.60031
7.73079
2.55063
7.56563
2.50063
7.40457
2.44964
7.24723
2.39683
7.09309
2.34187
6.94197
2.28623
6.79391
2.2306
6.64912
2.17508
6.50785
2.12006
6.37014
2.06595
6.23589
2.01246
6.10507
1.95899
5.97764
1.90508
5.85363
1.85046
5.73317
1.79508
5.61646
1.73921
5.50362
1.68309
5.39478
1.62669
5.29004
1.56987
5.18943
1.51251
5.09288
1.45452
5.0003
1.39608
4.91156
1.33783
4.8264
1.28148
4.74458
1.2297
4.66619
1.17246
4.59129
1.11321
4.51994
1.05329
4.45224
0.993053
4.38828
0.932699
4.32814
0.87231
4.27201
0.811882
4.22008
0.751042
4.17243
0.689515
4.12916
0.627159
4.0903
0.563979
4.05587
0.500017
4.0259
0.435284
4.00045
0.369713
3.97957
0.303094
3.96339
0.235094
3.95203
0.165359
3.94568
0.0936114
3.94448
0.019525
3.94839
-0.0553982
3.9571
-0.129123
3.97045
-0.204691
3.98831
-0.280931
4.01077
-0.358495
-0.438083
16.8018
-0.0509827
16.7838
0.288302
16.7442
0.623884
16.6846
0.938812
16.6065
1.23138
16.5117
1.49755
16.4016
1.74052
16.2775
1.96149
16.1407
2.16142
15.9925
2.34466
15.8342
2.50898
15.6669
2.65912
15.4918
2.7929
15.3097
2.91291
15.1209
3.01876
14.9259
3.11272
14.7249
3.19259
14.5188
3.26423
14.3085
3.32546
14.0952
3.37712
13.8796
3.42273
13.6621
3.45828
13.4434
3.48494
13.2236
3.50546
13.003
3.51799
12.782
3.52514
12.5607
3.53028
12.3391
3.53075
12.1175
3.52775
11.8961
3.52231
11.6753
3.51097
11.4557
3.49429
11.2377
3.47431
11.0215
3.44976
10.8075
3.42239
10.5957
3.39399
10.3861
3.36165
10.1787
3.32526
9.97323
3.28661
9.76952
3.24482
9.56798
3.20149
9.36896
3.15821
9.1728
3.11376
8.97993
3.06848
8.79022
3.02327
8.60345
2.97727
8.41968
2.92949
8.239
2.87961
8.06179
2.82727
7.88857
2.77353
7.7195
2.7197
7.55458
2.66555
7.39376
2.61046
7.23663
2.55396
7.08254
2.49597
6.93136
2.4374
6.78321
2.37875
6.6383
2.31999
6.4969
2.26146
6.3591
2.20375
6.2248
2.14676
6.09392
2.08986
5.96647
2.03253
5.84245
1.97448
5.72198
1.91555
5.60528
1.85591
5.49253
1.79584
5.38383
1.7354
5.27927
1.67443
5.17888
1.61289
5.08256
1.55085
4.99015
1.48849
4.90149
1.42649
4.81634
1.36664
4.73452
1.31152
4.65602
1.25096
4.58091
1.18831
4.50927
1.12493
4.44121
1.06112
4.37684
0.997069
4.3163
0.932847
4.25986
0.868331
4.20769
0.803205
4.15991
0.737295
4.11657
0.670504
4.0777
0.602853
4.04331
0.534399
4.01344
0.465157
3.98811
0.395048
3.96736
0.323841
3.9513
0.251159
3.94006
0.176597
3.93381
0.0998661
3.93264
0.0206933
3.93642
-0.0591797
3.94478
-0.137479
3.95755
-0.217463
3.97468
-0.298063
3.9964
-0.380216
-0.464865
16.7985
-0.0543963
16.7804
0.306425
16.7407
0.663599
16.6808
0.998694
16.6026
1.30964
16.5074
1.59265
16.3971
1.85091
16.2726
2.08593
16.1355
2.29856
15.9869
2.49325
15.8282
2.66761
15.6607
2.82666
15.4855
2.96809
15.3033
3.09508
15.1146
3.20751
14.9195
3.30782
14.7183
3.39379
14.5118
3.47068
14.3011
3.53624
14.0873
3.59089
13.8713
3.63869
13.6536
3.67596
13.4347
3.70389
13.2147
3.72545
12.9939
3.73876
12.7728
3.74628
12.5513
3.75173
12.3296
3.75246
12.1079
3.74948
11.8864
3.74378
11.6656
3.7318
11.4459
3.71397
11.2278
3.69239
11.0116
3.66604
10.7974
3.63652
10.5856
3.60578
10.3759
3.57138
10.1683
3.5329
9.96255
3.49233
9.75844
3.44892
9.55645
3.40348
9.35705
3.35761
9.16058
3.31023
8.96748
3.26158
8.77769
3.21305
8.59094
3.16402
8.40724
3.11319
8.22672
3.06013
8.04967
3.00432
7.8766
2.9466
7.70773
2.88857
7.54299
2.83029
7.3823
2.77115
7.22524
2.71102
7.07108
2.65013
6.91974
2.58874
6.77142
2.52706
6.62634
2.46507
6.48476
2.40304
6.34685
2.34166
6.21252
2.2811
6.08163
2.22074
5.9542
2.15997
5.83024
2.09844
5.70984
2.03595
5.59323
1.97251
5.48062
1.90845
5.37211
1.84391
5.26776
1.77878
5.16758
1.71307
5.07144
1.64699
4.97913
1.58079
4.89049
1.51513
4.8053
1.45183
4.72345
1.39338
4.6448
1.3296
4.56949
1.26363
4.4976
1.19682
4.42924
1.12948
4.36456
1.06174
4.30377
0.993642
4.24715
0.924946
4.19491
0.855449
4.14712
0.785085
4.10382
0.71381
4.06502
0.641647
4.03076
0.568666
4.00102
0.494894
3.97582
0.420247
3.9552
0.344461
3.93925
0.26711
3.92811
0.187745
3.92189
0.106086
3.92062
0.0219629
3.92403
-0.0625912
3.93169
-0.145137
3.94359
-0.229366
3.95989
-0.314361
3.98086
-0.401188
-0.490994
16.7951
-0.0581806
16.7768
0.324671
16.7369
0.703461
16.6768
1.05881
16.5983
1.38814
16.5029
1.68805
16.3922
1.96161
16.2675
2.2107
16.13
2.43608
15.981
2.64222
15.822
2.82661
15.6542
2.9945
15.4788
3.14347
15.2965
3.27733
15.1077
3.39629
14.9126
3.50296
14.7112
3.59519
14.5044
3.67745
14.2933
3.74741
14.079
3.80512
13.8627
3.85501
13.6448
3.89392
13.4255
3.92312
13.2053
3.94567
12.9843
3.95974
12.7629
3.96766
12.5413
3.97334
12.3195
3.97429
12.0977
3.97129
11.8762
3.96524
11.6555
3.95258
11.4358
3.93366
11.2177
3.91048
11.0014
3.88238
10.7871
3.85079
10.5751
3.81772
10.3652
3.7813
10.1572
3.74089
9.95107
3.69849
9.74648
3.65351
9.54397
3.606
9.34417
3.55741
9.14744
3.50697
8.95416
3.45485
8.76437
3.40285
8.57773
3.35065
8.39421
3.29671
8.21393
3.24042
8.03709
3.18116
7.86419
3.1195
7.69548
3.05728
7.53086
2.99491
7.37017
2.93183
7.21302
2.86817
7.05867
2.80448
6.90707
2.74035
6.75849
2.67564
6.61318
2.61039
6.47139
2.54482
6.33335
2.4797
6.199
2.41545
6.06818
2.35156
5.94083
2.28731
5.817
2.22227
5.69676
2.15619
5.58031
2.08896
5.46789
2.02086
5.35961
1.9522
5.25547
1.88291
5.15547
1.81307
5.05946
1.74301
4.96719
1.67305
4.8785
1.60382
4.79322
1.5371
4.71131
1.4753
4.63251
1.4084
4.55698
1.33915
4.48487
1.26893