/*--------------------------------*- C++ -*----------------------------------*\
| =========                 |                                                 |
| \\      /  F ield         | OpenFOAM: The Open Source CFD Toolbox           |
|  \\    /   O peration     | Version:  4.1                                   |
|   \\  /    A nd           | Web:      www.OpenFOAM.org                      |
|    \\/     M anipulation  |                                                 |
\*---------------------------------------------------------------------------*/
FoamFile
{
    version     2.0;
    format      ascii;
    class       surfaceScalarField;
    location    "3";
    object      phi;
}
// * * * * * * * * * * * * * * * * * * * * * * * * * * * * * * * * * * * * * //

dimensions      [0 3 -1 0 0 0 0];

internalField   nonuniform List<scalar> 
52920
(
1639.35
-86.2027
1728.15
-90.5278
1821.26
-93.7838
1909.59
-91.3301
1996.99
-85.4162
2073.67
-79.49
2148.51
-73.1755
2213.26
-66.7834
2274.74
-60.6586
2329.98
-55.5645
2381.72
-51.2456
2432.97
-50.7347
2487.03
-53.9875
2545.68
-58.3139
2607.02
-61.4088
2671.56
-64.2354
2738.31
-66.9267
2809.25
-71.2695
2884.76
-76.0541
2963.95
-79.7726
3044.93
-81.4783
3124.84
-80.4853
3202.01
-77.2852
3274.83
-73.2023
3344.55
-69.3703
3410.82
-66.2976
3475.14
-63.6118
3537.28
-61.5986
3598.41
-59.9782
3658.21
-58.6339
3717.59
-57.7938
3777.05
-57.9618
3837.43
-58.5948
3898.3
-59.2172
3959.79
-59.6115
4021.83
-60.2469
4085.83
-62.1051
4152.23
-64.5656
4220.87
-66.8271
4291.08
-68.434
4362.2
-69.4205
4434.68
-70.8197
4508.75
-72.5463
4584.32
-74.1332
4660.77
-75.1878
4737.4
-75.1963
4813.98
-74.6282
4888.5
-73.9086
4963.49
-73.4591
5036.05
-72.232
5108.96
-71.4778
5179.19
-69.9284
5249.44
-68.8827
5317.51
-67.9184
5386.53
-67.9723
5454.25
-67.8677
5523.8
-68.6512
5593
-69.533
5664.96
-71.3179
5737.56
-73.2391
5813.58
-75.5534
5890.34
-77.5834
5970
-79.5109
6049.91
-80.9588
6132.04
-82.1778
6213.96
-83.0214
6297.35
-83.6989
6380.22
-84.0512
6463.99
-84.2188
6546.87
-84.0399
6629.8
-83.5548
6711.24
-82.6218
6791.87
-81.3654
6870.44
-79.7183
6947.34
-77.7493
7021.57
-75.3668
7093.22
-72.5618
7161.47
-69.3351
7226.33
-65.8157
7287.26
-61.9601
7344.03
-57.7318
7396.21
-53.1239
7443.46
-48.1868
7485.67
-43.0624
7522.61
-37.8082
7554.2
-32.3319
7579.97
-26.5381
7599.86
-20.499
7613.45
-14.2449
7620.81
-7.83542
7621.54
-1.24685
7615.77
5.42903
7603.25
12.1202
7584.28
18.7508
7558.6
25.4084
7526.49
32.0005
7487.72
38.6054
7441.96
45.7188
7398.67
43.2254
45.6495
1781.67
-181.138
1885.43
-195.711
1994.97
-203.512
2098.28
-197.377
2200.2
-184.956
2288.75
-170.901
2375.36
-158.335
2450.61
-144.631
2523.76
-133.813
2590.5
-123.495
2655.24
-116.413
2721.04
-116.721
2791.11
-124.312
2866.44
-133.459
2945.32
-140.173
3028.07
-146.522
3114
-152.951
3204.81
-162.527
3300.36
-172.351
3398.82
-179.01
3498.08
-181.339
3595.07
-178.083
3688.8
-171.096
3778.41
-163.1
3865.57
-156.083
3949.89
-150.584
4033.27
-146.224
4115.37
-143
4196.95
-140.178
4277.7
-137.909
4358.96
-137.112
4440.9
-138.063
4523.69
-139.305
4606.37
-140.001
4689.04
-140.215
4771.82
-141.076
4855.97
-144.22
4941.64
-148.287
5028.44
-151.719
5115.59
-153.688
5202.65
-154.669
5290.34
-156.717
5379.07
-159.613
5468.86
-162.354
5559.04
-164.001
5649.01
-163.648
5738.67
-162.157
5826.08
-160.712
5913.98
-159.738
6000.04
-157.989
6086.49
-156.4
6170.15
-153.272
6253.89
-151.152
6335.93
-149.768
6419.04
-149.942
6500.87
-149.807
6584.09
-150.905
6666.38
-152.108
6750.3
-154.593
6833.68
-157.183
6918.9
-160.338
7003.32
-162.732
7088.66
-164.736
7172.39
-165.614
7256.29
-166.153
7338.27
-165.992
7419.95
-165.694
7499.65
-164.844
7578.83
-163.868
7656.13
-162.457
7732.74
-160.811
7807.55
-158.59
7881.34
-155.942
7953.1
-152.647
8023.29
-148.845
8091.1
-144.355
8156.65
-139.091
8219.05
-132.882
8278.02
-125.815
8332.81
-117.84
8383.02
-108.978
8428.1
-99.2203
8467.25
-88.3216
8499.73
-76.4563
8524.99
-63.9847
8542.81
-50.919
8552.84
-37.3693
8555.2
-23.4795
8549.64
-9.3272
8536.36
4.98261
8515.22
19.4012
8486.55
33.8015
8450.26
48.0601
8406.71
62.1293
8355.76
76.1303
8297.93
89.7639
8233.04
103.379
8163
115.76
8086.11
120.075
109.406
1962.93
-289.282
2081.19
-315.821
2204.14
-327.609
2320.76
-317.141
2435.31
-297.747
2537.4
-275.749
2637.39
-256.623
2727.05
-236.056
2814.78
-220.402
2896.94
-205.604
2977.64
-196.215
3059.74
-198.029
3145.91
-210.276
3236.96
-224.127
3331.19
-234.551
3428.7
-243.85
3528.65
-253.095
3632.11
-266.215
3738.61
-279.22
3846.51
-287.308
3954.11
-289.29
4059.01
-283.474
4160.61
-272.809
4258.3
-261.168
4353.53
-251.041
4445.9
-243.021
4536.94
-236.699
4626.13
-231.811
4713.86
-226.998
4799.51
-222.683
4884.13
-220.493
4967.61
-220.377
5049.96
-220.186
5130.51
-219.178
5209.44
-217.53
5286.86
-216.934
5363.98
-219.642
5441.24
-223.875
5518.74
-227.538
5596
-229.27
5672.71
-229.754
5749.48
-231.877
5826.55
-235.179
5903.87
-238.242
5980.83
-239.73
6056.74
-238.142
6131.35
-234.613
6202.67
-231.517
6273.15
-228.528
6339.88
-224.538
6404.64
-219.578
6464.38
-212.886
6522.08
-207.343
6575.47
-203.177
6627
-200.321
6674.15
-197.311
6719.58
-195.319
6760.69
-193.753
6800.05
-193.211
6835.29
-193.258
6869.01
-193.477
6898.69
-193.41
6926.56
-192.386
6950.56
-190.844
6973.45
-189.035
6994.21
-188.041
7015.95
-187.725
7038.33
-188.593
7064.31
-190.301
7093.9
-193.379
7130.07
-197.627
7173.04
-202.878
7224.5
-208.175
7283.85
-213.247
7351.8
-217.669
7427.74
-221.484
7511.97
-224.259
7602.92
-224.935
7698.98
-222.833
7798.2
-218.091
7899.1
-210.821
8000.01
-201.063
8099.62
-188.847
8195.19
-172.855
8283.34
-152.985
8362.81
-131.097
8432.62
-107.93
8492.27
-83.7249
8541.01
-58.7068
8578.65
-33.1135
8604.68
-7.14201
8619.13
19.0031
8621.76
45.0384
8612.82
70.8399
8592.25
96.4338
8560.54
121.351
8517.29
146.458
8465
168.01
8392.59
192.417
165.965
2144.98
-406.994
2273.93
-445.943
2405.77
-459.755
2530.35
-444.012
2651.73
-417.144
2760.84
-387.332
2867.24
-361.814
2963.58
-334.739
3057.54
-314.433
3145.63
-294.773
3231.42
-282.405
3317.32
-284.098
3405.47
-298.718
3496.53
-314.979
3588.64
-326.626
3681.37
-336.221
3773.55
-345.471
3866.25
-359.394
3959.71
-373.406
4053.15
-381.462
4145.68
-382.429
4235.6
-374.045
4322.17
-359.556
4404.31
-343.694
4482.96
-329.409
4557.17
-317.316
4628.05
-306.934
4695.16
-298.339
4758.47
-288.999
4816.56
-279.321
4870.2
-272.131
4919.24
-267.477
4963.88
-262.568
5003.87
-257.068
5039.86
-251.175
5072.04
-246.831
5101.41
-246.605
5128.89
-249.008
5155.43
-251.733
5181.1
-252.617
5205.49
-251.893
5228.47
-252.632
5249.57
-254.205
5268.42
-255.143
5284.44
-254.064
5297.27
-249.01
5306.92
-241.538
5311.16
-234.945
5313.48
-228.646
5310.88
-221.506
5306.11
-212.585
5295.73
-201.967
5283.43
-192.774
5265.79
-185.106
5244.76
-177.319
5215.41
-167.943
5179.77
-157.729
5133.61
-147.853
5079.36
-137.355
5012.62
-127.445
4936.43
-116
4847.89
-106.296
4751.58
-95.562
4646.75
-87.9894
4539.98
-82.2694
4433.14
-83.3219
4335.03
-90.2126
4249.56
-105.37
4184.38
-126.032
4141.21
-152.366
4124.02
-181.673
4132.53
-213.501
4168.89
-245.937
4231.73
-278.084
4320.32
-307.793
4431.36
-334.417
4562.91
-357.374
4712.67
-376.448
4879.55
-391.258
5061.39
-401.523
5255.34
-406.244
5457.89
-405.019
5666.13
-398.437
5879.36
-387.303
6096.84
-371.662
6316.03
-351.291
6533.16
-326.076
6743.85
-295.207
6943.91
-259.575
7131.26
-221.052
7303.67
-180.164
7459.63
-137.345
7597.65
-93.4117
7717.07
-48.8199
7817.09
-3.85872
7897.68
40.6599
7957.89
86.0875
7999.76
126.12
8009.01
183.114
166.359
2299.76
-527.998
2428.64
-576.63
2556.45
-588.936
2675.31
-565.875
2789.88
-530.308
2892.05
-492.054
2990.85
-458.984
3079.27
-424.68
3164.42
-398.276
3242.4
-372.477
3316.01
-354.912
3386.96
-354.164
3457
-368.548
3526.79
-384.388
3594.13
-394.193
3657.89
-399.887
3716.22
-404.049
3770.51
-413.937
3822.49
-425.744
3872.79
-432.167
3922.05
-432.09
3969.82
-422.44
4015.4
-405.381
4057.29
-386.18
4096.25
-368.217
4130.17
-351.455
4159.41
-335.617
4183.83
-322.426
4202.76
-306.913
4213.12
-288.626
4215.37
-272.777
4209.76
-260.335
4196.43
-247.173
4174.59
-233.22
4145.16
-219.281
4108.84
-207.997
4066.69
-201.62
4019.31
-198.727
3967.55
-196.914
3912.12
-193.943
3853.19
-189.647
3790.05
-185.974
3720.57
-181.205
3642.57
-173.491
3554.87
-162.86
3459.17
-148.751
3357.41
-132.044
3247.82
-123.402
3139.74
-113.538
3033.57
-114.631
2939.37
-111.536
2853.94
-115.925
2784.96
-116.925
2726.66
-126.699
2681.38
-126.332
2634.17
-122.089
2581.35
-99.9959
2508.27
-76.6448
2417.57
-43.6564
2299.77
-12.3897
2166.44
19.1124
2021.18
36.0404
1886
39.9861
1768.63
26.1308
1685.91
0.140722
1636.85
-37.3524
1626.55
-80.8728
1647.74
-129.549
1700.11
-179.602
1775.63
-230.559
1872.8
-280.277
1985.43
-328.61
2112.31
-374.337
2249.68
-417.668
2397.96
-457.664
2555.53
-493.998
2722.7
-526.119
2898.31
-553.845
3082.05
-576.527
3273.06
-594.113
3472
-606.62
3679.36
-613.74
3894.91
-615.299
4117.9
-611.458
4346.88
-601.809
4580.54
-585.92
4817.73
-564.262
5059
-537.255
5303.48
-504.884
5548.99
-467.161
5792.46
-424.301
6030.7
-376.016
6259.91
-323.12
6477.14
-266.334
6679.1
-206.153
6863.67
-144.061
7027.97
-78.4228
7172.32
-18.2802
7283.72
71.6275
90.2084
2391.83
-632.06
2500.14
-686.228
2606.38
-695.842
2704.24
-666.197
2798.19
-622.387
2879.83
-576.328
2957.47
-535.289
3023.76
-493.411
3085.41
-459.766
3137.63
-425.638
3182.25
-399.635
3220.32
-392.185
3253.46
-402.026
3282.68
-413.286
3305.64
-417.276
3320.36
-414.346
3323.57
-407.671
3316.7
-407.702
3303.6
-413.559
3287.02
-416.497
3270.61
-416.537
3257.27
-410.14
3247.97
-396.569
3241.9
-380.962
3240.38
-366.637
3238.89
-350.39
3236.12
-332.181
3232.39
-318.079
3225.08
-297.786
3206.88
-268.222
3179.05
-241.644
3144.3
-222.186
3102.05
-200.754
3048.59
-175.635
2984.53
-150.428
2911.45
-129.952
2829.75
-114.368
2738.18
-101.306
2636.95
-89.3614
2528.39
-78.4453
2416.46
-70.221
2303.84
-64.9768
2186.17
-54.7407
2053.65
-31.6988
1897.98
1.85343
1723.06
37.8726
1539.36
69.2099
1346.6
74.9244
1177.46
69.3684
1027.5
38.4328
919.593
9.35337
830.575
-23.3939
775.378
-49.0081
731.883
-80.3506
718.058
-102.602
712.084
-115.352
729.711
-109.675
745.79
-92.9139
774.657
-67.738
807.912
-47.1875
863.35
-33.531
930.05
-32.7026
1015.13
-44.1819
1107.84
-69.1637
1211.83
-103.873
1318.58
-146.77
1431.02
-194.16
1543.46
-244.789
1658.71
-296.116
1772.9
-347.457
1888.52
-397.561
2003.57
-446.362
2120.46
-493.103
2237.95
-537.761
2357.9
-579.666
2479.77
-618.364
2604.89
-653.349
2733.28
-684.578
2866.3
-711.641
3004.36
-734.322
3148.23
-752.498
3298.36
-765.791
3454.96
-773.745
3618.21
-776.372
3788.37
-773.608
3966.14
-765.08
4151.42
-750.927
4344.07
-731.02
4542.97
-704.914
4747.26
-672.303
4955.72
-633.625
5168.12
-589.014
5383.19
-538.818
5599.62
-483.15
5814.54
-421.479
6025.14
-354.859
6227.32
-280.842
6419.34
-210.365
6592.89
-102.022
-44.9515
2372.86
-714.388
2458.03
-773.276
2538.28
-777.83
2607.97
-739.171
2671.92
-684.93
2721.56
-628.824
2765.35
-577.181
2795.66
-525.414
2819.7
-482.077
2831.8
-437.235
2833.06
-399.294
2824.2
-382.016
2807.47
-384.936
2785.14
-390.391
2755.07
-387.558
2714.36
-373.522
2656.48
-350.182
2581.44
-333.025
2495.43
-328.042
2404.34
-326.002
2317.54
-330.327
2245.11
-338.743
2192.37
-344.202
2160.36
-349.925
2149.52
-355.588
2148.4
-349.632
2152.16
-335.018
2164.98
-330.393
2185.72
-316.83
2196.81
-277.488
2191.84
-233.833
2176.48
-204.048
2154.89
-175.28
2123.68
-140.501
2087.93
-109.687
2052.57
-89.2091
2010.32
-65.8429
1951.44
-35.7278
1879.53
-10.1777
1802.86
6.13682
1721.63
19.3213
1626.6
39.0292
1516.31
64.8138
1405.03
89.301
1303.88
112.518
1219.95
134.318
1149.68
157.836
1061.56
168.736
988.71
156.061
913.269
116.285
858.939
75.3748
801.843
35.6247
765.461
-2.52436
731.286
-45.4962
718.777
-83.608
712.96
-110.899
730.185
-122.435
757.404
-122.12
806.01
-114.038
863.931
-107.807
938.175
-106.56
1017.81
-115.086
1107.4
-133.697
1198.69
-163.399
1295.83
-201.445
1392.7
-246.417
1492.87
-295.28
1592.16
-346.783
1693.73
-398.829
1794.56
-450.751
1897.11
-501.483
1999.31
-550.893
2103.07
-598.332
2206.91
-643.732
2312.23
-686.554
2418.35
-726.465
2526.46
-763.046
2636.3
-796.23
2748.72
-825.636
2863.75
-850.999
2981.91
-872.17
3103.57
-888.929
3229.45
-901.044
3360.24
-908.449
3496.29
-910.956
3638.16
-908.045
3785.75
-899.654
3939.51
-885.682
4099.61
-865.988
4266.85
-840.267
4440.8
-808.361
4621.21
-769.966
4806.81
-725.02
4997.15
-673.856
5191.58
-616.33
5389.74
-553.229
5589.54
-480.894
5789.53
-410.439
5988.73
-301.334
-214.205
2286.27
-770.755
2338.08
-826.825
2377.83
-818.873
2402.78
-767.313
2420.34
-700.491
2422.61
-634.448
2419.31
-572.025
2402.58
-511.697
2381.16
-459.953
2348.18
-405.066
2304.1
-354.706
2249.51
-326.876
2187.92
-323.738
2123.35
-325.208
2053.7
-318.369
1974.42
-294.034
1873.05
-249.714
1746.33
-207.474
1604.37
-187.738
1459.62
-182.93
1331.38
-203.75
1238
-247.534
1184.62
-292.052
1168.11
-335.37
1186.63
-374.545
1221.5
-385.659
1257.91
-370.678
1296.77
-368.598
1354.56
-371.895
1427.33
-346.708
1486.21
-287.229
1511.18
-223.261
1516.89
-173.74
1514.92
-131.128
1505.19
-91.2512
1486.6
-61.4948
1461.81
-31.1049
1429.19
7.00313
1388.53
40.8499
1342.99
62.3104
1296.65
76.2997
1250.8
95.6102
1204.45
121.687
1159.04
145.086
1114.46
166.767
1071.91
188.56
1036.81
209.103
992.593
218.83
956.991
204.708
910.985
165.796
874.326
123.61
832.849
80.7306
805.393
35.4176
778.198
-15.4518
766.125
-63.8639
758.838
-102.487
770.124
-127.734
790.134
-141.841
828.961
-149.014
876.779
-156.477
940.221
-167.558
1009.63
-185.949
1089.26
-212.377
1171.34
-247.577
1259.61
-289.639
1348.17
-337.298
1440.35
-388.187
1532.12
-441.102
1626.46
-494.346
1720.39
-547.24
1816.2
-598.902
1911.82
-649.126
2009.03
-697.406
2106.36
-743.637
2205.1
-787.373
2304.37
-828.261
2405.05
-865.896
2506.56
-900.16
2609.53
-930.795
2713.9
-957.646
2820.19
-980.605
2928.63
-999.445
3039.48
-1013.91
3153.08
-1023.91
3269.7
-1029.4
3390.17
-1030.12
3514.88
-1025.96
3644.52
-1016.64
3779.05
-1001.85
3919.06
-981.321
4064.66
-955.017
4216.72
-922.804
4375.29
-884.39
4540.52
-839.602
4711.57
-787.926
4888.16
-730.109
5069.88
-662.939
5256.81
-597.497
5455.72
-500.376
-394.748
2124.74
-787.429
2123.41
-827.802
2104.4
-802.079
2071.9
-739.111
2037.29
-664.154
1992.28
-593.34
1947.66
-524.625
1893.7
-460.156
1840.9
-404.312
1779.84
-343.062
1709.95
-281.971
1631.47
-246.059
1549.33
-240.93
1469.29
-244.12
1388.43
-238.262
1300.34
-205.724
1186.11
-136.294
1041.85
-64.0342
888.815
-35.7284
751.901
-47.3248
655.275
-108.362
609.417
-203.729
604.481
-288.005
621.951
-354.734
662.813
-415.318
723.163
-446.671
787.685
-433.777
840.243
-420.421
895.493
-424.579
966.746
-415.068
1040.71
-356.937
1092.46
-271.171
1122.63
-198.729
1137.12
-140.451
1141.84
-89.5574
1140.44
-53.4133
1138.82
-22.0965
1136.97
16.3459
1131.26
54.2002
1120.43
80.9432
1106.49
97.9592
1091.32
118.633
1074.46
146.411
1053.5
174.112
1025.38
202.717
992.124
232.074
958.673
257.618
912.531
269.931
875.249
254.015
828.552
214.133
793.346
167.998
756.745
118.306
736.094
63.3471
718.081
2.52108
715.778
-57.107
719.101
-107.402
739.864
-145.453
768.309
-172.373
813.061
-192.266
864.704
-210.797
929.245
-231.359
997.666
-257.092
1074.17
-289.028
1151.65
-327.935
1233.99
-372.523
1315.82
-421.833
1400.59
-473.932
1484.64
-527.764
1571.02
-581.853
1657
-635.591
1744.95
-688.166
1832.95
-739.353
1922.77
-788.616
2012.9
-835.798
2104.51
-880.452
2196.65
-922.282
2290.17
-960.909
2384.49
-996.2
2480.08
-1027.87
2576.62
-1055.76
2674.35
-1079.78
2773.31
-1099.82
2873.76
-1115.74
2976.05
-1127.45
3080.24
-1134.87
3186.77
-1137.74
3295.71
-1136.05
3407.84
-1129.7
3523.47
-1118.49
3643.53
-1102.13
3768.05
-1080.38
3897.7
-1053.03
4032.56
-1019.91
4173.53
-980.979
4320.9
-935.767
4475.21
-884.652
4636.39
-824.408
4803.48
-764.684
4987.76
-684.778
-570.205
1870.33
-738.937
1805.06
-765.194
1732.46
-731.828
1658.05
-669.57
1593.7
-597.304
1527.29
-531.962
1469.89
-464.221
1407.19
-401.949
1351.38
-346.773
1288.6
-280.999
1217.06
-208.911
1136.96
-164.685
1055.23
-159.849
979.968
-167.761
907.348
-166.94
831.69
-129.887
732.339
-39.2423
613.734
51.8981
511.362
63.5479
447.002
14.0521
423.399
-87.5264
430.515
-214.458
455.796
-315.672
483.92
-386.386
521.557
-454.378
572.435
-499.71
627.827
-488.594
670.036
-462.168
707.753
-458.852
755.64
-457.985
817.005
-410.808
871.381
-318.299
910.13
-228.78
933.4
-155.017
947.395
-93.5131
954.886
-50.5169
961.062
-17.1476
968.598
19.9987
975.216
58.83
977.403
90.1511
973.181
113.606
963.214
140.216
949.854
171.339
931.799
203.657
906.336
239.002
876.579
274.599
846.721
304.787
805.846
317.594
776.495
297.453
739.273
255.245
715.021
203.581
690.907
145.96
682.836
81.0125
677.519
10.5077
686.446
-59.1603
699.735
-119.581
727.977
-168.354
761.879
-205.931
809.334
-236.216
861.594
-263.75
924.456
-291.937
989.609
-323.528
1061.34
-359.828
1133.11
-401.64
1208.9
-448.213
1283.71
-498.84
1361.1
-552.022
1437.69
-606.805
1516.6
-661.914
1595.22
-716.715
1675.9
-770.441
1756.77
-822.803
1839.58
-873.291
1922.9
-921.686
2007.9
-967.538
2093.6
-1010.52
2180.74
-1050.24
2268.66
-1086.56
2357.79
-1119.24
2447.82
-1148.12
2538.93
-1173.08
2630.98
-1194.02
2723.96
-1210.81
2818.02
-1223.45
2913.14
-1231.92
3009.76
-1236.06
3107.85
-1235.84
3207.87
-1231.15
3309.82
-1221.9
3414.48
-1207.96
3522.14
-1189.23
3633.72
-1165.51
3749.43
-1136.54
3869.99
-1102.16
3995.62
-1062.03
4127.29
-1016.68
4265.94
-963.452
4410.77
-909.672
4574.41
-848.584
-731.458
1529.9
-659.935
1442.09
-680.467
1352.46
-645.479
1269.64
-592.931
1208.23
-533.459
1151.38
-480.945
1110.25
-418.826
1063.78
-359.163
1025.66
-303.942
975.892
-229.462
911.711
-139.418
834.673
-83.0452
755.615
-79.1586
686.901
-96.8445
625.088
-106.728
568.745
-73.0292
502.849
25.0951
439.119
114.385
403.664
97.8971
396.597
19.7047
406.864
-98.9907
423.838
-233.561
445.249
-337.885
463.573
-406.628
486.41
-476.928
518.586
-532.372
558.204
-526.274
590.109
-493.05
616.73
-482.221
648.069
-485.664
693.076
-450.457
737.57
-358.504
775.036
-260.795
802.297
-177.125
821.446
-106.384
832.135
-54.6846
838.647
-16.434
845.127
20.8551
851.586
59.7635
855.665
93.5383
853.504
123.167
844.896
156.47
833.473
190.642
817.816
227.55
795.546
269.366
770.638
310.174
746.944
344.624
714.462
354.932
694.997
328.246
668.654
282.529
655.023
225.107
641.607
159.567
643.239
85.2819
647.171
5.87799
663.963
-72.5732
684.087
-141.703
717.332
-199.396
754.723
-245.684
803.599
-284.156
855.64
-318.615
916.456
-352.391
978.234
-388.116
1045.35
-427.297
1111.75
-470.938
1181.55
-518.667
1250.1
-570.083
1321.01
-623.936
1391.06
-679.424
1463.39
-735.347
1535.48
-791.119
1609.71
-845.923
1684.21
-899.444
1760.72
-951.112
1837.8
-1000.69
1916.6
-1047.72
1996.19
-1091.88
2077.33
-1132.78
2159.39
-1170.23
2242.72
-1203.96
2326.96
-1233.82
2412.23
-1259.71
2498.4
-1281.51
2585.43
-1299.14
2673.35
-1312.55
2761.93
-1321.71
2851.39
-1326.56
2941.56
-1327.12
3032.87
-1323.37
3125.23
-1315.24
3219.19
-1302.66
3314.7
-1285.57
3412.45
-1263.85
3512.69
-1237.44
3616.38
-1206.27
3723.86
-1170
3836
-1129.06
3953.86
-1081.62
4076.05
-1031.96
4213.85
-986.507
-872.503
1239.84
-564.68
1134.11
-578.951
1039.86
-555.234
969.462
-529.955
934.917
-495.796
909.107
-462.261
900.946
-406.288
881.757
-345.998
866.803
-285.913
830.142
-193.296
768.548
-75.1395
686.645
0.858777
601.957
4.5154
535.021
-28.4712
481.106
-55.0328
439.404
-31.2354
406.319
55.1418
387.431
130.244
385.977
96.3525
396.569
6.07756
411.948
-117.268
424.445
-250.139
436.007
-352.569
444.255
-419.375
456.76
-491.772
476.52
-554.953
505.699
-555.151
531.53
-518.72
551.775
-498.826
573.399
-501.46
605.313
-472.992
636.626
-381.363
666.471
-280.855
692.221
-193.247
713.421
-116.596
726.597
-56.4729
734.437
-12.0499
740.674
27.0192
745.967
66.9633
749.317
102.847
746.657
138.504
738.659
177.404
729.931
212.376
718.089
252.222
700.34
299.237
680.627
344.052
663.206
381.246
638.088
387.458
626.196
354.108
608.131
304.526
602.974
240.997
598.534
167.284
608.755
83.8936
621.012
-3.99387
645.039
-90.3278
671.345
-167.058
709.039
-232.231
749.285
-285.676
799.017
-330.689
850.297
-370.591
908.695
-408.684
966.89
-447.558
1029.4
-488.951
1090.62
-534.025
1154.81
-582.775
1217.59
-635
1282.66
-689.688
1346.91
-746.076
1413.46
-803.038
1479.83
-859.946
1548.31
-915.982
1617.08
-970.765
1687.85
-1023.73
1759.2
-1074.59
1832.3
-1122.89
1906.21
-1168.31
1981.7
-1210.46
2058.15
-1249.12
2135.98
-1284.02
2214.83
-1315
2294.83
-1341.91
2375.79
-1364.63
2457.61
-1383.08
2540.29
-1397.19
2623.58
-1406.97
2707.63
-1412.35
2792.11
-1413.36
2877.27
-1410.02
2962.81
-1402.3
3049.15
-1390.24
3136.17
-1373.84
3224.42
-1353.06
3313.86
-1327.87
3405.21
-1298.3
3498.63
-1264.12
3594.96
-1225.8
3695.44
-1182.53
3798.5
-1135.21
3911.7
-1099.88
-992.678
965.2
-454.953
859.423
-477.46
791.088
-491.255
763.011
-509.948
774.584
-504.498
787.935
-482.595
811.891
-424.95
815.514
-353.606
817.191
-281.257
786.528
-159.583
721.347
-2.32986
630.864
97.7439
537.89
100.319
469.931
42.3425
422.219
-8.93075
390.266
1.44902
373.284
71.1516
372.435
130.452
379.832
88.4338
392.168
-7.44453
407.704
-133.814
416.831
-261.326
419.388
-355.94
419.08
-420.983
425.185
-497.384
436.007
-565.863
456.533
-573.23
477.858
-538.672
494.125
-511.262
510.309
-513.376
533.714
-490.011
553.934
-396.827
574.643
-295.663
595.663
-208.787
615.809
-130.17
629.482
-63.4051
638.451
-13.5869
645.881
27.116
651.993
68.332
655.843
106.346
653.817
147.712
647.724
190.995
641.489
226.512
632.311
269.817
617.797
322.308
601.698
371.85
590.174
410.277
571.608
410.1
565.824
369.816
555.322
315.115
558.473
244.542
562.974
162.236
581.662
70.0869
601.77
-25.3736
632.277
-118.226
663.734
-200.894
704.758
-271.657
746.716
-330.261
796.313
-379.778
846.007
-423.275
901.413
-464.03
955.685
-504.746
1013.53
-547.326
1069.73
-593.168
1128.67
-642.467
1186.21
-695.239
1246.04
-750.547
1305.14
-807.703
1366.54
-865.541
1427.8
-923.444
1491.13
-980.522
1554.71
-1036.4
1620.21
-1090.46
1686.24
-1142.46
1753.98
-1191.9
1822.52
-1238.52
1892.68
-1281.89
1963.87
-1321.8
2036.53
-1357.95
2110.33
-1390.16
2185.42
-1418.24
2261.64
-1442.07
2338.9
-1461.52
2417.15
-1476.53
2496.12
-1487.06
2575.9
-1493.08
2656.12
-1494.62
2736.94
-1491.67
2817.98
-1484.27
2899.5
-1472.46
2981.18
-1456.32
3063.4
-1435.84
3145.96
-1411.07
3229.39
-1382.12
3313.7
-1348.91
3399.48
-1311.81
3487.63
-1270.98
3576.95
-1224.63
3670.1
-1193.15
-1094.11
725.728
-346.815
650.214
-407.95
634.507
-481.006
656.812
-541.089
705.836
-550.545
743.981
-528.158
784.619
-460.773
799.735
-374.587
809.936
-287.443
778.712
-128.281
709.036
70.0047
614.534
193.662
518.172
195.535
447.665
113.673
402.189
34.4788
376.295
27.3905
365.346
79.7164
368.949
124.306
376.655
78.1549
386.043
-19.9198
399.93
-150.843
406.01
-272.218
399.827
-353.891
391.208
-417.952
393.069
-502.481
397.457
-573.643
410.013
-585.654
426.909
-555.592
440.096
-520.602
453.112
-519.67
471.303
-497.017
483.194
-399.147
495.9
-297.423
511.23
-213.262
528.22
-134.847
540.587
-62.9975
549.98
-9.21334
559.122
31.9795
567.563
73.9477
572.815
115.259
572.191
162.486
568.81
208.849
564.171
245.774
555.945
292.475
543.239
348.859
529.314
402.035
523.823
438
512.793
428.913
513.349
382.783
510.564
321.723
522.126
243.153
535.291
152.058
561.806
51.8016
588.742
-50.2118
624.565
-148.269
659.929
-235.502
703.123
-310.4
745.753
-372.773
794.414
-425.524
841.958
-471.58
894.092
-514.249
944.41
-556.332
997.775
-599.926
1049.32
-646.564
1103.52
-696.633
1156.39
-750.213
1211.6
-806.442
1266.13
-864.587
1322.94
-923.483
1379.54
-982.46
1438.09
-1040.63
1496.76
-1097.57
1557.19
-1152.72
1618.06
-1205.82
1680.52
-1256.42
1743.75
-1304.24
1808.58
-1348.89
1874.5
-1390.12
1941.96
-1427.63
2010.71
-1461.2
2080.91
-1490.62
2152.43
-1515.74
2225.22
-1536.4
2299.25
-1552.52
2374.27
-1564.03
2450.33
-1570.89
2527.07
-1573.12
2604.61
-1570.71
2682.52
-1563.71
2760.99
-1552.18
2839.6
-1536.22
2918.65
-1515.87
2997.78
-1491.22
3077.36
-1462.41
3157.2
-1429.48
3237.66
-1392.71
3319.21
-1353
3401.5
-1307.12
3482.76
-1274.61
-1182.24
537.182
-255.112
517.711
-393.073
554.848
-522.569
609.245
-603.234
674.342
-612.986
721.189
-581.592
767.505
-501.904
788.482
-399.218
802.46
-294.384
771.578
-93.8451
704.077
144.778
613.258
290.498
517.599
294.414
443.09
190.993
397.184
79.1354
374.458
51.0125
365.711
88.1034
369.888
119.886
375.161
72.7648
379.84
-25.5689
390.335
-162.021
392.928
-276.584
378.94
-340.238
362.846
-403.29
361.89
-500.466
362.098
-573.383
367.119
-587.509
378.268
-564.792
387.781
-525.345
398.328
-524.935
412.92
-504.142
418.465
-399.438
425.138
-297.724
435.614
-217.85
449.288
-141.616
460.234
-67.0644
469.99
-11.577
480.735
28.5022
491.755
69.9519
497.512
116.278
497.629
169.14
497.707
216.126
494.782
256.604
487.22
308.555
476.067
369.056
464.342
426.356
464.091
455.991
460.72
435.174
467.961
383.961
473.227
315.693
493.25
228.75
514.673
129.427
548.181
22.3359
580.844
-84.6304
620.796
-186.23
658.906
-276.307
703.253
-353.62
745.724
-418.088
792.873
-472.498
837.937
-519.772
886.741
-563.235
933.278
-605.873
982.552
-649.882
1029.98
-696.967
1080.06
-747.548
1128.93
-801.777
1180.15
-858.719
1230.72
-917.643
1283.45
-977.294
1335.83
-1037.02
1389.94
-1095.9
1443.97
-1153.56
1499.53
-1209.44
1555.34
-1263.35
1612.58
-1314.84
1670.48
-1363.69
1729.89
-1409.48
1790.37
-1451.98
1852.41
-1490.84
1915.81
-1525.83
1980.76
-1556.71
2047.2
-1583.28
2115.07
-1605.37
2184.42
-1622.85
2255.02
-1635.65
2326.94
-1643.69
2399.85
-1646.97
2473.86
-1645.47
2548.56
-1639.26
2624.13
-1628.38
2700.12
-1612.94
2776.78
-1593.02
2853.71
-1568.74
2931.19
-1540.25
3008.95
-1507.69
3087.23
-1471.2
3166
-1432.05
3245.7
-1386.91
3322.96
-1351.99
-1263.52
409.076
-231.654
449.396
-439.721
514.538
-593.256
577.601
-674.75
643.956
-676.851
691.491
-635.901
739.837
-545.204
765.385
-429.882
782.569
-306.446
757.042
-67.4738
696.474
208.123
612.472
375.8
521.207
384.878
445.848
266.904
398.843
124.376
377.354
72.7065
369.01
94.7694
371.424
115.349
372.637
69.2211
372.06
-28.367
378.488
-171.94
377.369
-281.165
356.737
-324.907
335.403
-388.697
332.784
-501.699
329.042
-573.289
326.581
-584.698
331.165
-569.242
336.667
-526.474
345.406
-525.715
357.301
-503.151
357.517
-389.229
359.881
-288.234
366.886
-212.876
377.972
-139.223
387.985
-63.1425
397.943
-6.48086
409.614
32.1546
422.438
72.4819
427.346
126.647
427.173
184.669
430.477
228.696
429.81
273.3
423.604
330.736
413.868
394.267
406.61
452.713
411.967
472.93
415.129
439.712
429.526
382.425
443.061
305.751
471.305
210.082
500.203
103.2
539.619
-9.41529
576.781
-119.981
619.696
-223.817
659.503
-315.562
704.169
-394.206
745.875
-459.827
791.177
-515.152
833.676
-563.125
879.312
-607.146
922.435
-650.311
968.149
-694.94
1012.09
-742.763
1058.76
-794.235
1104.32
-849.419
1152.23
-907.34
1199.45
-967.165
1248.65
-1027.63
1297.3
-1088.04
1347.41
-1147.54
1397.18
-1205.78
1448.21
-1262.27
1499.27
-1316.85
1551.55
-1369.14
1604.33
-1418.9
1658.5
-1465.77
1713.65
-1509.47
1770.3
-1549.66
1828.27
-1586.06
1887.82
-1618.4
1948.89
-1646.46
2011.49
-1670.04
2075.69
-1688.98
2141.29
-1703.18
2208.41
-1712.54
2276.74
-1717.04
2346.43
-1716.66
2417.07
-1711.44
2488.87
-1701.44
2561.4
-1686.76
2634.88
-1667.5
2708.91
-1643.8
2783.76
-1615.82
2859.1
-1583.77
2935.17
-1547.72
3011.62
-1508.98
3089.14
-1464.65
3165.11
-1428.15
-1341.54
352.039
-251.064
412.942
-504.368
480.767
-664.684
540.654
-741.553
603.288
-737.097
649.347
-688.163
699.29
-590.021
729.626
-463.588
751.685
-320.547
733.394
-45.2477
681.426
267.45
605.076
458.241
520.291
473.294
447.003
343.16
399.263
171.199
378.541
94.5066
370.107
103.23
369.907
115.44
366.807
72.301
361.636
-24.2857
364.552
-175.457
359.445
-277.93
332.656
-298.212
308.262
-364.949
304.439
-495.734
295.384
-562.908
284.945
-570.159
282.331
-563.832
283.218
-521.026
290.604
-526.265
301.166
-505.313
297.708
-380.033
297.598
-281.154
302.812
-211.556
312.273
-141.287
322.162
-65.8068
332.69
-9.42991
345.095
26.914
358.696
65.4559
364.241
127.135
365.514
189.603
369.771
231.564
370.112
281.017
365.373
344.616
356.599
412.914
355.322
467.515
367.967
475.041
376.524
432.712
398.188
367.754
420.036
282.362
455.966
178.807
491.33
66.0493
535.414
-50.1784
575.838
-162.562
620.6
-267.095
661.181
-359.088
705.47
-437.744
745.945
-503.314
789.183
-558.48
829.126
-606.3
871.817
-650.211
911.915
-693.477
954.591
-738.419
995.644
-786.814
1039.5
-838.993
1082.36
-894.956
1127.52
-953.571
1171.88
-1013.97
1218.02
-1074.83
1263.37
-1135.51
1309.9
-1195.18
1355.82
-1253.59
1402.75
-1310.29
1449.48
-1365.22
1497.25
-1418
1545.36
-1468.46
1594.71
-1516.2
1644.91
-1560.95
1696.53
-1602.33
1749.39
-1640.05
1803.77
-1673.81
1859.65
-1703.34
1917.07
-1728.44
1976.11
-1748.91
2036.62
-1764.62
2098.75
-1775.45
2162.21
-1781.36
2227.18
-1782.31
2293.28
-1778.33
2360.74
-1769.46
2429.12
-1755.82
2498.67
-1737.5
2568.99
-1714.67
2640.34
-1687.49
2712.35
-1656.19
2785.28
-1620.84
2858.67
-1582.63
2933.06
-1539.12
3006.97
-1502.16
-1416.65
315.443
-300.941
379.347
-574.104
441.665
-732.32
495.489
-803.476
553.231
-792.662
597.016
-738.282
648.222
-635.706
682.765
-502.616
710.606
-341.742
701.199
-33.8135
659.393
313.044
591.346
528.213
513.297
551.184
442.709
414.454
395.014
217.483
375.693
114.314
366.984
110.826
363.996
116.523
357.227
76.6513
348.583
-19.7034
348.685
-179.739
339.017
-275.132
306.246
-272.194
280.587
-347.564
275.762
-495.391
259.781
-550.586
240.929
-550.303
231.252
-553.461
228.097
-512.446
235.342
-523.677
245.789
-501.305
239.683
-362.719
238.693
-267.324
243.015
-202.633
250.83
-134.142
261.093
-60.5108
272.681
-4.40681
285.956
30.4224
298.702
69.4426
305.516
136.96
310.784
201.23
315.032
244.689
314.888
298.827
310.643
366.789
302.726
438.981
306.103
485.006
327.594
474.16
343.382
424.252
373.273
349.975
403.466
255.461
446.296
144.929
486.89
27.7964
534.364
-90.5309
576.895
-203.556
622.571
-307.861
663.207
-399.368
706.641
-477.434
745.62
-542.478
786.748
-597.21
824.274
-644.779
864.325
-688.719
901.829
-732.351
941.972
-778.016
980.669
-827.369