# vtk DataFile Version 2.0
track0
ASCII
DATASET POLYDATA
POINTS 6515 float
-0.0205 0.001 1e-05
-0.0204727 0.00100011 1e-05
-0.0204454 0.00100021 1e-05
-0.0204181 0.00100032 1e-05
-0.0203908 0.00100042 1e-05
-0.0203635 0.00100053 1e-05
-0.0200299 0.00100179 1e-05
-0.0196963 0.0010031 1e-05
-0.0193627 0.0010044 1e-05
-0.0190291 0.00100568 1e-05
-0.0186954 0.00100695 1e-05
-0.018369 0.00100814 1e-05
-0.0180425 0.00100936 1e-05
-0.017716 0.00101057 1e-05
-0.0173896 0.00101177 1e-05
-0.0170631 0.00101295 1e-05
-0.0167436 0.00101405 1e-05
-0.0164242 0.00101519 1e-05
-0.0161047 0.00101632 1e-05
-0.0157852 0.00101744 1e-05
-0.0154657 0.00101854 1e-05
-0.0151531 0.00101957 1e-05
-0.0148405 0.00102062 1e-05
-0.0145279 0.00102167 1e-05
-0.0142152 0.00102272 1e-05
-0.0139026 0.00102374 1e-05
-0.0135967 0.00102469 1e-05
-0.0132908 0.00102568 1e-05
-0.0129848 0.00102666 1e-05
-0.0126789 0.00102763 1e-05
-0.012373 0.00102858 1e-05
-0.0120736 0.00102946 1e-05
-0.0117742 0.00103037 1e-05
-0.0114749 0.00103128 1e-05
-0.0111755 0.00103218 1e-05
-0.0108761 0.00103306 1e-05
-0.0105832 0.00103388 1e-05
-0.0102902 0.00103472 1e-05
-0.00999724 0.00103556 1e-05
-0.00970429 0.00103639 1e-05
-0.00941133 0.00103721 1e-05
-0.00912465 0.00103796 1e-05
-0.00883797 0.00103873 1e-05
-0.00855129 0.00103951 1e-05
-0.00826461 0.00104027 1e-05
-0.00797793 0.00104102 1e-05
-0.00769739 0.00104171 1e-05
-0.00741686 0.00104241 1e-05
-0.00713632 0.00104312 1e-05
-0.00685578 0.00104382 1e-05
-0.00657525 0.0010445 1e-05
-0.00630072 0.00104512 1e-05
-0.0060262 0.00104577 1e-05
-0.00575167 0.00104641 1e-05
-0.00547714 0.00104704 1e-05
-0.00520262 0.00104766 1e-05
-0.00493398 0.00104821 1e-05
-0.00466533 0.00104879 1e-05
-0.00439669 0.00104936 1e-05
-0.00412805 0.00104993 1e-05
-0.0038594 0.00105047 1e-05
-0.00359652 0.00105096 1e-05
-0.00333363 0.00105147 1e-05
-0.00307074 0.00105198 1e-05
-0.00280786 0.00105248 1e-05
-0.00254497 0.00105296 1e-05
-0.00228772 0.00105338 1e-05
-0.00203046 0.00105381 1e-05
-0.00177321 0.00105424 1e-05
-0.00151596 0.00105466 1e-05
-0.0012587 0.00105505 1e-05
-0.00100696 0.00105539 1e-05
-0.000755223 0.00105579 1e-05
-0.000503482 0.0010561 1e-05
-0.000251741 0.00105626 1e-05
0 0.00105621 1e-05
0.000329256 0.00105582 1e-05
0.000658511 0.00105561 1e-05
0.000987767 0.0010553 1e-05
0.00131702 0.00105471 1e-05
0.00164628 0.00105374 1e-05
0.00197921 0.0010522 1e-05
0.00231214 0.00105132 1e-05
0.00264507 0.00105059 1e-05
0.002978 0.00104971 1e-05
0.00331093 0.00104841 1e-05
0.00364757 0.00104618 1e-05
0.00398422 0.00104471 1e-05
0.00432087 0.00104335 1e-05
0.00465752 0.00104183 1e-05
0.00499415 0.00103984 1e-05
0.00533455 0.00103666 1e-05
0.00567496 0.00103411 1e-05
0.00601537 0.00103153 1e-05
0.00635577 0.00102871 1e-05
0.00669616 0.00102544 1e-05
0.00704036 0.00102092 1e-05
0.00738456 0.00101686 1e-05
0.00772877 0.00101262 1e-05
0.00807297 0.00100807 1e-05
0.00841716 0.00100313 1e-05
0.0087652 0.000997017 1e-05
0.00911325 0.000991202 1e-05
0.00946129 0.000985082 1e-05
0.00980932 0.000978627 1e-05
0.0101574 0.000971832 1e-05
0.0105093 0.000964042 1e-05
0.0108612 0.00095637 1e-05
0.0112131 0.000948397 1e-05
0.011565 0.000940117 1e-05
0.011917 0.000931523 1e-05
0.0122728 0.000922201 1e-05
0.0126287 0.000912893 1e-05
0.0129845 0.000903363 1e-05
0.0133404 0.000893609 1e-05
0.0136962 0.000883624 1e-05
0.0140561 0.000873169 1e-05
0.0144159 0.000862719 1e-05
0.0147757 0.000852178 1e-05
0.0151355 0.000841542 1e-05
0.0154954 0.00083081 1e-05
0.0155546 0.000829024 1e-05
0.0156139 0.000827241 1e-05
0.0156732 0.000825461 1e-05
0.0157325 0.000823682 1e-05
0.0157926 0.00082188 1e-05
0.016097 0.000812764 1e-05
0.0164014 0.000803689 1e-05
0.0167058 0.000794653 1e-05
0.0170102 0.00078566 1e-05
0.0173145 0.000776709 1e-05
0.0176824 0.000766098 1e-05
0.0180503 0.000755577 1e-05
0.0184183 0.000745292 1e-05
0.0187862 0.000735249 1e-05
0.019154 0.000725456 1e-05
0.019526 0.000716147 1e-05
0.019898 0.000706959 1e-05
0.0202701 0.000698183 1e-05
0.0206421 0.000689829 1e-05
0.0210141 0.000681909 1e-05
0.0213902 0.000674843 1e-05
0.0217664 0.000667966 1e-05
0.0221425 0.000661649 1e-05
0.0225187 0.000655904 1e-05
0.0228948 0.000650751 1e-05
0.0232752 0.000646737 1e-05
0.0236555 0.000643029 1e-05
0.0240359 0.000639958 1e-05
0.0244163 0.000637557 1e-05
0.0247966 0.000635904 1e-05
0.0251812 0.00063548 1e-05
0.0255658 0.000635466 1e-05
0.0259504 0.00063611 1e-05
0.026335 0.000637456 1e-05
0.0267196 0.00063957 1e-05
0.0271085 0.000642906 1e-05
0.0274973 0.000646669 1e-05
0.0278862 0.00065107 1e-05
0.0282751 0.000656132 1e-05
0.028664 0.000661861 1e-05
0.0290572 0.000668711 1e-05
0.0294505 0.00067593 1e-05
0.0298437 0.000683698 1e-05
0.0302369 0.000692012 1e-05
0.0306301 0.000700873 1e-05
0.0310278 0.000710614 1e-05
0.0314254 0.000720624 1e-05
0.031823 0.000731012 1e-05
0.0322206 0.000741775 1e-05
0.0326182 0.000752914 1e-05
0.0330203 0.000764651 1e-05
0.0334223 0.000776512 1e-05
0.0338244 0.000788549 1e-05
0.0342264 0.000800758 1e-05
0.0346285 0.00081314 1e-05
0.0346844 0.000814888 1e-05
0.0347404 0.000816635 1e-05
0.0347963 0.000818381 1e-05
0.0348523 0.000820126 1e-05
0.0349086 0.00082188 1e-05
0.0352591 0.000832804 1e-05
0.0356096 0.000843714 1e-05
0.0359601 0.00085461 1e-05
0.0363107 0.000865491 1e-05
0.0366612 0.000876358 1e-05
0.0370722 0.000889102 1e-05
0.0374833 0.000901593 1e-05
0.0378944 0.000913863 1e-05
0.0383055 0.000925916 1e-05
0.0387166 0.000937753 1e-05
0.0391322 0.000949523 1e-05
0.0395479 0.000960849 1e-05
0.0399636 0.000971773 1e-05
0.0403793 0.0009823 1e-05
0.0407949 0.000992432 1e-05
0.0412152 0.00100229 1e-05
0.0416355 0.00101156 1e-05
0.0420558 0.00102026 1e-05
0.0424761 0.0010284 1e-05
0.0428964 0.00103599 1e-05
0.0433214 0.00104312 1e-05
0.0437464 0.00104952 1e-05
0.0441714 0.00105521 1e-05
0.0445964 0.00106021 1e-05
0.0450213 0.00106451 1e-05
0.0454511 0.00106816 1e-05
0.0458808 0.00107097 1e-05
0.0463105 0.00107295 1e-05
0.0467403 0.00107412 1e-05
0.04717 0.00107446 1e-05
0.0476045 0.00107395 1e-05
0.048039 0.00107251 1e-05
0.0484736 0.00107012 1e-05
0.0489081 0.00106679 1e-05
0.0493426 0.00106251 1e-05
0.049782 0.00105721 1e-05
0.0502214 0.00105085 1e-05
0.0506607 0.00104344 1e-05
0.0511 0.00103496 1e-05
0.0515395 0.00102542 1e-05
0.0519838 0.00101467 1e-05
0.052428 0.00100274 1e-05
0.0528723 0.000989622 1e-05
0.0533164 0.000975323 1e-05
0.0537609 0.000959837 1e-05
0.0542102 0.000942943 1e-05
0.0546593 0.000924735 1e-05
0.0551085 0.000905199 1e-05
0.0555575 0.000884342 1e-05
0.0560071 0.000862145 1e-05
0.056161 0.000854092 1e-05
0.0563148 0.000845871 1e-05
0.0564686 0.000837478 1e-05
0.0566225 0.000828914 1e-05
0.0567463 0.00082188 1e-05
0.0570528 0.000804207 1e-05
0.0573591 0.000785874 1e-05
0.0576654 0.000766884 1e-05
0.0579717 0.000747239 1e-05
0.0582784 0.000726916 1e-05
0.0587377 0.000695478 1e-05
0.0591969 0.00066247 1e-05
0.059656 0.000627839 1e-05
0.060115 0.000591596 1e-05
0.060575 0.000553636 1e-05
0.0610394 0.000513633 1e-05
0.0615037 0.000471901 1e-05
0.0619678 0.000428449 1e-05
0.0624318 0.000383188 1e-05
0.0628972 0.000335904 1e-05
0.0633668 0.000286285 1e-05
0.0638362 0.000234722 1e-05
0.0643054 0.000181187 1e-05
0.0647744 0.000125637 1e-05
0.0652453 6.78062e-05 1e-05
0.0653519 5.42449e-05 1e-05
0.0654584 4.0573e-05 1e-05
0.0655649 2.67868e-05 1e-05
0.0656714 1.28843e-05 1e-05
0.0657692 -1.69407e-21 1e-05
0.0661393 -4.91065e-05 1e-05
0.0665092 -9.95528e-05 1e-05
0.066879 -0.000151333 1e-05
0.0672485 -0.000204442 1e-05
0.0676197 -0.000259164 1e-05
0.0680998 -0.000331827 1e-05
0.0685797 -0.000406849 1e-05
0.0690591 -0.000484218 1e-05
0.0695381 -0.000564105 1e-05
0.0700205 -0.000647292 1e-05
0.0704427 -0.000722502 1e-05
0.0708645 -0.000799743 1e-05
0.0712858 -0.000879091 1e-05
0.0717068 -0.000960623 1e-05
0.0720219 -0.00102334 1e-05
0.0721071 -0.00104065 1e-05
0.0721924 -0.00105805 1e-05
0.0722776 -0.00107553 1e-05
0.0723628 -0.0010931 1e-05
0.0724481 -0.00111079 1e-05
0.0729391 -0.00121307 1e-05
0.0734294 -0.00131837 1e-05
0.073919 -0.00142676 1e-05
0.074408 -0.00153825 1e-05
0.0749029 -0.00165458 1e-05
0.0753024 -0.00175138 1e-05
0.0757013 -0.00185042 1e-05
0.0760997 -0.00195172 1e-05
0.0764975 -0.00205539 1e-05
0.0768091 -0.00213858 1e-05
0.0769243 -0.00216991 1e-05
0.0770394 -0.00220142 1e-05
0.0771545 -0.00223312 1e-05
0.0772695 -0.002265 1e-05
0.077385 -0.00229722 1e-05
0.0778869 -0.00243822 1e-05
0.0783878 -0.00258305 1e-05
0.0788876 -0.00273171 1e-05
0.0793861 -0.00288429 1e-05
0.0798948 -0.00304454 1e-05
0.0800856 -0.00310643 1e-05
0.0802762 -0.00316893 1e-05
0.0804666 -0.00323206 1e-05
0.0806568 -0.00329581 1e-05
0.0808284 -0.00335397 1e-05
0.0811493 -0.00346376 1e-05
0.0814695 -0.00357528 1e-05
0.0817891 -0.00368853 1e-05
0.0821081 -0.00380351 1e-05
0.0824326 -0.00392254 1e-05
0.0828374 -0.00407374 1e-05
0.0832411 -0.00422793 1e-05
0.0836436 -0.00438513 1e-05
0.0840449 -0.0045453 1e-05
0.0843716 -0.00467851 1e-05
0.0844971 -0.00473055 1e-05
0.0846224 -0.00478289 1e-05
0.0847475 -0.00483552 1e-05
0.0848726 -0.00488844 1e-05
0.0849987 -0.0049422 1e-05
0.0855177 -0.00516481 1e-05
0.0860344 -0.00539268 1e-05
0.0865487 -0.00562584 1e-05
0.0870606 -0.00586412 1e-05
0.0875935 -0.00611866 1e-05
0.0875949 -0.00611933 1e-05
0.0875962 -0.00612 1e-05
0.0875976 -0.00612067 1e-05
0.087599 -0.00612133 1e-05
0.0876003 -0.006122 1e-05
0.0881237 -0.00637896 1e-05
0.0886444 -0.0066414 1e-05
0.0891622 -0.0069094 1e-05
0.0896771 -0.00718287 1e-05
0.0902172 -0.00747669 1e-05
0.0902955 -0.00752037 1e-05
0.0903737 -0.00756419 1e-05
0.0904518 -0.00760813 1e-05
0.0905299 -0.00765218 1e-05
0.0906057 -0.00769512 1e-05
0.0910586 -0.00795228 1e-05
0.0915091 -0.00821368 1e-05
0.091957 -0.00847942 1e-05
0.0924025 -0.0087493 1e-05
0.0928702 -0.00903817 1e-05
0.092988 -0.00911244 1e-05
0.0931057 -0.00918699 1e-05
0.0932231 -0.00926181 1e-05
0.0933404 -0.00933687 1e-05
0.0934535 -0.00940952 1e-05
0.0938734 -0.0096803 1e-05
0.0942909 -0.00995465 1e-05
0.094706 -0.0102327 1e-05
0.0951189 -0.010514 1e-05
0.0955528 -0.0108143 1e-05
[...]
POINT_DATA 6515
 FIELD attributes 1
U 3 6515 float
6.82123 	0.0264695 	0 6.81026 	0.0263153 	0 6.79929 	0.0261612 	0 6.78832 	0.0260071 	0 6.77735 	0.0258529 	0 6.76638 	0.0256988 	0 6.89718 	0.0270128 	0 6.9015 	0.026858 	0 6.89708 	0.0266014 	0 6.88115 	0.0262131 	0 6.74387 	0.0244348 	0 6.87473 	0.0256453 	0 6.88438 	0.0255454 	0 6.88018 	0.0252959 	0 6.85972 	0.0248728 	0 6.72254 	0.0232046 	0 6.85313 	0.0243373 	0 6.86768 	0.0242844 	0 6.86371 	0.0240422 	0 6.83906 	0.0235909 	0 6.70234 	0.022006 	0 6.83237 	0.0230789 	0 6.8514 	0.0230664 	0 6.84764 	0.0228309 	0 6.81919 	0.0223552 	0 6.68324 	0.0208336 	0 6.81245 	0.0218583 	0 6.83556 	0.0218802 	0 6.83201 	0.0216501 	0 6.80011 	0.0211518 	0 6.66519 	0.0196786 	0 6.79337 	0.020662 	0 6.82015 	0.0207123 	0 6.8168 	0.0204854 	0 6.78184 	0.0199651 	0 6.64816 	0.0185289 	0 6.77513 	0.0194736 	0 6.8052 	0.0195461 	0 6.80205 	0.0193196 	0 6.76438 	0.0187771 	0 6.63215 	0.0173691 	0 6.75775 	0.0182752 	0 6.79072 	0.0183625 	0 6.78777 	0.0181325 	0 6.74775 	0.0175659 	0 6.61713 	0.0161773 	0 6.74123 	0.0170402 	0 6.77673 	0.0171354 	0 6.77399 	0.0168993 	0 6.73198 	0.0163095 	0 6.60313 	0.014938 	0 6.72561 	0.0157585 	0 6.76329 	0.0158515 	0 6.76075 	0.0155995 	0 6.71708 	0.0149759 	0 6.59012 	0.0135996 	0 6.71086 	0.0143509 	0 6.75039 	0.0144395 	0 6.74811 	0.0141868 	0 6.70321 	0.0135595 	0 6.57836 	0.0122296 	0 6.69735 	0.0130013 	0 6.73831 	0.0131118 	0 6.73612 	0.0128565 	0 6.69015 	0.0121734 	0 6.56727 	0.010739 	0 6.68449 	0.0112401 	0 6.72697 	0.0111988 	0 6.72551 	0.0108386 	0 6.67945 	0.0101591 	0 6.55938 	0.00894953 	0 6.67537 	0.0104995 	0 6.71787 	0.00843337 	0 6.71476 	0.0041278 	0 6.66613 	-0.00113283 	0 6.5453 	-0.00790768 	0 6.659 	-0.00419264 	0 6.69662 	-0.00629603 	0 6.68664 	-0.0120266 	0 6.63229 	-0.0195636 	0 6.50546 	-0.0300498 	0 6.62009 	-0.017365 	0 6.65213 	-0.014679 	0 6.63746 	-0.0176279 	0 6.58109 	-0.0255504 	0 6.44707 	-0.0427206 	0 6.56617 	-0.0287739 	0 6.59304 	-0.0264997 	0 6.57555 	-0.0298197 	0 6.51986 	-0.0385253 	0 6.37677 	-0.0595409 	0 6.49651 	-0.048747 	0 6.51252 	-0.0492055 	0 6.49055 	-0.0537659 	0 6.43896 	-0.0619794 	0 6.28781 	-0.0825164 	0 6.40349 	-0.0756054 	0 6.40195 	-0.0788408 	0 6.37536 	-0.0842282 	0 6.33483 	-0.0909221 	0 6.1795 	-0.108542 	0 6.28657 	-0.105022 	0 6.26121 	-0.110114 	0 6.23041 	-0.115548 	0 6.19888 	-0.121018 	0 6.05329 	-0.134005 	0 6.12758 	-0.133571 	0 6.09333 	-0.138047 	0 6.05843 	-0.14255 	0 6.02287 	-0.147081 	0 5.90884 	-0.154779 	0 5.94131 	-0.155417 	0 5.90312 	-0.158079 	0 5.86447 	-0.160758 	0 5.82535 	-0.163455 	0 5.74631 	-0.166953 	0 5.73902 	-0.166674 	0 5.69776 	-0.166929 	0 5.65631 	-0.16719 	0 5.61468 	-0.167459 	0 5.56794 	-0.167756 	0 5.56493 	-0.16735 	0 5.55794 	-0.166967 	0 5.55095 	-0.166583 	0 5.54396 	-0.1662 	0 5.53688 	-0.165811 	0 5.50064 	-0.164006 	0 5.46448 	-0.162196 	0 5.4284 	-0.160383 	0 5.3924 	-0.158566 	0 5.35886 	-0.154563 	0 5.31852 	-0.152101 	0 5.27562 	-0.147485 	0 5.23316 	-0.142847 	0 5.19114 	-0.138186 	0 5.1563 	-0.129034 	0 5.12084 	-0.126476 	0 5.08092 	-0.119864 	0 5.04171 	-0.113216 	0 5.00322 	-0.106531 	0 4.97736 	-0.0934935 	0 4.94825 	-0.0904625 	0 4.91421 	-0.082524 	0 4.88107 	-0.0745417 	0 4.84899 	-0.0664446 	0 4.8344 	-0.0510173 	0 4.81251 	-0.0469095 	0 4.78718 	-0.0386528 	0 4.7625 	-0.0300592 	0 4.741 	-0.0206157 	0 4.73666 	-0.00521127 	0 4.72268 	-0.000173326 	0 4.70721 	0.00787906 	0 4.69231 	0.0164245 	0 4.68073 	0.0257257 	0 4.68701 	0.0402087 	0 4.68119 	0.0452938 	0 4.67537 	0.052916 	0 4.67028 	0.0607938 	0 4.66616 	0.0687287 	0 4.68205 	0.0815676 	0 4.68399 	0.0859917 	0 4.68695 	0.092584 	0 4.69051 	0.0991792 	0 4.69469 	0.105777 	0 4.71378 	0.115486 	0 4.72262 	0.118887 	0 4.73257 	0.123647 	0 4.74291 	0.128402 	0 4.75361 	0.133154 	0 4.77211 	0.139302 	0 4.78632 	0.14121 	0 4.80117 	0.143738 	0 4.81617 	0.146261 	0 4.83132 	0.148782 	0 4.84743 	0.15143 	0 4.84983 	0.151387 	0 4.85227 	0.151403 	0 4.85472 	0.15142 	0 4.85717 	0.151437 	0 4.85963 	0.151453 	0 4.87453 	0.151717 	0 4.88942 	0.151981 	0 4.90429 	0.152246 	0 4.91916 	0.15251 	0 4.93663 	0.153043 	0 4.94948 	0.150383 	0 4.96821 	0.148295 	0 4.98679 	0.146212 	0 5.00522 	0.144132 	0 5.02895 	0.142409 	0 5.03691 	0.137236 	0 5.05591 	0.13287 	0 5.07464 	0.128513 	0 5.09311 	0.124165 	0 5.11899 	0.120104 	0 5.12429 	0.112939 	0 5.14176 	0.106429 	0 5.15986 	0.0999825 	0 5.1792 	0.0935641 	0 5.20412 	0.087214 	0 5.21 	0.0784511 	0 5.22355 	0.0699744 	0 5.24053 	0.0616438 	0 5.25989 	0.053274 	0 5.28304 	0.0448377 	0 5.28894 	0.034594 	0 5.30008 	0.0244524 	0 5.31574 	0.0144031 	0 5.33414 	0.00419331 	0 5.35541 	-0.00618224 	0 5.36106 	-0.0178599 	0 5.37113 	-0.029543 	0 5.38544 	-0.0412301 	0 5.40206 	-0.0531662 	0 5.42145 	-0.0654004 	0 5.42667 	-0.0785287 	0 5.43686 	-0.091785 	0 5.44986 	-0.105106 	0 5.46387 	-0.118616 	0 5.48145 	-0.132688 	0 5.48614 	-0.147331 	0 5.49741 	-0.162332 	0 5.50915 	-0.17735 	0 5.52028 	-0.192324 	0 5.53553 	-0.20818 	0 5.54161 	-0.224629 	0 5.55278 	-0.24153 	0 5.56327 	-0.258377 	0 5.57308 	-0.27517 	0 5.58355 	-0.292259 	0 5.58564 	-0.2985 	0 5.58918 	-0.304928 	0 5.59263 	-0.311348 	0 5.59599 	-0.317761 	0 5.59863 	-0.322919 	0 5.6045 	-0.335372 	0 5.61003 	-0.347784 	0 5.6152 	-0.360155 	0 5.62002 	-0.372486 	0 5.62453 	-0.384965 	0 5.63322 	-0.404917 	0 5.64088 	-0.425508 	0 5.64768 	-0.445988 	0 5.65348 	-0.466521 	0 5.65814 	-0.487339 	0 5.66538 	-0.509218 	0 5.6717 	-0.53098 	0 5.67641 	-0.553745 	0 5.67943 	-0.57704 	0 5.68145 	-0.600277 	0 5.6869 	-0.624668 	0 5.69064 	-0.649298 	0 5.69245 	-0.674284 	0 5.69315 	-0.699127 	0 5.69228 	-0.724629 	0 5.69301 	-0.730734 	0 5.69335 	-0.736991 	0 5.69346 	-0.743325 	0 5.6935 	-0.749649 	0 5.69348 	-0.755453 	0 5.69766 	-0.777012 	0 5.70122 	-0.798454 	0 5.70416 	-0.819781 	0 5.70593 	-0.841187 	0 5.70491 	-0.863323 	0 5.71055 	-0.892886 	0 5.71503 	-0.922276 	0 5.71574 	-0.953224 	0 5.71216 	-0.985004 	0 5.70727 	-1.01679 	0 5.70994 	-1.04566 	0 5.70923 	-1.07506 	0 5.70524 	-1.10495 	0 5.70014 	-1.13464 	0 5.69551 	-1.15674 	0 5.69452 	-1.16238 	0 5.69348 	-1.168 	0 5.69241 	-1.17361 	0 5.69128 	-1.17943 	0 5.6901 	-1.18542 	0 5.68594 	-1.22112 	0 5.68009 	-1.2575 	0 5.67277 	-1.29351 	0 5.66302 	-1.33117 	0 5.65139 	-1.36929 	0 5.64494 	-1.40127 	0 5.63672 	-1.43331 	0 5.62536 	-1.46604 	0 5.61283 	-1.4985 	0 5.60208 	-1.52376 	0 5.59876 	-1.53253 	0 5.59535 	-1.54127 	0 5.59185 	-1.54999 	0 5.58799 	-1.5592 	0 5.58394 	-1.56855 	0 5.5716 	-1.61098 	0 5.55652 	-1.65292 	0 5.53727 	-1.69468 	0 5.51306 	-1.73687 	0 5.48637 	-1.77949 	0 5.47945 	-1.79693 	0 5.47223 	-1.81428 	0 5.46063 	-1.83037 	0 5.44866 	-1.84635 	0 5.43756 	-1.86071 	0 5.42237 	-1.88823 	0 5.40641 	-1.91551 	0 5.38969 	-1.94257 	0 5.36842 	-1.96948 	0 5.34588 	-1.99666 	0 5.3259 	-2.03437 	0 5.30455 	-2.07167 	0 5.27153 	-2.10381 	0 5.23604 	-2.13502 	0 5.20587 	-2.16012 	0 5.19709 	-2.17077 	0 5.18818 	-2.18138 	0 5.17887 	-2.19187 	0 5.16761 	-2.20178 	0 5.1561 	-2.21175 	0 5.12208 	-2.25907 	0 5.08567 	-2.30563 	0 5.03404 	-2.34304 	0 4.97458 	-2.37609 	0 4.90954 	-2.4096 	0 4.90942 	-2.4097 	0 4.90929 	-2.40981 	0 4.90912 	-2.40988 	0 4.90892 	-2.40993 	0 4.90872 	-2.40998 	0 4.85938 	-2.4494 	0 4.80819 	-2.48848 	0 4.74926 	-2.52219 	0 4.6723 	-2.54166 	0 4.58917 	-2.56173 	0 4.58026 	-2.56641 	0 4.57129 	-2.57107 	0 4.55971 	-2.57323 	0 4.5462 	-2.57354 	0 4.53303 	-2.57383 	0 4.48012 	-2.59985 	0 4.42584 	-2.6257 	0 4.36272 	-2.64332 	0 4.28431 	-2.64568 	0 4.20016 	-2.64791 	0 4.18422 	-2.65153 	0 4.16818 	-2.65512 	0 4.14867 	-2.65475 	0 4.12595 	-2.6507 	0 4.10394 	-2.64677 	0 4.0463 	-2.65865 	0 3.98754 	-2.67048 	0 3.9193 	-2.67119 	0 3.83802 	-2.65593 	0 3.75112 	-2.63969 	0 3.73108 	-2.63862 	0 3.71092 	-2.63754 	0 3.68758 	-2.63222 	0 3.66074 	-2.62221 	0 3.63465 	-2.61249 	0 3.57192 	-2.60722 	0 3.50824 	-2.60195 	0 3.4353 	-2.58364 	0 3.35136 	-2.54936 	0 3.26221 	-2.51323 	0 3.24107 	-2.50631 	0 3.21984 	-2.49938 	0 3.19602 	-2.48874 	0 3.16911 	-2.47363 	0 3.14274 	-2.45884 	0 3.07712 	-2.4333 	0 3.0108 	-2.40777 	0 2.9365 	-2.3695 	0 2.85311 	-2.31629 	0 2.76603 	-2.26099 	0 2.74515 	-2.24841 	0 2.72422 	-2.23583 	0 2.70096 	-2.22009 	0 2.67515 	-2.20085 	0 2.64959 	-2.1818 	0 2.58706 	-2.13706 	0 2.5243 	-2.09232 	0 2.45671 	-2.03807 	0 2.38292 	-1.97115 	0 2.30868 	-1.90366 	0 2.28662 	-1.88394 	0 2.26457 	-1.86422 	0 2.24019 	-1.84139 	0 2.21395 	-1.81608 	0 2.1876 	-1.79062 	0 2.14015 	-1.73808 	0 2.09321 	-1.68557 	0 2.046 	-1.62843 	0 1.99789 	-1.56172 	0 1.95272 	-1.49768 	0 1.92736 	-1.46454 	0 1.90242 	-1.43148 	0 1.87608 	-1.39375 	0 1.84966 	-1.35445 	0 1.82211 	-1.31259 	0 1.8046 	-1.27551 	0 1.78787 	-1.2386 	0 1.7722 	-1.20171 	0 1.76064 	-1.16307 	0 1.7508 	-1.12721 	0 1.72963 	-1.06718 	0 1.71163 	-1.00806 	0 1.70126 	-0.947018 	0 1.69487 	-0.887225 	0 1.68892 	-0.831901 	0 1.68837 	-0.825485 	0 1.68798 	-0.818982 	0 1.68787 	-0.812296 	0 1.68782 	-0.805628 	0 1.68784 	-0.798557 	0 1.69502 	-0.758725 	0 1.70437 	-0.719605 	0 1.71591 	-0.681227 	0 1.72534 	-0.645683 	0 1.73175 	-0.615911 	0 1.75906 	-0.581991 	0 1.78913 	-0.548985 	0 1.80958 	-0.517439 	0 1.82099 	-0.487474 	0 1.8333 	-0.460061 	0 1.86596 	-0.43415 	0 1.89569 	-0.410897 	0 1.92214 	-0.390279 	0 1.94961 	-0.370031 	0 1.96357 	-0.348249 	0 1.99416 	-0.329627 	0 2.01894 	-0.314027 	0 2.04463 	-0.2987 	0 2.07122 	-0.283638 	0 2.10047 	-0.266903 	0 2.10427 	-0.264998 	0 2.10737 	-0.263345 	0 2.11047 	-0.261695 	0 2.11359 	-0.260049 	0 2.11698 	-0.258269 	0 2.1388 	-0.247586 	0 2.16103 	-0.237031 	0 2.18367 	-0.226602 	0 2.20669 	-0.216296 	0 2.07364 	-0.199765 	0 2.25442 	-0.198496 	0 2.27698 	-0.188863 	0 2.2999 	-0.179334 	0 2.32317 	-0.169906 	0 2.02364 	-0.150709 	0 2.36951 	-0.156246 	0 2.3891 	-0.148637 	0 2.40893 	-0.141091 	0 2.41238 	-0.133216 	0 1.97874 	-0.115141 	0 2.40876 	-0.121958 	0 2.48643 	-0.117816 	0 2.50338 	-0.111809 	0 2.39609 	-0.103557 	0 1.93886 	-0.0889157 	0 2.39319 	-0.0948202 	0 2.56968 	-0.0939669 	0 2.58405 	-0.0891642 	0 2.38081 	-0.0812202 	0 1.90403 	-0.0693111 	0 2.37845 	-0.0743863 	0 2.64026 	-0.0753677 	0 2.65236 	-0.0715133 	0 2.36696 	-0.064203 	0 1.874 	-0.0544743 	0 2.36502 	-0.0588191 	0 2.69972 	-0.0607567 	0 2.70989 	-0.0576518 	0 2.35467 	-0.051099 	0 1.84833 	-0.0431153 	0 2.35305 	-0.0468295 	0 2.74961 	-0.0491997 	0 2.75812 	-0.0466889 	0 2.3439 	-0.0409072 	0 1.82651 	-0.0343238 	0 2.34252 	-0.0375001 	0 2.79131 	-0.0399978 	0 2.79843 	-0.037959 	0 2.33451 	-0.0329056 	0 1.808 	-0.0274491 	0 2.33334 	-0.0301699 	0 2.82606 	-0.0326233 	0 2.83199 	-0.0309603 	0 2.32637 	-0.0265668 	0 1.79235 	-0.0220199 	0 2.32534 	-0.0243568 	0 2.85492 	-0.0266752 	0 2.85934 	-0.0253099 	0 2.31931 	-0.0215017 	0 1.77911 	-0.0176915 	0 2.3184 	-0.0197053 	0 2.85857 	-0.0217277 	0 2.85828 	-0.0206299 	0 2.31316 	-0.0174197 	0 1.7679 	-0.0142083 	0 2.31234 	-0.0159504 	0 2.85748 	-0.0176981 	0 2.85707 	-0.0168251 	0 2.3078 	-0.0141031 	0 1.75841 	-0.0113804 	0 2.30704 	-0.0128936 	0 2.85621 	-0.0144103 	0 2.85575 	-0.0137081 	0 2.30311 	-0.0113864 	0 1.7504 	-0.00906423 	0 2.3024 	-0.0103843 	0 2.85482 	-0.0117065 	0 2.85432 	-0.0111354 	0 2.29901 	-0.00914333 	0 1.74365 	-0.00715112 	0 2.29833 	-0.00830748 	0 2.85332 	-0.00946512 	0 2.85281 	-0.00899563 	0 2.2954 	-0.00727669 	0 1.73798 	-0.00555773 	0 2.29475 	-0.00657481 	0 2.85173 	-0.00759259 	0 2.85122 	-0.00720241 	0 2.29222 	-0.00571069 	0 1.73324 	-0.00421904 	0 2.29158 	-0.00511604 	0 2.85006 	-0.00601337 	0 2.84957 	-0.00568528 	0 2.28941 	-0.00438431 	0 1.7293 	-0.00308344 	0 2.28878 	-0.0038756 	0 2.84832 	-0.00466787 	0 2.84785 	-0.00438729 	0 2.28692 	-0.00324634 	0 1.72607 	-0.0021055 	0 2.28629 	-0.00279848 	0 2.84651 	-0.00349146 	0 2.84607 	-0.00324174 	0 2.28473 	-0.00223611 	0 1.72349 	-0.00123054 	0 2.28416 	-0.0018026 	0 2.84477 	-0.00237462 	0 2.84437 	-0.00214199 	0 2.28293 	-0.00127718 	0 1.72162 	-0.000412395 	0 2.28225 	-0.000837234 	0 2.8428 	-0.00126205 	0 2.84248 	-0.0010461 	0 2.28142 	-0.000348657 	0 1.7205 	0.000348813 	0 2.28068 	6.90161e-05 	0 2.84074 	-0.000210805 	0 2.84051 	-1.87533e-05 	0 2.28026 	0.000503731 	0 1.72016 	0.00102631 	0 2.27951 	0.000871531 	0 2.83871 	0.000716661 	0 2.83857 	0.000880914 	0 2.27945 	0.00124311 	0 1.7205 	0.00160546 	0 2.27872 	0.00155087 	0 2.83676 	0.00149611 	0 2.83668 	0.00163293 	0 2.27896 	0.00185997 	0 1.72142 	0.0020872 	0 2.27826 	0.00210823 	0 2.83489 	0.002129 	0 2.83485 	0.00224051 	0 2.27873 	0.00235966 	0 1.72279 	0.00247907 	0 2.27806 	0.00255312 	0 2.83309 	0.00262685 	0 2.83308 	0.0027154 	0 2.27871 	0.00275238 	0 1.72452 	0.00278966 	0 2.27807 	0.00289689 	0 2.83136 	0.0030037 	0 2.83136 	0.00307146 	0 2.27883 	0.00304913 	0 1.72649 	0.00302712 	0 2.27822 	0.00315065 	0 2.82968 	0.0032737 	0 2.82967 	0.00332267 	0 2.27906 	0.00326067 	0 1.72864 	0.00319903 	0 2.27848 	0.00332498 	0 2.82802 	0.00345038 	0 2.82799 	0.00348242 	0 2.27934 	0.00339727 	0 1.73088 	0.00331249 	0 2.27878 	0.00342974 	0 2.82637 	0.00354639 	0 2.82632 	0.00356319 	0 2.27963 	0.0034684 	0 1.73314 	0.00337399 	0 2.27909 	0.00347381 	0 2.82472 	0.00357301 	0 2.82463 	0.00357607 	0 2.2799 	0.00348241 	0 1.73537 	0.00338913 	0 2.27938 	0.00346487 	0 2.82306 	0.00353995 	0 2.82294 	0.00353048 	0 2.28014 	0.00344635 	0 1.73754 	0.0033626 	0 2.27964 	0.00340921 	0 2.82139 	0.00345516 	0 2.82123 	0.00343413 	0 2.28032 	0.00336592 	0 1.73961 	0.00329808 	0 2.27983 	0.00331185 	0 2.81972 	0.00332495 	0 2.81953 	0.00329307 	0 2.28043 	0.00324554 	0 1.74154 	0.00319838 	0 2.27997 	0.00317659 	0 2.81805 	0.00315415 	0 2.81782 	0.00311193 	0 2.28047 	0.00308855 	0 1.74331 	0.00306551 	0 2.28003 	0.00300621 	0 2.81639 	0.0029463 	0 2.81613 	0.00289411 	0 2.28042 	0.00289738 	0 1.7449 	0.00290097 	0 2.28 	0.00280286 	0 2.81476 	0.00270417 	0 2.81447 	0.00264225 	0 2.28029 	0.00267388 	0 1.7463 	0.00270581 	0 2.2799 	0.00256806 	0 2.81316 	0.00242979 	0 2.81284 	0.00235863 	0 2.28007 	0.0024201 	0 1.74747 	0.00248183 	0 2.2797 	0.00230477 	0 2.81159 	0.00212724 	0 2.81126 	0.0020469 	0 2.27975 	0.00213803 	0 1.74842 	0.00222938 	0 2.27944 	0.00201338 	0 2.81012 	0.00179697 	0 2.80977 	0.00171064 	0 2.27936 	0.00183454 	0 1.74912 	0.00195861 	0 2.27904 	0.00170972 	0 2.80865 	0.00146049 	0 2.8083 	0.00136484 	0 2.27888 	0.00151187 	0 1.74961 	0.00165904 	0 2.27867 	0.0013784 	0 2.80743 	0.00109749 	0 2.80707 	0.00101588 	0 2.27839 	0.00120991 	0 1.74985 	0.00140406 	0 2.27814 	0.00111799 	0 2.80616 	0.0008317 	0 2.80578 	0.00071257 	0 2.27773 	0.000872193 	0 1.74979 	0.00103188 	0 2.27732 	0.000692574 	0 2.80461 	0.000353122 	0 2.82142 	0.000263625 	0 2.58231 	0.000510844 	0 2.34324 	0.000758101 	0