# vtk DataFile Version 2.0
track0
ASCII
DATASET POLYDATA
POINTS 6515 float
-0.0205 0.001 1e-05
-0.0204727 0.00100011 1e-05
-0.0204454 0.00100021 1e-05
-0.0204181 0.00100032 1e-05
-0.0203908 0.00100042 1e-05
-0.0203635 0.00100053 1e-05
-0.0200299 0.00100179 1e-05
-0.0196963 0.0010031 1e-05
-0.0193627 0.0010044 1e-05
-0.0190291 0.00100568 1e-05
-0.0186954 0.00100695 1e-05
-0.018369 0.00100814 1e-05
-0.0180425 0.00100936 1e-05
-0.017716 0.00101057 1e-05
-0.0173896 0.00101177 1e-05
-0.0170631 0.00101295 1e-05
-0.0167436 0.00101405 1e-05
-0.0164242 0.00101519 1e-05
-0.0161047 0.00101632 1e-05
-0.0157852 0.00101744 1e-05
-0.0154657 0.00101854 1e-05
-0.0151531 0.00101957 1e-05
-0.0148405 0.00102062 1e-05
-0.0145279 0.00102167 1e-05
-0.0142152 0.00102272 1e-05
-0.0139026 0.00102374 1e-05
-0.0135967 0.00102469 1e-05
-0.0132908 0.00102568 1e-05
-0.0129848 0.00102666 1e-05
-0.0126789 0.00102763 1e-05
-0.012373 0.00102858 1e-05
-0.0120736 0.00102946 1e-05
-0.0117742 0.00103037 1e-05
-0.0114749 0.00103128 1e-05
-0.0111755 0.00103218 1e-05
-0.0108761 0.00103306 1e-05
-0.0105832 0.00103388 1e-05
-0.0102902 0.00103472 1e-05
-0.00999724 0.00103556 1e-05
-0.00970429 0.00103639 1e-05
-0.00941133 0.00103721 1e-05
-0.00912465 0.00103796 1e-05
-0.00883797 0.00103873 1e-05
-0.00855129 0.00103951 1e-05
-0.00826461 0.00104027 1e-05
-0.00797793 0.00104102 1e-05
-0.00769739 0.00104171 1e-05
-0.00741686 0.00104241 1e-05
-0.00713632 0.00104312 1e-05
-0.00685578 0.00104382 1e-05
-0.00657525 0.0010445 1e-05
-0.00630072 0.00104512 1e-05
-0.0060262 0.00104577 1e-05
-0.00575167 0.00104641 1e-05
-0.00547714 0.00104704 1e-05
-0.00520262 0.00104766 1e-05
-0.00493398 0.00104821 1e-05
-0.00466533 0.00104879 1e-05
-0.00439669 0.00104936 1e-05
-0.00412805 0.00104993 1e-05
-0.0038594 0.00105047 1e-05
-0.00359652 0.00105096 1e-05
-0.00333363 0.00105147 1e-05
-0.00307074 0.00105198 1e-05
-0.00280786 0.00105248 1e-05
-0.00254497 0.00105296 1e-05
-0.00228772 0.00105338 1e-05
-0.00203046 0.00105381 1e-05
-0.00177321 0.00105424 1e-05
-0.00151596 0.00105466 1e-05
-0.0012587 0.00105505 1e-05
-0.00100696 0.00105539 1e-05
-0.000755223 0.00105579 1e-05
-0.000503482 0.0010561 1e-05
-0.000251741 0.00105626 1e-05
0 0.00105621 1e-05
0.000329256 0.00105582 1e-05
0.000658511 0.00105561 1e-05
0.000987767 0.0010553 1e-05
0.00131702 0.00105471 1e-05
0.00164628 0.00105374 1e-05
0.00197921 0.0010522 1e-05
0.00231214 0.00105132 1e-05
0.00264507 0.00105059 1e-05
0.002978 0.00104971 1e-05
0.00331093 0.00104841 1e-05
0.00364757 0.00104618 1e-05
0.00398422 0.00104471 1e-05
0.00432087 0.00104335 1e-05
0.00465752 0.00104183 1e-05
0.00499415 0.00103984 1e-05
0.00533455 0.00103666 1e-05
0.00567496 0.00103411 1e-05
0.00601537 0.00103153 1e-05
0.00635577 0.00102871 1e-05
0.00669616 0.00102544 1e-05
0.00704036 0.00102092 1e-05
0.00738456 0.00101686 1e-05
0.00772877 0.00101262 1e-05
0.00807297 0.00100807 1e-05
0.00841716 0.00100313 1e-05
0.0087652 0.000997017 1e-05
0.00911325 0.000991202 1e-05
0.00946129 0.000985082 1e-05
0.00980932 0.000978627 1e-05
0.0101574 0.000971832 1e-05
0.0105093 0.000964042 1e-05
0.0108612 0.00095637 1e-05
0.0112131 0.000948397 1e-05
0.011565 0.000940117 1e-05
0.011917 0.000931523 1e-05
0.0122728 0.000922201 1e-05
0.0126287 0.000912893 1e-05
0.0129845 0.000903363 1e-05
0.0133404 0.000893609 1e-05
0.0136962 0.000883624 1e-05
0.0140561 0.000873169 1e-05
0.0144159 0.000862719 1e-05
0.0147757 0.000852178 1e-05
0.0151355 0.000841542 1e-05
0.0154954 0.00083081 1e-05
0.0155546 0.000829024 1e-05
0.0156139 0.000827241 1e-05
0.0156732 0.000825461 1e-05
0.0157325 0.000823682 1e-05
0.0157926 0.00082188 1e-05
0.016097 0.000812764 1e-05
0.0164014 0.000803689 1e-05
0.0167058 0.000794653 1e-05
0.0170102 0.00078566 1e-05
0.0173145 0.000776709 1e-05
0.0176824 0.000766098 1e-05
0.0180503 0.000755577 1e-05
0.0184183 0.000745292 1e-05
0.0187862 0.000735249 1e-05
0.019154 0.000725456 1e-05
0.019526 0.000716147 1e-05
0.019898 0.000706959 1e-05
0.0202701 0.000698183 1e-05
0.0206421 0.000689829 1e-05
0.0210141 0.000681909 1e-05
0.0213902 0.000674843 1e-05
0.0217664 0.000667966 1e-05
0.0221425 0.000661649 1e-05
0.0225187 0.000655904 1e-05
0.0228948 0.000650751 1e-05
0.0232752 0.000646737 1e-05
0.0236555 0.000643029 1e-05
0.0240359 0.000639958 1e-05
0.0244163 0.000637557 1e-05
0.0247966 0.000635904 1e-05
0.0251812 0.00063548 1e-05
0.0255658 0.000635466 1e-05
0.0259504 0.00063611 1e-05
0.026335 0.000637456 1e-05
0.0267196 0.00063957 1e-05
0.0271085 0.000642906 1e-05
0.0274973 0.000646669 1e-05
0.0278862 0.00065107 1e-05
0.0282751 0.000656132 1e-05
0.028664 0.000661861 1e-05
0.0290572 0.000668711 1e-05
0.0294505 0.00067593 1e-05
0.0298437 0.000683698 1e-05
0.0302369 0.000692012 1e-05
0.0306301 0.000700873 1e-05
0.0310278 0.000710614 1e-05
0.0314254 0.000720624 1e-05
0.031823 0.000731012 1e-05
0.0322206 0.000741775 1e-05
0.0326182 0.000752914 1e-05
0.0330203 0.000764651 1e-05
0.0334223 0.000776512 1e-05
0.0338244 0.000788549 1e-05
0.0342264 0.000800758 1e-05
0.0346285 0.00081314 1e-05
0.0346844 0.000814888 1e-05
0.0347404 0.000816635 1e-05
0.0347963 0.000818381 1e-05
0.0348523 0.000820126 1e-05
0.0349086 0.00082188 1e-05
0.0352591 0.000832804 1e-05
0.0356096 0.000843714 1e-05
0.0359601 0.00085461 1e-05
0.0363107 0.000865491 1e-05
0.0366612 0.000876358 1e-05
0.0370722 0.000889102 1e-05
0.0374833 0.000901593 1e-05
0.0378944 0.000913863 1e-05
0.0383055 0.000925916 1e-05
0.0387166 0.000937753 1e-05
0.0391322 0.000949523 1e-05
0.0395479 0.000960849 1e-05
0.0399636 0.000971773 1e-05
0.0403793 0.0009823 1e-05
0.0407949 0.000992432 1e-05
0.0412152 0.00100229 1e-05
0.0416355 0.00101156 1e-05
0.0420558 0.00102026 1e-05
0.0424761 0.0010284 1e-05
0.0428964 0.00103599 1e-05
0.0433214 0.00104312 1e-05
0.0437464 0.00104952 1e-05
0.0441714 0.00105521 1e-05
0.0445964 0.00106021 1e-05
0.0450213 0.00106451 1e-05
0.0454511 0.00106816 1e-05
0.0458808 0.00107097 1e-05
0.0463105 0.00107295 1e-05
0.0467403 0.00107412 1e-05
0.04717 0.00107446 1e-05
0.0476045 0.00107395 1e-05
0.048039 0.00107251 1e-05
0.0484736 0.00107012 1e-05
0.0489081 0.00106679 1e-05
0.0493426 0.00106251 1e-05
0.049782 0.00105721 1e-05
0.0502214 0.00105085 1e-05
0.0506607 0.00104344 1e-05
0.0511 0.00103496 1e-05
0.0515395 0.00102542 1e-05
0.0519838 0.00101467 1e-05
0.052428 0.00100274 1e-05
0.0528723 0.000989622 1e-05
0.0533164 0.000975323 1e-05
0.0537609 0.000959837 1e-05
0.0542102 0.000942943 1e-05
0.0546593 0.000924735 1e-05
0.0551085 0.000905199 1e-05
0.0555575 0.000884342 1e-05
0.0560071 0.000862145 1e-05
0.056161 0.000854092 1e-05
0.0563148 0.000845871 1e-05
0.0564686 0.000837478 1e-05
0.0566225 0.000828914 1e-05
0.0567463 0.00082188 1e-05
0.0570528 0.000804207 1e-05
0.0573591 0.000785874 1e-05
0.0576654 0.000766884 1e-05
0.0579717 0.000747239 1e-05
0.0582784 0.000726916 1e-05
0.0587377 0.000695478 1e-05
0.0591969 0.00066247 1e-05
0.059656 0.000627839 1e-05
0.060115 0.000591596 1e-05
0.060575 0.000553636 1e-05
0.0610394 0.000513633 1e-05
0.0615037 0.000471901 1e-05
0.0619678 0.000428449 1e-05
0.0624318 0.000383188 1e-05
0.0628972 0.000335904 1e-05
0.0633668 0.000286285 1e-05
0.0638362 0.000234722 1e-05
0.0643054 0.000181187 1e-05
0.0647744 0.000125637 1e-05
0.0652453 6.78062e-05 1e-05
0.0653519 5.42449e-05 1e-05
0.0654584 4.0573e-05 1e-05
0.0655649 2.67868e-05 1e-05
0.0656714 1.28843e-05 1e-05
0.0657692 -1.69407e-21 1e-05
0.0661393 -4.91065e-05 1e-05
0.0665092 -9.95528e-05 1e-05
0.066879 -0.000151333 1e-05
0.0672485 -0.000204442 1e-05
0.0676197 -0.000259164 1e-05
0.0680998 -0.000331827 1e-05
0.0685797 -0.000406849 1e-05
0.0690591 -0.000484218 1e-05
0.0695381 -0.000564105 1e-05
0.0700205 -0.000647292 1e-05
0.0704427 -0.000722502 1e-05
0.0708645 -0.000799743 1e-05
0.0712858 -0.000879091 1e-05
0.0717068 -0.000960623 1e-05
0.0720219 -0.00102334 1e-05
0.0721071 -0.00104065 1e-05
0.0721924 -0.00105805 1e-05
0.0722776 -0.00107553 1e-05
0.0723628 -0.0010931 1e-05
0.0724481 -0.00111079 1e-05
0.0729391 -0.00121307 1e-05
0.0734294 -0.00131837 1e-05
0.073919 -0.00142676 1e-05
0.074408 -0.00153825 1e-05
0.0749029 -0.00165458 1e-05
0.0753024 -0.00175138 1e-05
0.0757013 -0.00185042 1e-05
0.0760997 -0.00195172 1e-05
0.0764975 -0.00205539 1e-05
0.0768091 -0.00213858 1e-05
0.0769243 -0.00216991 1e-05
0.0770394 -0.00220142 1e-05
0.0771545 -0.00223312 1e-05
0.0772695 -0.002265 1e-05
0.077385 -0.00229722 1e-05
0.0778869 -0.00243822 1e-05
0.0783878 -0.00258305 1e-05
0.0788876 -0.00273171 1e-05
0.0793861 -0.00288429 1e-05
0.0798948 -0.00304454 1e-05
0.0800856 -0.00310643 1e-05
0.0802762 -0.00316893 1e-05
0.0804666 -0.00323206 1e-05
0.0806568 -0.00329581 1e-05
0.0808284 -0.00335397 1e-05
0.0811493 -0.00346376 1e-05
0.0814695 -0.00357528 1e-05
0.0817891 -0.00368853 1e-05
0.0821081 -0.00380351 1e-05
0.0824326 -0.00392254 1e-05
0.0828374 -0.00407374 1e-05
0.0832411 -0.00422793 1e-05
0.0836436 -0.00438513 1e-05
0.0840449 -0.0045453 1e-05
0.0843716 -0.00467851 1e-05
0.0844971 -0.00473055 1e-05
0.0846224 -0.00478289 1e-05
0.0847475 -0.00483552 1e-05
0.0848726 -0.00488844 1e-05
0.0849987 -0.0049422 1e-05
0.0855177 -0.00516481 1e-05
0.0860344 -0.00539268 1e-05
0.0865487 -0.00562584 1e-05
0.0870606 -0.00586412 1e-05
0.0875935 -0.00611866 1e-05
0.0875949 -0.00611933 1e-05
0.0875962 -0.00612 1e-05
0.0875976 -0.00612067 1e-05
0.087599 -0.00612133 1e-05
0.0876003 -0.006122 1e-05
0.0881237 -0.00637896 1e-05
0.0886444 -0.0066414 1e-05
0.0891622 -0.0069094 1e-05
0.0896771 -0.00718287 1e-05
0.0902172 -0.00747669 1e-05
0.0902955 -0.00752037 1e-05
0.0903737 -0.00756419 1e-05
0.0904518 -0.00760813 1e-05
0.0905299 -0.00765218 1e-05
0.0906057 -0.00769512 1e-05
0.0910586 -0.00795228 1e-05
0.0915091 -0.00821368 1e-05
0.091957 -0.00847942 1e-05
0.0924025 -0.0087493 1e-05
0.0928702 -0.00903817 1e-05
0.092988 -0.00911244 1e-05
0.0931057 -0.00918699 1e-05
0.0932231 -0.00926181 1e-05
0.0933404 -0.00933687 1e-05
0.0934535 -0.00940952 1e-05
0.0938734 -0.0096803 1e-05
0.0942909 -0.00995465 1e-05
0.094706 -0.0102327 1e-05
0.0951189 -0.010514 1e-05
0.0955528 -0.0108143 1e-05
[...]
POINT_DATA 6515
 FIELD attributes 2
p 1 6515 float
-9.5624 -9.56282 -9.56325 -9.56367 -9.56409 -9.56451 -9.56875 -9.57349 -9.57826 -9.58308 -9.5884 -9.59261 -9.59734 -9.60213 -9.60699 -9.61237 -9.61661 -9.62137 -9.62622 -9.63115 -9.63659 -9.64092 -9.64574 -9.65068 -9.65573 -9.66126 -9.66571 -9.67065 -9.67572 -9.68092 -9.68659 -9.69121 -9.69631 -9.70156 -9.70696 -9.7128 -9.71765 -9.72297 -9.72846 -9.7341 -9.74017 -9.74531 -9.75091 -9.7567 -9.76266 -9.76903 -9.77453 -9.7805 -9.78666 -9.793 -9.79973 -9.80567 -9.8121 -9.81877 -9.82562 -9.83288 -9.83944 -9.84643 -9.85364 -9.86103 -9.86878 -9.87608 -9.88399 -9.89223 -9.90076 -9.90981 -9.91887 -9.92773 -9.93646 -9.94534 -9.95445 -9.96714 -9.98073 -9.99487 -10.0091 -10.0235 -10.0462 -10.0608 -10.0702 -10.076 -10.0757 -10.0975 -10.1148 -10.1297 -10.1417 -10.1483 -10.1887 -10.2184 -10.243 -10.2591 -10.2561 -10.2801 -10.2911 -10.2974 -10.2983 -10.2812 -10.2775 -10.2654 -10.2515 -10.2365 -10.2121 -10.1879 -10.1593 -10.1305 -10.1018 -10.0712 -10.0307 -9.9891 -9.94755 -9.90603 -9.86683 -9.8137 -9.76227 -9.71085 -9.65946 -9.61131 -9.55332 -9.49806 -9.44282 -9.38758 -9.33309 -9.32408 -9.31575 -9.30742 -9.2991 -9.29066 -9.24745 -9.20424 -9.16104 -9.11783 -9.07569 -9.03259 -8.99291 -8.95324 -8.91358 -8.87897 -8.84993 -8.82967 -8.80943 -8.78922 -8.77974 -8.77019 -8.7743 -8.77847 -8.78283 -8.80287 -8.81754 -8.84664 -8.87684 -8.90912 -8.9563 -8.99653 -9.0493 -9.10406 -9.16092 -9.2323 -9.29552 -9.36992 -9.44541 -9.52105 -9.6113 -9.69374 -9.78475 -9.87577 -9.96678 -10.0671 -10.164 -10.2651 -10.3662 -10.4673 -10.5724 -10.6774 -10.7836 -10.8899 -10.9962 -11.1027 -11.1175 -11.1322 -11.147 -11.1618 -11.1766 -11.2692 -11.3618 -11.4544 -11.547 -11.6394 -11.7446 -11.8501 -11.9557 -12.0612 -12.1651 -12.2672 -12.3684 -12.4697 -12.571 -12.6688 -12.7666 -12.8622 -12.9577 -13.0523 -13.1432 -13.2354 -13.3251 -13.4139 -13.5005 -13.5841 -13.6698 -13.7532 -13.8344 -13.9129 -13.9886 -14.0673 -14.1432 -14.2164 -14.2869 -14.3542 -14.4253 -14.4925 -14.5573 -14.6203 -14.6786 -14.7417 -14.7983 -14.854 -14.9098 -14.9593 -15.0114 -15.0571 -15.1029 -15.1489 -15.1929 -15.2068 -15.2185 -15.2303 -15.2421 -15.2516 -15.2765 -15.3016 -15.3268 -15.3521 -15.374 -15.4037 -15.4292 -15.4551 -15.4785 -15.4967 -15.5163 -15.5361 -15.5477 -15.5517 -15.5561 -15.5623 -15.5638 -15.5593 -15.555 -15.5465 -15.5444 -15.5405 -15.5355 -15.5305 -15.526 -15.5125 -15.4993 -15.4863 -15.472 -15.4513 -15.4241 -15.3973 -15.3595 -15.3132 -15.2671 -15.2266 -15.18 -15.1277 -15.0757 -15.037 -15.0285 -15.0199 -15.0115 -15.0011 -14.9892 -14.9253 -14.8535 -14.7827 -14.6925 -14.5988 -14.5312 -14.4584 -14.3691 -14.2804 -14.2112 -14.1899 -14.1688 -14.1477 -14.1213 -14.0935 -13.9843 -13.871 -13.7431 -13.5916 -13.438 -13.3854 -13.3329 -13.2664 -13.1999 -13.14 -13.0454 -12.9517 -12.8586 -12.7405 -12.6207 -12.4829 -12.3462 -12.1797 -12.011 -11.8741 -11.8295 -11.785 -11.7392 -11.6832 -11.6267 -11.4118 -11.1989 -10.9555 -10.7001 -10.4344 -10.4338 -10.4331 -10.4324 -10.4317 -10.4309 -10.1667 -9.90511 -9.6341 -9.33219 -9.01631 -8.97345 -8.93065 -8.88546 -8.83855 -8.79296 -8.527 -8.26298 -7.98928 -7.69565 -7.38745 -7.31501 -7.24269 -7.16871 -7.09319 -7.02038 -6.74066 -6.46234 -6.17785 -5.88373 -5.5743 -5.48688 -5.39957 -5.31277 -5.22649 -5.14297 -4.84598 -4.5499 -4.25532 -3.96228 -3.65452 -3.56509 -3.47574 -3.38945 -3.30682 -3.22604 -2.9253 -2.62498 -2.33786 -2.06604 -1.78386 -1.69876 -1.61369 -1.53478 -1.4627 -1.39141 -1.12428 -0.857202 -0.611746 -0.394988 -0.176249 -0.0916013 -0.00694572 0.067075 0.132607 0.198584 0.388129 0.577712 0.752129 0.895256 1.03303 1.13149 1.22999 1.30964 1.38267 1.46083 1.55115 1.64137 1.73075 1.81084 1.88552 2.00926 2.13207 2.24081 2.34843 2.44148 2.45176 2.4616 2.4706 2.47958 2.4891 2.55217 2.61378 2.67389 2.72821 2.77239 2.80402 2.8337 2.86112 2.88619 2.90834 2.91051 2.9099 2.90667 2.90258 2.90434 2.88812 2.87045 2.85209 2.83308 2.81195 2.8084 2.80486 2.80132 2.79776 2.79391 2.77033 2.74641 2.72218 2.69763 2.6577 2.63664 2.60488 2.57285 2.54057 2.48489 2.4677 2.43473 2.4016 2.36741 2.30946 2.29193 2.26177 2.22936 2.19171 2.13962 2.12084 2.09452 2.06382 2.02613 1.97978 1.96081 1.93741 1.90887 1.87295 1.83194 1.81341 1.79234 1.76613 1.73282 1.69661 1.67887 1.65975 1.63581 1.6054 1.57343 1.55666 1.53919 1.51739 1.48986 1.46157 1.44583 1.4298 1.40995 1.38512 1.36002 1.34529 1.33052 1.31243 1.29005 1.26768 1.25392 1.24016 1.22358 1.20355 1.18351 1.17067 1.15781 1.14262 1.12459 1.10656 1.09455 1.08254 1.06856 1.05225 1.03594 1.0247 1.01345 1.00056 0.98573 0.970902 0.960357 0.949811 0.937875 0.924327 0.910779 0.900869 0.890958 0.879873 0.867437 0.855002 0.845672 0.836342 0.826014 0.81455 0.803086 0.794291 0.785496 0.775846 0.765237 0.754627 0.746347 0.738067 0.729028 0.719164 0.709299 0.701543 0.693787 0.685288 0.676009 0.666729 0.659426 0.652123 0.644086 0.635273 0.626461 0.619488 0.612515 0.604878 0.596522 0.588166 0.581464 0.574762 0.567491 0.559589 0.551688 0.545234 0.53878 0.531847 0.524375 0.516903 0.510677 0.504451 0.497827 0.490746 0.483666 0.477646 0.471627 0.465281 0.458557 0.451833 0.446001 0.440169 0.434077 0.427678 0.421278 0.41562 0.409963 0.404104 0.398 0.391895 0.386402 0.380908 0.375262 0.369425 0.363588 0.358247 0.352906 0.347453 0.341854 0.336254 0.331053 0.325853 0.320572 0.315181 0.30979 0.304714 0.299639 0.294509 0.289298 0.284088 0.279122 0.274156 0.269156 0.2641 0.259043 0.254171 0.249298 0.244408 0.239482 0.234555 0.22976 0.224965 0.220167 0.215347 0.210528 0.205795 0.201062 0.196336 0.191603 0.186869 0.182182 0.177494 0.172823 0.168155 0.163487 0.158832 0.154176 0.149539 0.14491 0.14028 0.135635 0.13099 0.126372 0.121772 0.117172 0.112534 0.107896 0.103264 0.0986344 0.0940044 0.0893254 0.0846464 0.0800103 0.0754163 0.0708224 0.0661778 0.0615332 0.0568166 0.0520454 0.0472742 0.0424918 0.0377095 0.0330144 0.0284002 0.023786 0.019146 0.0145061 0.00981603 0.00612811 0.00244002
-9.55472 -9.5551 -9.55548 -9.55585 -9.55623 -9.55661 -9.56117 -9.56578 -9.57043 -9.57508 -9.57974 -9.58434 -9.58898 -9.59364 -9.59829 -9.60295 -9.60761 -9.61229 -9.61699 -9.62168 -9.62635 -9.6311 -9.63585 -9.64063 -9.64538 -9.6501 -9.65495 -9.65981 -9.66468 -9.66953 -9.67433 -9.67931 -9.68431 -9.68932 -9.69429 -9.69921 -9.70436 -9.70952 -9.71471 -9.71984 -9.72492 -9.73026 -9.73563 -9.74104 -9.74637 -9.75164 -9.75722 -9.76284 -9.76851 -9.77409 -9.7796 -9.78546 -9.79137 -9.79738 -9.80325 -9.80905 -9.81524 -9.82151 -9.8279 -9.8341 -9.84022 -9.84676 -9.85341 -9.86028 -9.8669 -9.87341 -9.88033 -9.88737 -9.89466 -9.90157 -9.9083 -9.91537 -9.9228 -9.93106 -9.93916 -9.94721 -9.95532 -9.96359 -9.97221 -9.98008 -9.98765 -9.99508 -10.0026 -10.0101 -10.0166 -10.0226 -10.0282 -10.0337 -10.0391 -10.0428 -10.0458 -10.0473 -10.0481 -10.0474 -10.0443 -10.04 -10.033 -10.0248 -10.0145 -10.0026 -9.98972 -9.97336 -9.95557 -9.9358 -9.91575 -9.89546 -9.87148 -9.84577 -9.81829 -9.79129 -9.76482 -9.73529 -9.70381 -9.67088 -9.63888 -9.60835 -9.576 -9.542 -9.50717 -9.47352 -9.44262 -9.41136 -9.37953 -9.34752 -9.3168 -9.29029 -9.26474 -9.24031 -9.21621 -9.19349 -9.17614 -9.16074 -9.14835 -9.13675 -9.1268 -9.12275 -9.12129 -9.12422 -9.12859 -9.13518 -9.14724 -9.16239 -9.18213 -9.20435 -9.2295 -9.25873 -9.29154 -9.32787 -9.3681 -9.41167 -9.45744 -9.50725 -9.55868 -9.61558 -9.67538 -9.73572 -9.80006 -9.86443 -9.93512 -10.0074 -10.0798 -10.1548 -10.2299 -10.3087 -10.3906 -10.4725 -10.5543 -10.636 -10.7188 -10.8076 -10.8965 -10.9819 -11.0673 -11.1523 -11.2435 -11.3362 -11.4232 -11.5099 -11.5961 -11.6854 -11.7784 -11.8655 -11.9512 -12.0363 -12.1224 -12.2123 -12.2981 -12.3805 -12.4628 -12.5452 -12.6296 -12.7122 -12.79 -12.8679 -12.946 -13.0237 -13.1017 -13.174 -13.2465 -13.3193 -13.3895 -13.4625 -13.5285 -13.5947 -13.6612 -13.7229 -13.791 -13.8499 -13.909 -13.9674 -14.0199 -14.0809 -14.135 -14.1863 -14.2336 -14.2768 -14.3295 -14.3807 -14.4232 -14.4563 -14.4895 -14.5329 -14.5768 -14.6098 -14.6314 -14.6534 -14.6864 -14.7159 -14.7365 -14.7538 -14.7635 -14.7817 -14.7877 -14.794 -14.8008 -14.8055 -14.8073 -14.809 -14.8108 -14.8124 -14.8121 -14.8117 -14.8087 -14.8064 -14.8 -14.7811 -14.7746 -14.7688 -14.7472 -14.7094 -14.6722 -14.6535 -14.6252 -14.5897 -14.5546 -14.5274 -14.5182 -14.5092 -14.5002 -14.4873 -14.4716 -14.4274 -14.3754 -14.319 -14.2387 -14.1586 -14.1154 -14.0688 -14.0073 -13.9462 -13.8954 -13.8671 -13.8391 -13.8112 -13.7718 -13.7317 -13.639 -13.5475 -13.4312 -13.3075 -13.1771 -13.1698 -13.1624 -13.1533 -13.1438 -13.1345 -13.017 -12.9011 -12.7808 -12.643 -12.5044 -12.4696 -12.4349 -12.3967 -12.3564 -12.3184 -12.1988 -12.0803 -11.96 -11.826 -11.6907 -11.6035 -11.5168 -11.4236 -11.3282 -11.2425 -11.1485 -11.0551 -10.9583 -10.8495 -10.7397 -10.6062 -10.4736 -10.3316 -10.1858 -10.0583 -9.98125 -9.90448 -9.82463 -9.73733 -9.64926 -9.47031 -9.2925 -9.10727 -8.91833 -8.75441 -8.69048 -8.62671 -8.56069 -8.49038 -8.41952 -8.20035 -7.98245 -7.76101 -7.53764 -7.34237 -7.28881 -7.23533 -7.1806 -7.12377 -7.06657 -6.81291 -6.56041 -6.30956 -6.06005 -5.83748 -5.79438 -5.75131 -5.7079 -5.66395 -5.61979 -5.33637 -5.05376 -4.77867 -4.50881 -4.26039 -4.23355 -4.20671 -4.18009 -4.15385 -4.12754 -3.82259 -3.51796 -3.22651 -2.94482 -2.66124 -2.65822 -2.6552 -2.65237 -2.64968 -2.64699 -2.36451 -2.08201 -1.80894 -1.55721 -1.30708 -1.26257 -1.21806 -1.17774 -1.13919 -1.10017 -0.89883 -0.697587 -0.501809 -0.331318 -0.164757 -0.0631249 0.0384627 0.125206 0.20971 0.300178 0.390016 0.479726 0.569303 0.640993 0.710386 0.855063 0.999234 1.11725 1.22853 1.33005 1.34989 1.36871 1.38407 1.39942 1.41548 1.48592 1.55582 1.62513 1.68162 1.72857 1.78882 1.84834 1.89301 1.93068 1.96563 1.98738 2.00369 2.0172 2.03049 2.0465 2.05459 2.06259 2.07051 2.07781 2.08129 2.09101 2.09991 2.10825 2.11222 2.11094 2.10882 2.1063 2.10187 2.0933 2.08447 2.07462 2.0639 2.04912 2.0351 2.02157 2.00704 1.98979 1.97174 1.95351 1.93687 1.91891 1.89944 1.87984 1.8601 1.84069 1.83458 1.82823 1.82188 1.81551 1.80829 1.7947 1.78107 1.76741 1.7537 1.73968 1.71916 1.69928 1.67934 1.65935 1.63874 1.61832 1.59916 1.57997 1.56073 1.54077 1.52103 1.50283 1.48459 1.46631 1.44731 1.42876 1.41143 1.39426 1.37694 1.35913 1.3419 1.32548 1.30938 1.29308 1.27646 1.26049 1.24504 1.22999 1.21472 1.19923 1.18443 1.16996 1.1559 1.14162 1.12719 1.11346 1.09994 1.0868 1.07345 1.05999 1.04724 1.03461 1.02233 1.00984 0.997276 0.985399 0.973603 0.9621 0.950404 0.938659 0.927576 0.916542 0.905753 0.894783 0.883778 0.873411 0.863073 0.852934 0.842626 0.832295 0.822572 0.812866 0.803319 0.793614 0.783893 0.77475 0.765617 0.756606 0.747447 0.738275 0.729653 0.721037 0.712512 0.703838 0.695154 0.687007 0.678863 0.67078 0.662549 0.654308 0.646608 0.638909 0.631234 0.623406 0.61557 0.608283 0.600995 0.593689 0.586225 0.578753 0.571826 0.564896 0.557922 0.550794 0.543655 0.537042 0.530425 0.523755 0.516938 0.51011 0.503777 0.497439 0.491046 0.484518 0.477977 0.471896 0.465809 0.459668 0.453404 0.447127 0.441273 0.435413 0.429501 0.42348 0.417444 0.411797 0.406142 0.40044 0.394641 0.388825 0.383366 0.377899 0.372387 0.366789 0.361175 0.355886 0.350589 0.34525 0.339834 0.334401 0.329266 0.32412 0.318935 0.313682 0.308411 0.303411 0.2984 0.293351 0.288241 0.283113 0.27823 0.273335 0.268404 0.263419 0.258414 0.25363 0.248834 0.244005 0.239125 0.234226 0.229525 0.224811 0.220065 0.215274 0.210462 0.205828 0.201178 0.196499 0.191778 0.187034 0.182448 0.177847 0.173217 0.168548 0.163856 0.159303 0.154731 0.150128 0.145487 0.14082 0.136273 0.131708 0.127118 0.122496 0.11785 0.113305 0.108727 0.104105 0.0994364 0.0947324 0.0901109 0.0854869 0.0808597 0.0762248 0.0715838 0.0670088 0.0623241 0.0575097 0.0525932 0.0475885 0.0426319 0.0378415 0.0332371 0.0287861 0.0244747 0.0201939 0.015602 0.0106767 0.00547079 0
-9.54798 -9.54833 -9.54868 -9.54902 -9.54937 -9.54972 -9.55413 -9.55854 -9.56295 -9.56737 -9.57174 -9.57615 -9.58056 -9.58497 -9.58939 -9.59376 -9.59818 -9.60261 -9.60704 -9.61147 -9.61585 -9.6203 -9.62477 -9.62923 -9.6337 -9.63811 -9.6426 -9.64711 -9.65163 -9.65614 -9.6606 -9.66514 -9.66972 -9.6743 -9.67888 -9.68339 -9.688 -9.69266 -9.69731 -9.70197 -9.70654 -9.71123 -9.71597 -9.72071 -9.72545 -9.73009 -9.73485 -9.73967 -9.7445 -9.74933 -9.75402 -9.75884 -9.76375 -9.76865 -9.77355 -9.77829 -9.78314 -9.78809 -9.79304 -9.79799 -9.80274 -9.80755 -9.81248 -9.81741 -9.82234 -9.82703 -9.8317 -9.8365 -9.8413 -9.84611 -9.85061 -9.85508 -9.85987 -9.86466 -9.86945 -9.87405 -9.87847 -9.88308 -9.88769 -9.89229 -9.89649 -9.9 -9.90332 -9.90664 -9.90996 -9.91256 -9.9139 -9.91478 -9.91566 -9.91654 -9.91661 -9.91481 -9.91209 -9.90937 -9.90666 -9.90309 -9.89707 -9.88971 -9.88235 -9.875 -9.86699 -9.85636 -9.84427 -9.83219 -9.8201 -9.80778 -9.79322 -9.77729 -9.76135 -9.74542 -9.72973 -9.71261 -9.69438 -9.67615 -9.65792 -9.64034 -9.62267 -9.6043 -9.58593 -9.56756 -9.5502 -9.53461 -9.51881 -9.50301 -9.48722 -9.47277 -9.46214 -9.45185 -9.44156 -9.43128 -9.42263 -9.41968 -9.41761 -9.41556 -9.41353 -9.4134 -9.42021 -9.42854 -9.43689 -9.44526 -9.45583 -9.4736 -9.49367 -9.51376 -9.53387 -9.5564 -9.58532 -9.61754 -9.64977 -9.68202 -9.71672 -9.75604 -9.79985 -9.84366 -9.88748 -9.93347 -9.98171 -10.0357 -10.0897 -10.1438 -10.1992 -10.2557 -10.3168 -10.379 -10.4412 -10.5036 -10.5668 -10.6328 -10.7007 -10.7681 -10.8349 -10.9025 -10.9713 -11.0426 -11.1121 -11.1809 -11.2507 -11.3207 -11.3931 -11.4623 -11.5314 -11.6012 -11.671 -11.7422 -11.81 -11.8778 -11.9461 -12.0143 -12.0826 -12.1478 -12.2132 -12.2784 -12.3438 -12.4082 -12.4697 -12.5313 -12.5925 -12.6537 -12.7136 -12.7702 -12.8269 -12.8828 -12.9389 -12.9935 -13.044 -13.0948 -13.1444 -13.1942 -13.2431 -13.2866 -13.3303 -13.3727 -13.415 -13.4562 -13.4936 -13.5293 -13.5637 -13.5966 -13.6289 -13.6606 -13.6873 -13.7122 -13.734 -13.7561 -13.7787 -13.7993 -13.8048 -13.809 -13.8133 -13.8176 -13.8212 -13.8295 -13.838 -13.8467 -13.8556 -13.8618 -13.8677 -13.8691 -13.8711 -13.8712 -13.8666 -13.8612 -13.8565 -13.8436 -13.8234 -13.8039 -13.7832 -13.7583 -13.7273 -13.697 -13.6622 -13.6514 -13.6378 -13.6232 -13.6086 -13.5952 -13.5655 -13.5362 -13.5075 -13.4748 -13.4349 -13.3801 -13.3262 -13.2609 -13.1841 -13.1077 -13.0617 -13.0115 -12.9547 -12.8981 -12.8499 -12.8174 -12.785 -12.753 -12.714 -12.6725 -12.5742 -12.477 -12.3674 -12.2455 -12.1235 -12.0884 -12.0532 -12.0122 -11.9714 -11.933 -11.8442 -11.756 -11.6679 -11.563 -11.4578 -11.3605 -11.2638 -11.1549 -11.0445 -10.9488 -10.8974 -10.8462 -10.7928 -10.7327 -10.6724 -10.5321 -10.3927 -10.2425 -10.0879 -9.95677 -9.92177 -9.88684 -9.84968 -9.80979 -9.76979 -9.61199 -9.45512 -9.29266 -9.12511 -8.98091 -8.93903 -8.89722 -8.85392 -8.8097 -8.76533 -8.62127 -8.47787 -8.33478 -8.19168 -8.06408 -7.9876 -7.91128 -7.83469 -7.75776 -7.68037 -7.52443 -7.36899 -7.21665 -7.06736 -6.93074 -6.84735 -6.76409 -6.68154 -6.5998 -6.51754 -6.35649 -6.19584 -6.04079 -5.89116 -5.75191 -5.6641 -5.57638 -5.49065 -5.40743 -5.3237 -5.15743 -4.99141 -4.83341 -4.68257 -4.53902 -4.45476 -4.37053 -4.28883 -4.21088 -4.13258 -3.95679 -3.78109 -3.61561 -3.45772 -3.30312 -3.23592 -3.16872 -3.10357 -3.04253 -2.98141 -2.78628 -2.5911 -2.40954 -2.23523 -2.05729 -2.02671 -1.99612 -1.96626 -1.9389 -1.91158 -1.70759 -1.50353 -1.3132 -1.13671 -0.963086 -0.940066 -0.917048 -0.896276 -0.876 -0.8554 -0.709253 -0.563339 -0.418668 -0.292077 -0.168331 -0.0833204 0.00145861 0.0751185 0.148688 0.23058 0.27784 0.325022 0.372125 0.41344 0.452847 0.555442 0.657498 0.750464 0.833074 0.912925 0.955945 0.996205 1.03186 1.06736 1.10827 1.13451 1.16065 1.18668 1.21029 1.23061 1.27728 1.32301 1.36803 1.40299 1.43627 1.46588 1.49352 1.51459 1.53533 1.55564 1.56595 1.57299 1.57956 1.58602 1.59371 1.59773 1.6017 1.60562 1.60949 1.61125 1.61444 1.61807 1.62144 1.62362 1.62196 1.61863 1.61552 1.61338 1.60779 1.60193 1.59469 1.5873 1.57872 1.57016 1.56153 1.55178 1.54153 1.52963 1.51865 1.50826 1.49699 1.48463 1.47175 1.45888 1.44746 1.43522 1.42198 1.40869 1.39535 1.38282 1.36997 1.35667 1.34334 1.32998 1.31687 1.30826 1.29953 1.29079 1.28203 1.27093 1.26699 1.26305 1.25911 1.25517 1.25119 1.23831 1.2255 1.21267 1.19983 1.18687 1.17424 1.16189 1.14953 1.13716 1.12466 1.11242 1.10058 1.08873 1.07687 1.0649 1.05314 1.04183 1.03051 1.01919 1.00778 0.996527 0.985748 0.974964 0.964177 0.953328 0.942608 0.932348 0.922086 0.911822 0.901523 0.891326 0.881569 0.871809 0.862047 0.852276 0.842587 0.833307 0.824026 0.814743 0.80547 0.796266 0.787438 0.778608 0.769778 0.760972 0.752235 0.743821 0.735415 0.727009 0.718636 0.710332 0.702308 0.694295 0.686284 0.678309 0.670405 0.662743 0.655094 0.647447 0.639838 0.632299 0.624976 0.617664 0.610353 0.603084 0.595883 0.588877 0.581879 0.574882 0.567928 0.56104 0.554329 0.547623 0.540917 0.534255 0.527656 0.521218 0.514782 0.508346 0.501951 0.495621 0.489434 0.483246 0.477058 0.470908 0.464826 0.458866 0.452906 0.446946 0.441019 0.435163 0.429412 0.42366 0.417908 0.412186 0.406535 0.400974 0.395413 0.389851 0.384315 0.378852 0.373464 0.368077 0.362689 0.357323 0.352029 0.346799 0.341569 0.336339 0.331127 0.325985 0.320897 0.315809 0.31072 0.305646 0.30064 0.295678 0.290715 0.285752 0.280801 0.275913 0.271061 0.266208 0.261356 0.25651 0.251725 0.246967 0.242209 0.237451 0.232697 0.227997 0.223318 0.21864 0.213961 0.209283 0.204651 0.200036 0.19542 0.190804 0.186185 0.181605 0.177036 0.172467 0.167898 0.163324 0.158775 0.154231 0.149687 0.145143 0.140588 0.13605 0.131516 0.126983 0.12245 0.117908 0.113348 0.108771 0.104193 0.0996164 0.0950133 0.0904132 0.085836 0.0812587 0.0766814 0.072115 0.0673728 0.0625194 0.057666 0.0528127 0.0478566 0.0431389 0.0386611 0.0341831 0.0297049 0.025439 0.0207615 0.0156668 0.0105723 0.00547814 0