/*--------------------------------*- C++ -*----------------------------------*\
| =========                 |                                                 |
| \\      /  F ield         | OpenFOAM: The Open Source CFD Toolbox           |
|  \\    /   O peration     | Version:  4.1                                   |
|   \\  /    A nd           | Web:      www.OpenFOAM.org                      |
|    \\/     M anipulation  |                                                 |
\*---------------------------------------------------------------------------*/
FoamFile
{
    version     2.0;
    format      ascii;
    class       surfaceScalarField;
    location    "2";
    object      phi;
}
// * * * * * * * * * * * * * * * * * * * * * * * * * * * * * * * * * * * * * //

dimensions      [0 3 -1 0 0 0 0];

internalField   nonuniform List<scalar> 
52920
(
1293.62
-167.216
1488.52
-194.316
1679.94
-192.989
1805.54
-136.759
1845.8
-36.8041
1791.56
42.3845
1701.73
87.5627
1532.78
159.078
1254.78
273.593
730.992
510.904
183.98
551.435
-43.8294
230.289
-52.8993
38.4619
-122.041
64.8142
-159.603
53.3135
-124.433
-33.3507
-56.8217
-46.8076
-57.0996
-4.57767
-138.734
84.719
-157.982
31.4912
-125.106
-37.2748
-141.605
44.02
-253.301
114.834
-331.553
91.1766
-372.079
35.1308
-302.116
-57.7911
-183.536
-110.757
-193.393
7.03855
-279.953
79.7144
-269.483
-7.19814
-307.45
37.6611
-367.367
47.8503
-351.919
-31.3206
-278.658
-83.4059
-278.275
-3.49334
-336.111
43.014
-356.99
10.8553
-345.761
-19.1319
-338.575
-13.7212
-352.803
7.04771
-369.768
12.033
-378.993
5.60545
-374.211
-7.30713
-364.125
-12.7557
-355.318
-11.1604
-348.024
-14.4064
-355.307
-14.1932
-348.978
3.68384
-350.152
-10.0302
-330.865
-11.3525
-319.608
-19.027
-301.756
-8.34302
-292.384
-15.5883
-273.591
-11.3477
-259.942
-17.591
-240.061
-13.3893
-222.619
-19.8746
-198.591
-17.2604
-174.14
-25.6332
-147.044
-20.9557
-130.189
-16.8454
-120.76
-4.6782
-112.001
-7.50182
-95.5214
-11.6213
-67.4599
-25.7169
-31.4698
-30.9707
-4.09325
-24.1713
13.4377
-14.0514
27.3962
-11.6178
40.4789
-10.6976
47.2399
-5.05317
44.9946
3.86242
44.5369
1.72272
49.7833
-4.11537
49.297
1.50994
42.4186
7.67747
34.2954
8.88039
28.1019
6.74704
32.3279
-3.69299
51.4451
-18.7356
73.6114
-21.8083
93.3557
-19.5078
112.789
-19.1971
132.76
-19.8374
154.404
-21.5138
178.644
-24.1824
203.424
-24.7186
227.524
-24.0831
250.915
-23.3674
273.737
-22.8189
294.978
-21.2325
313.53
-18.5513
329.135
-15.6022
342.437
-13.3064
352.828
-10.3995
359.28
-6.47554
362.275
-3.02503
362.305
-0.0700775
354.431
7.84977
0.00708051
1547.54
-354.506
1752.67
-395.664
1916.11
-353.997
2003.62
-233.255
2041.43
-68.7846
2019.84
53.2427
1967.09
136.679
1845.68
270.103
1683.07
428.303
1462.97
716.683
1252.76
761.068
1109.88
376.135
1025.96
158.489
904.377
179.315
759.034
214.706
482.305
237.551
199.374
255.688
11.6431
171.859
-153.982
250.293
-473.599
362.473
-799.961
285.008
-767.457
46.0534
-526.572
-117.806
-296.492
-119.473
-215.835
-44.0671
-271.013
12.4251
-354.196
-16.6036
-210.308
-130.728
168.048
-301.485
317.503
-150.614
146.556
209.499
-53.3374
222.212
33.0028
-145.686
220.72
-286.303
130.193
74.2193
-42.0773
191.631
-105.671
59.5656
-89.9656
-47.8677
-90.5619
-25.2193
-143.124
46.5093
-196.415
57.874
-230.21
35.4762
-233.742
-5.06516
-227.317
-19.6636
-225.602
-13.4816
-223.642
-25.5229
-244.702
-18.6721
-242.642
17.8781
-257.677
-11.6149
-230.634
-26.2288
-217.461
-43.3537
-190.024
-22.3056
-186.586
-27.2495
-166.152
-18.7907
-157.398
-32.6745
-131.076
-27.515
-115.78
-39.7416
-90.1003
-35.0718
-78.2091
-39.8247
-61.8339
-31.2937
-50.7406
-28.5798
-31.3954
-19.7537
-26.9614
-10.7794
-28.8363
-5.33578
-44.5356
-7.66462
-57.714
-13.1964
-56.8684
-22.0542
-39.9163
-28.0364
-21.6908
-27.8705
-4.11569
-26.3612
15.8677
-23.701
41.8823
-20.9508
64.867
-20.3558
84.4271
-22.8718
108.255
-21.6264
134.591
-18.146
162.751
-18.8129
195.58
-25.7544
227.508
-35.3105
253.62
-44.6297
281.531
-49.5122
312.352
-50.1936
343.015
-49.7154
373.655
-50.4025
404.478
-52.2499
434.411
-54.0823
463.498
-53.7569
491.118
-51.691
516.536
-48.7552
538.69
-44.9642
557.609
-40.1285
574.08
-35.0104
587.932
-29.4341
597.353
-22.7218
602.058
-15.0984
603.362
-7.79506
601.791
-1.46879
597.812
3.8868
591.193
14.4752
0.235421
1782.11
-550.501
1967.32
-581.578
2105.38
-496.611
2190.19
-330.17
2260.53
-136.605
2296.17
6.72866
2299.37
132.336
2230.73
331.168
2094.13
563.186
1896.5
905.984
1690.79
970.858
1430.33
637.994
1166.93
445.505
889.793
451.94
628.809
490.517
377.26
492.646
231.714
418.914
107.982
291.459
105.72
255.661
186.722
287.707
231.709
237.625
289.278
-3.99858
342.75
-173.274
354.987
-127.533
393.081
-90.2815
494.459
-80.0086
454.786
26.4786
431.651
-115.525
533.463
-411.062
572.347
-186.073
437.873
342.956
289.641
344.64
327.77
-208.438
321.221
-290.003
194.492
202.955
44.8296
319.471
-10.248
96.2131
3.50083
-73.3364
-6.40007
-23.8639
-69.2272
99.4529
-122.464
103.652
-150.155
57.0167
-139.466
-21.3195
-120.398
-46.1223
-120.455
-22.2919
-118.473
-43.9165
-123.204
-48.1878
-101.016
8.38717
-118.461
-18.5177
-90.3776
-33.1186
-71.0254
-79.1513
-17.6478
-61.7684
9.37945
-62.5624
54.7906
-53.4358
65.5116
-48.2303
82.3558
-33.5867
73.1924
-32.1419
80.8692
-35.4912
81.8244
-40.5625
97.6997
-41.4885
116.761
-46.9278
147.839
-47.1998
178.593
-40.3462
209.785
-33.9286
236.772
-33.376
260.876
-35.4411
278.231
-38.0509
289.973
-38.2777
299.076
-35.7983
307.894
-33.9869
318.907
-33.7725
333.812
-34.9227
351.555
-37.3653
370.491
-41.1386
391.897
-42.4331
417.078
-42.835
446.325
-47.6169
476.733
-55.8258
504.904
-63.1633
530.573
-70.0633
556.353
-75.0742
582.74
-76.4304
609.338
-76.1691
635.757
-76.7329
661.3
-77.7139
684.86
-77.6045
706.27
-75.1334
725.408
-70.8244
741.844
-65.1911
755.285
-58.4226
765.947
-50.8164
772.926
-42.0256
775.232
-31.7861
773.517
-21.0605
769.313
-10.9592
764.003
-2.55566
759.144
3.30931
755.857
7.0948
757.24
13.0369
-8.65374
1926.93
-714.795
2084.57
-735.978
2216.27
-626.8
2322.16
-443.5
2428.26
-237.572
2495.92
-70.0817
2516.61
109.151
2450.22
389.366
2298.3
709.548
2085.95
1108.02
1843.37
1212.26
1552.66
929.673
1311.47
702.021
1131.05
628.739
1026.52
597.064
939.497
576.185
871.412
492.594
815.724
342.375
814.342
256.865
843.048
263.424
858.871
221.117
866.825
-2.92437
849.649
-154.107
795.708
-65.4398
770.276
-65.1083
849.112
-148.759
826.7
53.7438
755.863
-43.4095
746.227
-403.247
689.417
-124.676
549.141
483.36
508.858
366.843
515.588
-232.866
391.626
-174.401
261.812
331.609
217.646
342.756
199.545
88.6766
172.473
-70.8729
123.553
7.70132
38.5768
168.719
-27.6699
162.682
-47.9607
74.0337
3.2752
-76.2077
65.302
-116.103
62.633
-32.7636
44.4896
-56.1731
50.0725
-100.895
135.464
-63.6808
156.012
-60.5166
167.478
-28.6618
109.311
-36.3133
113.208
-57.0469
118.666
-74.4848
146.342
-75.9352
167.296
-72.2333
199.955
-63.3658
225.808
-60.1638
252.635
-60.4756
272.506
-61.8265
295.529
-62.8037
314.987
-67.091
337.784
-68.6218
361.997
-64.5292
388.926
-59.8204
414.057
-58.241
437.208
-57.9534
456.773
-57.357
474.178
-55.3584
491.31
-52.7831
509.842
-52.3345
530.441
-54.2696
552.726
-57.0627
576.031
-60.5573
599.88
-64.8546
625.073
-67.4929
652.493
-70.1474
681.103
-76.1073
708.453
-83.0902
734.267
-88.8746
759.181
-94.9071
783.469
-99.2778
807.235
-100.146
830.786
-99.6544
853.38
-99.2994
873.796
-98.0916
891.14
-94.9415
905.323
-89.3018
916.149
-81.661
923.686
-72.7338
928.212
-62.9734
929.907
-52.5361
929.038
-41.1977
926.678
-29.4676
924.381
-18.8188
923.64
-10.2734
925.37
-4.35368
930.453
-1.83416
939.648
-2.1576
956.554
-3.89122
-28.8435
1948.44
-833.403
2067.37
-857.464
2191.07
-757.273
2314.33
-579.818
2446.1
-367.87
2533.98
-168.763
2573.57
69.0769
2537.14
419.426
2439.25
807.822
2309.58
1232.67
2167.52
1358.82
1996.6
1101.37
1865.35
844.053
1768.6
724.115
1713.07
659.257
1664.51
628.414
1621.24
545.283
1565.71
398.402
1520.77
304.902
1494.85
293.758
1462.96
251.851
1421.43
42.5373
1358.68
-94.1157
1256.44
37.1395
1166.63
15.9078
1161.29
-137.693
1103.44
112.64
1003.07
49.8444
920.396
-329.777
781.027
15.569
671.743
591.264
724.012
306.705
692.565
-212.132
469.423
46.0582
359.059
445.585
559.821
111.253
719.658
-96.0814
628.823
3.16547
461.529
166.166
401.017
217.131
382.325
167.026
410.869
27.0387
520.538
-207.64
650.536
-266.852
616.565
-21.1332
412.386
113.994
198.774
72.5508
142.043
-1.09271
112.394
-41.7177
140.208
-49.1906
163.95
-65.7797
201.422
-88.7223
228.676
-105.048
265.071
-108.577
296.296
-104.783
333.556
-97.4667
365.95
-92.4837
398.749
-90.2772
426.422
-88.856
454.819
-88.4078
479.083
-90.6335
504.063
-91.5482
529.034
-88.6644
555.626
-84.8902
580.855
-82.6192
604.874
-80.8523
627.17
-78.7662
649.14
-76.4019
671.931
-74.8069
696.045
-75.7146
721.2
-78.8003
747.081
-82.3509
773.309
-86.2865
799.613
-90.7165
826.664
-94.1293
854.603
-97.7464
882.192
-103.376
908.496
-109.149
933.845
-113.986
957.907
-118.792
980.496
-121.699
1001.77
-121.3
1021.5
-119.272
1038.86
-116.596
1053.43
-112.597
1065.1
-106.575
1074.09
-98.2763
1080.67
-88.2419
1085.24
-77.3057
1088.22
-65.9813
1090.16
-54.5157
1092.06
-43.1385
1095.26
-32.7182
1100.88
-24.5015
1109.87
-19.3299
1122.86
-17.4004
1140.29
-19.3369
1162.17
-24.0988
1190.63
-32.3996
-56.6525
1858.18
-889.066
1930.95
-928.423
2032.22
-859.023
2158.14
-714.013
2311.6
-516.685
2433.45
-300.983
2520.73
-20.2234
2547.26
385.269
2529.1
822.499
2490.48
1263.28
2447.12
1402.64
2372.09
1177.51
2308.84
918.572
2254.09
776.515
2220.14
695.512
2187.85
659.537
2153.68
583.962
2094.84
455.92
2030.23
370.685
1978.02
350.487
1917.5
312.355
1849.46
117.359
1753.89
2.10763
1613.76
181.008
1492.39
134.819
1421.05
-59.5078
1315.46
220.859
1197.44
166.753
1063.78
-199.456
852.289
228.219
839.138
602.602
990.926
150.222
862.469
-91.28
534.088
369.45
570.38
409.309
672.206
-10.8225
683.994
-119.967
579.959
95.884
461.219
276.709
496.487
173.865
719.712
-61.5012
1030.09
-291.167
864.054
-54.9512
373.963
211.192
157.068
186.204
119.008
137.753
119.819
50.4397
154.174
-31.2389
180.887
-76.4191
228.752
-93.8524
267.535
-110.18
311.36
-129.797
345.259
-142.634
384.23
-145.633
418.65
-141.412
456.989
-134.531
491.371
-128.374
526.238
-124.281
557.19
-120.811
588.381
-118.769
615.993
-118.824
643.667
-118.528
670.697
-115.821
698.662
-112.326
725.609
-109.502
752.022
-106.951
777.759
-104.422
803.815
-102.328
830.692
-101.655
858.37
-103.343
886.404
-106.823
914.669
-110.58
942.953
-114.535
971.02
-118.739
999.239
-122.289
1027.42
-125.894
1054.67
-130.565
1080.55
-134.993
1105.08
-138.469
1127.64
-141.332
1148.15
-142.168
1166.86
-140.001
1183.69
-136.083
1198.25
-131.163
1210.48
-124.827
1220.59
-116.707
1229.06
-106.767
1236.32
-95.5484
1242.89
-83.911
1249.4
-72.548
1256.78
-61.9568
1266.17
-52.5902
1278.59
-45.2069
1294.7
-40.6882
1314.84
-39.5326
1339.02
-41.6552
1367
-47.3753
1398.13
-55.2783
1433.28
-67.5682
-88.6899
1746.35
-907.708
1770.34
-956.659
1834.88
-933.008
1943.5
-837.099
2102.13
-674.409
2253.72
-464.651
2393.85
-160.465
2487.56
285.345
2545.34
766.36
2582.03
1222.53
2611.06
1378.71
2603.24
1185.99
2588.59
942.219
2564.44
799.787
2548.62
717.376
2527.43
684.719
2497.4
622.174
2437.81
517.004
2369
442.636
2311.54
411.749
2239.16
383.864
2148.4
211.076
2025.7
122.063
1869.44
336.349
1731.59
264.374
1610.73
64.5043
1471.8
359.73
1372.43
259.368
1205.9
-41.1987
965.08
468.772
995.662
570.593
1146
-4.16113
989.296
59.7903
694.985
663.234
555.041
550.91
634.378
-100.432
712.495
-203.549
693.855
112.48
628.287
340.121
577.456
215.662
574.514
-74.2605
392.372
-127.547
180.822
144.112
124.002
258.91
131.084
171.105
164.778
93.2581
196.204
3.95759
241.653
-74.3563
277.955
-117.833
327.325
-138.922
368.673
-154.37
413.488
-170.781
449.775
-180.781
489.691
-182.778
525.558
-177.949
564.416
-170.787
599.878
-163.486
635.949
-157.872
668.849
-152.923
701.934
-149.561
732.02
-148.112
762.046
-146.84
791.207
-144.15
821.003
-140.822
850.105
-137.798
879.121
-134.995
907.981
-132.479
937.323
-130.861
967.267
-130.895
997.601
-133.026
1027.93
-136.57
1058.18
-140.298
1088.19
-144.083
1117.73
-147.88
1146.92
-151.099
1175.48
-154.156
1202.82
-157.607
1228.57
-160.528
1252.72
-162.402
1274.83
-163.276
1294.92
-162.113
1313.31
-158.286
1330.08
-152.752
1345.06
-146.077
1358.34
-138.054
1370.25
-128.596
1381.47
-117.962
1392.72
-106.804
1404.79
-95.9897
1418.42
-86.1934
1434.34
-77.9104
1453.25
-71.5303
1475.59
-67.584
1501.42
-66.5613
1530.51
-68.671
1562.44
-73.6238
1596.61
-81.5925
1632.29
-91.0013
1669.52
-104.829
-121.926
1628.98
-884.88
1615.77
-943.623
1648.8
-969.091
1733.54
-931.784
1881.23
-818.364
2043.13
-639.938
2220.08
-339.376
2369.98
127.216
2493.38
641.068
2592.38
1116.66
2676.48
1296.97
2717.25
1147.04
2739.78
930.887
2742.47
795.468
2744.52
718.776
2732.83
696.805
2707.81
652.271
2654.86
570.679
2592.65
507.146
2533.52
475.796
2449
468.797
2340.66
324.982
2202.65
260.021
2045.09
495.514
1899.91
405.706
1742.69
225.015
1586.33
516.492
1507.86
335.493
1330.1
133.465
1130.13
666.648
1086.26
609.753
1086.23
-9.40734
992.494
148.56
805.162
846.001
754.456
597.755
913.863
-271.281
885.126
-181.502
737.57
254.985
606.087
467.395
514.403
301.244
430.123
3.14352
257.684
39.3192
165.845
231.456
187.925
232.074
220.034
134.029
258.813
46.7787
291.824
-41.2088
335.592
-115.763
371.803
-159.735
418.485
-183.716
458.77
-198.748
502.632
-212.902
539.486
-220.624
579.562
-221.668
616.099
-216.435
655.251
-209.037
691.454
-200.987
728.429
-194.229
762.771
-188.095
797.378
-183.576
829.494
-180.71
861.6
-178.458
892.82
-175.505
924.556
-172.186
955.848
-169.067
987.324
-166.254
1018.88
-163.991
1050.93
-162.818
1083.35
-163.305
1115.9
-165.551
1148.24
-168.898
1180.27
-172.324
1211.88
-175.67
1242.84
-178.826
1273.18
-181.405
1302.63
-183.605
1330.8
-185.742
1357.41
-187.144
1382.45
-187.429
1405.68
-186.516
1427.24
-183.671
1447.43
-178.497
1466.39
-171.725
1484.14
-163.867
1501.02
-154.971
1517.57
-145.192
1534.49
-134.932
1552.46
-124.835
1572.06
-115.651
1593.75
-107.951
1617.89
-102.113
1644.7
-98.4049
1674.18
-97.128
1706.06
-98.5079
1739.89
-102.564
1775.15
-108.935
1811.22
-117.71
1847.5
-127.323
1883.59
-140.94
-154.261
1505.38
-838.825
1479.43
-923.862
1505.02
-1005.66
1577.97
-1020.26
1708.52
-948.837
1855.16
-801.159
2038.6
-522.59
2219.71
-60.6836
2390.45
472.889
2537.75
965.527
2665.01
1175.5
2743.87
1068.96
2797.29
886.306
2823.32
768.962
2841.16
707.135
2840.2
702.245
2826.24
674.364
2785.63
613.621
2731.06
565.236
2670.1
540.652
2578.1
560.503
2460.8
444.898
2314.55
404.023
2161.96
647.28
2012.78
547.846
1836.63
402.814
1698.03
654.487
1635.24
392.148
1431.33
331.164
1205.26
892.086
1138.66
674.566
1110.49
12.9995
1020.85
233.622
1000.36
866.014
1035.82
563.619
1012.65
-265.765
823.353
1.58495
640.178
436.403
549.362
556.027
515.226
325.474
403.479
100.431
267.922
164.239
252.249
240.336
281.534
197.474
313.448
97.2019
347.786
5.338
377.485
-81.3215
417.641
-153.817
451.944
-197.609
495.693
-223.625
534.305
-239.326
576.937
-252.204
613.799
-258.719
653.832
-259.114
690.757
-253.651
730.162
-245.946
766.978
-237.297
804.729
-229.662
840.249
-222.729
876.166
-217.372
910.006
-213.676
943.953
-210.797
977.084
-207.753
1010.7
-204.563
1044.07
-201.598
1077.77
-199.011
1111.67
-197.096
1146
-196.358
1180.56
-197.164
1215.08
-199.431
1249.28
-202.513
1283.05
-205.581
1316.3
-208.447
1348.82
-210.96
1380.62
-212.836
1411.48
-214.168
1441.15
-215.125
1469.45
-215.226
1496.4
-214.171
1521.86
-211.821
1546.02
-207.683
1569.19
-201.564
1591.65
-194.088
1613.59
-185.748
1635.41
-176.74
1657.58
-167.332
1680.64
-157.97
1705.04
-149.225
1731.11
-141.712
1759.01
-135.864
1788.84
-131.952
1820.54
-130.125
1853.93
-130.535
1888.64
-133.236
1924.21
-138.154
1960.15
-144.905
1995.95
-153.539
2031.15
-162.558
2065.22
-175.026
-185.108
1377.12
-772.018
1368.4
-917.502
1412.24
-1054.81
1487.13
-1106.45
1603.52
-1062.82
1724.51
-937.635
1888.17
-688.307
2070.67
-252.96
2263.35
279.326
2440.01
782.3
2597.72
1021.82
2706.65
962.64
2786.28
818.711
2831.6
722.682
2863.37
680.074
2876.29
691.075
2878.03
678.695
2850.85
643.275
2803.94
615.69
2743.83
606.489
2651.31
654.146
2532.48
568.812
2381.04
555.382
2234.36
794.884
2086.24
691.862
1908.24
581.672
1788.68
772.667
1724.48
453.709
1493.73
559.343
1261.31
1121.31
1226.27
704.603
1203.32
31.143
1096.61
336.397
1149.24
809.06
1197.65
508.471
964.328
-52.6966
709.913
248.288
593.778
547.654
551.736
594.356
524.211
346.025
426.82
190.835
342.159
243.856
341.507
237.288
366.068
169.64
393.565
66.1958
422.746
-29.5365
448.787
-116.625
485.62
-188.609
517.798
-234.57
558.937
-263.179
595.897
-279.82
637.301
-292.272
673.936
-298.03
713.815
-298.09
750.958
-292.584
790.543
-284.773
827.838
-275.77
866.218
-267.519
902.696
-259.923
939.709
-253.881
975.001
-249.369
1010.54
-245.923
1045.38
-242.702
1080.72
-239.601
1115.96
-236.809
1151.64
-234.501
1187.56
-232.972
1223.86
-232.581
1260.3
-233.567
1296.62
-235.723
1332.59
-238.47
1368.1
-241.083
1403.05
-243.379
1437.29
-245.198
1470.82
-246.339
1503.45
-246.814
1535.05
-246.72
1565.49
-245.688
1594.8
-243.491
1622.95
-240.006
1650.2
-234.943
1676.84
-228.252
1703.19
-220.472
1729.45
-212.068
1755.98
-203.315
1783.12
-194.527
1811.22
-186.133
1840.55
-178.617
1871.24
-172.459
1903.29
-167.981
1936.64
-165.359
1971.11
-164.663
2006.46
-165.938
2042.32
-169.145
2078.27
-174.152
2113.91
-180.588
2148.81
-188.468
2182.62
-196.404
2214.83
-207.247
-214.515
1247.92
-743.006
1285.18
-961.667
1360.35
-1141.61
1446.31
-1207.51
1554.49
-1171.25
1653.32
-1050.61
1786.12
-820.777
1946.58
-421.527
2136.82
92.2277
2323.11
591.678
2497.72
853.314
2627
833.879
2726.11
728.364
2787.21
660.985
2832.9
640.315
2860.89
667.461
2877.63
669.74
2863.11
660.013
2825.66
656.374
2770.52
665.179
2683.53
740.88
2566.64
688.018
2414.19
705.937
2279.85
928.755
2138.54
827.481
1952.19
769.257
1822.36
902.025
1747.52
522.937
1541.41
760.53
1400.13
1262.58
1424.64
679.995
1331.53
120.524
1158.67
505.704
1135.04
832.894
1114.15
531.966
875.023
173.732
675.593
442.889
591.438
630.215
580.556
602.569
535.919
380.797
448.873
268.424
411.652
273.713
416.528
227.48
437.323
144.925
460.856
39.0694
485.507
-59.7587
507.995
-147.712
541.574
-220.036
571.471
-267.271
610.15
-298.138
645.371
-316.566
685.46
-329.241
721.59
-335.02
761.118
-335.061
798.242
-329.731
837.847
-321.893
875.422
-312.718
914.233
-304.072
951.419
-296.145
989.296
-289.707
1025.75
-284.879
1062.59
-281.198
1098.89
-278.058
1135.75
-275.223
1172.61
-272.803
1209.99
-270.92
1247.66
-269.825
1285.68
-269.806
1323.79
-270.966
1361.76
-273.049
1399.41
-275.519
1436.61
-277.767
1473.3
-279.594
1509.33
-280.837
1544.72
-281.344
1579.29
-281.092
1612.99
-280.127
1645.71
-278.189
1677.55
-275.118
1708.53
-270.827
1738.91
-265.171
1768.95
-258.192
1798.94
-250.363
1829.06
-242.119
1859.58
-233.767
1890.71
-225.623
1922.69
-218.077
1955.62
-211.525
1989.52
-206.34
2024.3
-202.749
2059.81
-200.865
2095.84
-200.696
2132.13
-202.226
2168.34
-205.354
2204.11
-209.928
2239.1
-215.596
2272.97
-222.351
2305.46
-228.925
2336.14
-237.945
-242.704
1146.16
-744.972
1225.15
-1044.75
1328.42
-1251.7
1427.2
-1318.19
1532.84
-1275.49
1619.29
-1151.25
1726.05
-929.656
1855.94
-563.272
2028.15
-80.2772
2208.33
404.504
2386.82
680.156
2525.46
698.48
2636.08
630.842
2709.45
587.216
2768.51
587.137
2810.04
628.808
2839.41
647.49
2837.06
666.362
2809.84
688.338
2762.87
718.769
2685.56
820.178
2572.74
806.01
2426.6
852.434
2310.01
1046.44
2172.74
961.275
1981.73
959.984
1847.99
1033.51
1743.19
625.155
1628.99
872.251
1642.21
1246.25
1633.48
684.536
1412.22
338.375
1184.27
729.721
1116.1
895.937
1054.15
588.167
834.077
380.975
678.488
591.784
616.09
687.787
611.798
602.397
567.896
417.002
497.716
332.19
478.381
288.064
484.22
218.293
500.662
125.853
519.532
17.4388
539.315
-84.2916
557.817
-174.168
587.895
-248.13
615.116
-298.761
651.182
-332.694
684.47
-353.119
723.026
-366.693
758.337
-372.841
797.243
-373.211
834.065
-368.23
873.448
-360.58
911.043
-351.402
950.022
-342.565
987.634
-334.38
1026.08
-327.683
1063.39
-322.515
1101.25
-318.674
1138.72
-315.595
1176.82
-313.035
1215.05
-310.989
1253.86
-309.545
1293
-308.897
1332.49
-309.209
1372.09
-310.507
1411.56
-312.49
1450.77
-314.689
1489.58
-316.569
1527.96
-317.941
1565.75
-318.639
1602.99
-318.557
1639.52
-317.643
1675.33
-315.936
1710.35
-313.247
1744.7
-309.48
1778.41
-304.584
1811.73
-298.517
1844.86
-291.379
1878.05
-283.592
1911.42
-275.551
1945.18
-267.567
1979.43
-259.94
2014.31
-253.01
2049.83
-247.1
2085.93
-242.493
2122.47
-239.348
2159.29
-237.728
2196.15
-237.604
2232.79
-238.916
2268.94
-241.538
2304.28
-245.303
2338.54
-249.89
2371.43
-255.273
2402.79
-260.312
2432.25
-267.423
-269.885
1060.86
-796.454
1178.13
-1169.14
1303.49
-1388.05
1413.07
-1442.08
1520.43
-1383.15
1603.64
-1247.03
1695.77
-1021.23
1798.44
-675.144
1946.27
-224.147
2110.06
235.708
2282.22
514.379
2420.56
560.307
2534.99
525.33
2615.75
505.693
2684.78
523.928
2736.73
581.153
2776.76
615.064
2785.79
659.489
2768.23
708.998
2730.41
760.036
2663.25
887.34
2555.61
916.051
2418.67
988.062
2316.59
1148.72
2181.4
1092.23
1991.07
1151.81
1862.78
1161.92
1740.17
742.926
1678.29
929.354
1740.05
1184.93
1678.31
746.813
1428.75
585.208
1210.41
944.938
1131.82
974.974
1045.62
677.85
844.646
575.485
713.8
719.303
660.55
739.69
641.286
618.549
601.441
448.852
556.108
370.425
543.582
294.864
547.248
210.619
558.228
111.581
571.55
1.12843
585.94
-103.536
599.939
-195.881
626.101
-272.099
650.281
-325.305
683.543
-362.282
714.631
-385.43
751.401
-400.431
785.542
-407.581
823.512
-408.6
859.7
-404.234
898.563
-396.929
935.865
-387.972
974.709
-379.161
1012.42
-371.053
1051.13
-364.373
1088.96
-359.33
1127.5
-355.645
1165.82
-352.926
1204.89
-350.849
1244.2
-349.38
1284.15
-348.524
1324.51
-348.41
1365.24
-349.135
1406.13
-350.652
1446.94
-352.65
1487.57
-354.702
1527.87
-356.347
1567.83
-357.401
1607.29
-357.702
1646.28
-357.164
1684.69
-355.742
1722.51
-353.465
1759.7
-350.211
1796.37
-345.928
1832.56
-340.605
1868.48
-334.271
1904.27
-327.061
1940.14
-319.349
1976.16
-311.492
2012.46
-303.793
2049.1
-296.524
2086.12
-289.98
2123.47
-284.418
2161.07
-280.056
2198.75
-277.001
2236.32
-275.283
2273.58
-274.846
2310.29
-275.611
2346.19
-277.432
2381.04
-280.148
2414.61
-283.464
2446.67
-287.345
2477.11
-290.772
2505.66
-295.987
-296.303
999.099
-896.662
1146.79
-1322.13
1285.64
-1534.56
1400.93
-1569.49
1509.89
-1491.29
1590.67
-1340.6
1675.88
-1108.22
1762.11
-775.047
1888.37
-350.036
2032.93
83.2164
2192.66
360.914
2324.05
432.636
2437.01
426.636
2520.28
422.655
2594.23
457.015
2652.54
526.775
2700.77
575.006
2719.19
646.503
2710
724.215
2680.42
797.324
2620.74
950.092
2517.94
1024.56
2391.58
1115.66
2299.89
1242.32
2169.56
1220.18
2000.42
1320.54
1892.69
1267.43
1753.4
880.145
1653.95
1025.84
1669.87
1165.78
1600.59
812.335
1400.46
782.104
1230.06
1111.13
1146.72
1052.61
1042.22
777.615
877.627
731.035
772.732
818.846
723.173
784.511
689.95
646.258
650.633
481.055
619.236
395.659
606.89
302.448
605.785
208.566
610.324
104.64
617.472
-8.46806
626.153
-116.526
635.36
-212.405
657.409
-292.191
678.241
-350.091
708.486
-391.016
737.14
-417.185
771.853
-434.175
804.488
-442.626
841.18
-444.617
876.379
-441.02
914.377
-434.254
951.032
-425.639
989.38
-417.026
1026.82
-409.038
1065.44
-402.51
1103.42
-397.568
1142.29
-394.134
1181.14
-391.797
1220.84
-390.258
1260.93
-389.39
1301.76
-389.158
1343.06
-389.617
1384.8
-390.771
1426.76
-392.531
1468.74
-394.574
1510.62
-396.527
1552.27
-397.974
1593.66
-398.748
1634.65
-398.694
1675.26
-397.759
1715.39
-395.89
1755.06
-393.129
1794.2
-389.392
1832.93
-384.677
1871.28
-378.996
1909.41
-372.431
1947.43
-365.134
1985.49
-357.443
2023.61
-349.676
2061.9
-342.117
2100.33
-335.01
2138.91
-328.608
2177.56
-323.117
2216.16
-318.705
2254.56
-315.44
2292.56
-313.327
2329.98
-312.3
2366.6
-312.263
2402.2
-313.07
2436.59
-314.562
2469.57
-316.477
2500.97
-318.769
2530.71
-320.541
2558.6
-323.893
-322.163
959.375
-1052.29
1126.66
-1495.93
1271.16
-1689.28
1387.31
-1698.78
1495.73
-1599.78
1575.88
-1432.34
1659.91
-1191.78
1737.61
-862.798
1848.45
-456.393
1975.18
-49.3056
2120.19
222.39
2241.59
310.802
2350.48
326.6
2432.7
339.091
2507.08
387.943
2567.94
469.71
2620.7
529.295
2645.63
623.024
2644.03
728.172
2621.28
822.917
2567.45
1003.63
2470.44
1123.72
2358.08
1226.86
2278.5
1322.41
2159.11
1336.23
2024.74
1456.71
1936.87
1356.01
1772.92
1040.18
1631.67
1162.71
1606.87
1191.58
1524.1
896.173
1358.85
945.093
1237.73
1229.58
1157.91
1133.55
1045.21
894.428
913.525
858.601
834.185
895.93
790.695
826.947
751.135
682.933
709.658
516.592
681.194
418.765
665.519
313.718
658.549
212.234
656.527
103.782
657.564
-12.1594
660.642
-124.042
665.026
-224.035
682.848
-307.79
700.178
-369.524
727.261
-414.436
753.245
-444.146
785.634
-463.536
816.406
-473.784
851.46
-477.033
885.272
-474.478
922.018
-468.431
957.616
-460.405
995.067
-452.209
1031.83
-444.695
1069.95
-438.602
1107.68
-434.221
1146.49
-431.365
1185.49
-429.746
1225.5
-428.996
1266.05
-428.972
1307.45
-429.55
1349.44
-430.73
1391.95
-432.458
1434.79
-434.603
1477.73
-436.85
1520.69
-438.855
1563.51
-440.257
1606.18
-440.899
1648.53
-440.635
1690.6
-439.427
1732.26
-437.238
1773.56
-434.112
1814.41
-430.01
1854.93
-424.957
1895.1
-418.997
1935.09
-412.24
1974.93
-404.851
2014.75
-397.132
2054.53
-389.37
2094.33
-381.826
2134.1
-374.718
2173.83
-368.264
2213.38
-362.629
2252.67
-357.941
2291.51
-354.245
2329.74
-351.528
2367.18
-349.717
2403.66
-348.712
2438.97
-348.37
2472.96
-348.54
2505.48
-348.991
2536.37
-349.673
2565.61
-349.796
2593.06
-351.355
-347.653
937.522
-1248.59
1113.39
-1677.73
1256.98
-1840.87
1371.15
-1824.99
1478.19
-1706.27
1558.51
-1524.36
1643.23
-1277.68
1718.62
-951.01
1821.01
-557.385
1933.37
-170.626
2064.41
98.0943
2175.49
203.543
2279.02
238.213
2357.62
261.127
2430.13
323.298
2490.83
413.623
2543.71
485.187
2572.62
600.514
2578.08
729.57
2559.19
850.267
2510.72
1056.08
2422.96
1217.68
2324.79
1327.1
2258.45
1391.54
2150.56
1442.86
2035.02
1572.27
1951.07
1438.28
1782.16
1207.63
1636.41
1305.52
1583.76
1241.32
1473.88
1003.05
1322.77
1093.18
1239.82
1308.32
1175.54
1192.58
1064.64
1001.95
953.334
963.335
892.03
953.339
854.284
860.423
812.097
719.231
767.853
554.184
737.927
442.979
717.803
329.401
705.089
221.897
697.07
109.43
692.465
-9.90999
690.29
-126.016
690.008
-230.78
703.659
-319.517
717.346
-386.97
741.107
-436.636
764.201
-470.206
793.984
-492.405
822.538
-504.664
855.56
-509.407
887.563
-507.981
922.616
-502.795
956.701
-495.422
992.79
-487.785
1028.41
-480.77
1065.57
-475.255
1102.6
-471.436
1140.94
-469.292
1179.69
-468.467
1219.64
-468.623
1260.31
-469.521
1301.98
-471.003
1344.37
-472.992
1387.42
-475.37
1430.91
-477.978
1474.63
-480.498
1518.49
-482.632
1562.31
-484.045
1606.08
-484.602
1649.62
-484.17
1692.96
-482.735
1735.97
-480.262
1778.68
-476.813
1821.01
-472.371
1863.04
-466.999
1904.75
-460.753
1946.26
-453.772
1987.59
-446.221
2028.8
-438.378
2069.88
-430.497
2110.84
-422.82
2151.61
-415.539
2192.16
-408.843
2232.35
-402.865
2272.08
-397.706
2311.19
-393.39
2349.53
-389.897
2386.93
-387.149
2423.24
-385.048
2458.3
-383.458
2491.98
-382.237
2524.14
-381.182
2554.69
-380.243
2583.59
-378.725
2610.77
-378.555
-372.926
929.563
-1455.98
1102.4
-1856.45
1241.44
-1988.99
1352.66
-1948.3
1458.47
-1811.93
1539.36
-1616.09
1623.58
-1361.32
1699.12
-1035.01
1798.37
-651.264
1900.4
-279.005
2020.45
-15.4077
2122.67
100.06
2220.44
148.973
2294.37
185.038
2364.8
257.481
2424.08
357.407
2474.05
441.443
2504.29
570.851
2513.08
722.278
2494.83
870.644
2454.45
1095.8
2376.63
1297.36
2283.31
1419.31
2221.47
1454.04
2127.3
1534.27
2028.7
1672.98
1939.34
1528.82
1775.92
1367.91
1634.03
1443.71
1555.7
1321.22
1435.04
1125.2
1300.62
1225.83
1238.39
1368.45
1183.85
1249
1085.34
1105.03
993.423
1052.7
943.669
1001.76
910.062
893.46
867.163
759.919
820.637
596.14
787.936
471.506
763.534
350.256
745.858
236.685
732.74
119.875
723.21
-2.89534
716.256
-123.345
711.508
-233.04
721.003
-326.752
730.975
-398.886
751.275
-453.243
771.241
-490.926
798.128
-516.203
824.079
-530.811
854.652
-537.252
884.371
-537.192
917.244
-533.021
949.295
-526.544
983.502
-519.679
1017.44
-513.533
1053.14
-508.9
1088.98
-506.129
1126.36
-505.062
1164.43
-505.432
1203.93
-506.811
1244.36
-508.946
1285.99
-511.589
1328.52
-514.613
1371.86
-517.852
1415.79
-521.122
1460.1
-524.116
1504.68
-526.555
1549.33
-528.148
1594.04
-528.772
1638.6
-528.31
1683.04
-526.756
1727.21
-524.101
1771.13
-520.41
1814.71
-515.703
1858.02
-510.056
1901.01
-503.554
1943.77
-496.344
1986.29
-488.596
2028.61
-480.563
2070.69
-472.476
2112.54
-464.557
2154.05
-456.978
2195.19
-449.903
2235.82
-443.442
2275.85
-437.674
2315.11
-432.612
2353.49
-428.23
2390.82
-424.452
2426.99
-421.183
2461.84
-418.296
2495.29
-415.661
2527.21
-413.101
2557.53
-410.568
2586.24
-407.449
2613.3
-405.628
-398.11
922.947
-1661.93
1089.73
-2029.36
1223.97
-2131.15
1332.55
-2068.61
1436.75
-1915.69
1517.83
-1707.96
1602.75
-1446.68
1680.09
-1122.57
1777.86
-746.312
1872.16
-383.124
1983.72
-120.08
2078.76
8.58182
2171.35
72.0078
2240.83
116.38
2309.35
197.291
2366.23
305.475
2412.43
404.21
2441.31
548.916
2448.17
722.752
2431
896.761
2399.12
1132.46
2325.29
1377.85
2227.91
1519.48
2160.7
1524.87
2088.18
1606.5
2020.98
1740.86
1924.23
1624.66
1758.82
1532.41
1616.97
1583.02
1518.9
1416.92
1399.24
1242.47
1285.83
1336.5
1229.48
1420.83
1176.03
1297.89
1098.39
1180.4
1027.91
1118.42
987.082
1039.91
956.117
920.732
913.812
796.518
866.471
637.169
831.249
501.354
803.432
373.814
781.881
255.147
764.684
134.592
750.961
8.40238
739.7
-116.263
730.717
-231.037
736.145
-330.312
742.284
-408.67
758.959
-468.273
775.556
-510.357
799.235
-538.95
822.19
-556.003
849.86
-564.248
876.789
-565.527
906.936
-562.422
936.38
-556.83
968.115
-550.84
999.795
-545.577
1033.46
-541.994
1067.55
-540.324
1103.48
-540.542
1140.41
-542.263
1179.04
-545.076
1218.88
-548.618
1260.14
-552.602
1302.53
-556.826
1345.92
-561.075
1390.09
-565.141
1434.79
-568.722
1479.92
-571.572
1525.25
-573.422
1570.73
-574.173