/*--------------------------------*- C++ -*----------------------------------*\
| =========                 |                                                 |
| \\      /  F ield         | OpenFOAM: The Open Source CFD Toolbox           |
|  \\    /   O peration     | Version:  4.1                                   |
|   \\  /    A nd           | Web:      www.OpenFOAM.org                      |
|    \\/     M anipulation  |                                                 |
\*---------------------------------------------------------------------------*/
FoamFile
{
    version     2.0;
    format      ascii;
    class       volScalarField;
    location    "298";
    object      epsilon;
}
// * * * * * * * * * * * * * * * * * * * * * * * * * * * * * * * * * * * * * //

dimensions      [0 2 -3 0 0 0 0];

internalField   nonuniform List<scalar> 
12225
(
1130.08
2611.29
3861.02
4651.1
5051.63
5192.43
5173.79
5117.76
5004.84
4882.46
4764.39
4653.34
4555.48
4464.78
4390.69
4317.12
4268.22
4200.08
82.7586
272.882
458.21
608.763
717.645
788.436
828.464
852.891
867.812
877.416
885.923
893.351
902.049
910.607
920.25
930.116
939.018
951.525
20.0912
50.8901
83.5832
112.871
137.269
156.514
170.103
179.716
185.839
190.103
192.527
194.54
195.613
197.013
197.928
199.213
200.864
203.192
14.5276
21.3625
28.9821
37.1651
44.5731
51.1716
56.5323
61.0175
64.3898
67.174
69.1022
70.7338
71.7453
72.6647
73.1552
73.6102
74.0034
74.444
14.3167
16.0494
17.8351
20.5345
23.1902
25.7684
28.0373
30.1101
31.8176
33.3615
34.558
35.6659
36.4531
37.2389
37.7138
38.2732
38.5288
38.948
14.6422
14.8436
15.1747
15.9424
16.8543
17.8603
18.8185
19.7624
20.5883
21.3848
22.0376
22.6818
23.1654
23.6821
24.0128
24.4342
24.6335
25.0115
14.74
14.587
14.5747
14.6707
14.8295
15.1334
15.4603
15.826
16.1697
16.5298
16.838
17.163
17.4155
17.7005
17.8903
18.1421
18.2665
18.5023
14.7639
14.5804
14.4526
14.3687
14.3435
14.3685
14.4291
14.5394
14.6593
14.8017
14.9293
15.078
15.1956
15.3383
15.435
15.5687
15.6382
15.77
14.7675
14.5895
14.4323
14.2949
14.1853
14.1067
14.0534
14.0267
14.0271
14.0368
14.0563
14.0935
14.1225
14.1702
14.2001
14.2501
14.2783
14.3313
14.7666
14.5938
14.4319
14.2813
14.1436
14.0221
13.9158
13.8253
13.7501
13.6906
13.6379
13.6012
13.5658
13.5448
13.5202
13.5094
13.49
13.4918
14.766
14.5944
14.4325
14.2802
14.1367
14.0032
13.8788
13.765
13.6595
13.5655
13.4777
13.4011
13.3285
13.2668
13.2061
13.157
13.1043
13.0668
14.7658
14.5942
14.4323
14.2799
14.1357
14
13.8717
13.7515
13.6377
13.5319
13.4316
13.339
13.2509
13.1702
13.0928
13.0229
12.9544
12.8939
14.7657
14.594
14.432
14.2794
14.1351
13.999
13.8701
13.7486
13.6333
13.5246
13.4213
13.3241
13.2316
13.1446
13.0618
12.984
12.9096
12.84
14.7657
14.5939
14.4318
14.2789
14.1346
13.9982
13.8693
13.7473
13.6318
13.5225
13.4187
13.3204
13.2271
13.1386
13.0544
12.9746
12.8986
12.8265
14.7657
14.5938
14.4316
14.2786
14.1341
13.9977
13.8686
13.7464
13.6308
13.5212
13.4173
13.3187
13.2251
13.1363
13.0518
12.9716
12.8952
12.8225
14.7657
14.5937
14.4315
14.2784
14.1338
13.9972
13.868
13.7458
13.63
13.5203
13.4162
13.3175
13.2238
13.1348
13.0502
12.9698
12.8933
12.8205
14.7657
14.5937
14.4314
14.2783
14.1336
13.9969
13.8677
13.7453
13.6294
13.5196
13.4155
13.3167
13.2229
13.1338
13.0491
12.9686
12.892
12.8191
14.7657
14.5937
14.4314
14.2782
14.1336
13.9968
13.8675
13.7451
13.6292
13.5193
13.4151
13.3163
13.2224
13.1332
13.0485
12.9679
12.8913
12.8183
14.7657
14.5937
14.4314
14.2782
14.1336
13.9969
13.8675
13.7451
13.6292
13.5193
13.4151
13.3162
13.2224
13.1332
13.0484
12.9679
12.8912
12.8183
14.7657
14.5937
14.4315
14.2783
14.1337
13.997
13.8677
13.7453
13.6294
13.5196
13.4154
13.3166
13.2228
13.1336
13.049
12.9685
12.892
12.8191
14.7657
14.5937
14.4316
14.2785
14.1339
13.9972
13.868
13.7457
13.63
13.5203
13.4165
13.318
13.2248
13.1362
13.0523
12.9726
12.8971
12.8252
14.7657
14.5938
14.4317
14.2786
14.1342
13.9978
13.8692
13.7478
13.6336
13.5258
13.4247
13.3292
13.2398
13.1553
13.0764
13.0015
12.932
12.8654
14.7657
14.5936
14.4318
14.2789
14.1364
14.0033
13.881
13.7678
13.665
13.5705
13.4854
13.4074
13.3375
13.273
13.2161
13.1619
13.1157
13.0694
14.7644
14.5919
14.4335
14.2883
14.1666
14.0626
13.981
13.9156
13.8697
13.8353
13.8154
13.802
13.7989
13.8003
13.8055
13.8121
13.8266
13.8322
14.7487
14.5941
14.4766
14.4122
14.4254
14.4639
14.5577
14.6738
14.8188
14.9641
15.1253
15.2746
15.4343
15.5742
15.7246
15.8472
15.9863
16.0875
14.663
14.7651
14.9036
15.2739
15.8077
16.391
17.0247
17.6299
18.249
18.8061
19.3671
19.85
20.3397
20.7417
21.1615
21.4849
21.8437
22.0937
14.6005
15.9621
17.5928
19.7721
21.9975
24.1069
26.1672
28.0117
29.8009
31.3255
32.8218
34.0253
35.2442
36.1557
37.1348
37.7976
38.5826
39.0429
16.3556
24.4598
33.7011
42.1658
50.1567
57.5552
64.5061
70.6095
76.2579
80.9069
85.2565
88.5377
91.7806
93.929
96.3356
97.6239
99.4627
100.149
42.1599
92.2657
140.376
183.843
226.192
266.308
302.447
333.554
359.959
381.447
399.369
413.163
425.127
433.481
441.788
446.667
453.302
455.787
570.028
929.811
1287.43
1576.94
1844.37
2077.97
2271.59
2424.47
2538.82
2619.88
2672.52
2703.16
2715.56
2712.73
2704.97
2688.02
2666.2
2640.96
0.155151
0.156162
0.271444
0.39882
0.523626
0.639684
0.745338
0.840835
0.927166
1.00773
1.09078
1.17629
1.26653
1.36402
1.47042
1.58646
1.71201
1.84728
1.99425
2.16097
2.36682
2.63246
2.95373
3.32703
3.75602
4.24889
4.8155
5.46685
6.21319
7.0635
8.02218
9.09013
10.2703
11.5616
12.9632
14.474
16.0928
17.8185
19.6498
21.5867
23.6292
25.7797
28.0414
30.4213
32.929
35.5807
38.3988
41.4183
44.6091
47.9316
51.4102
55.0399
58.8291
62.7808
66.8996
71.1904
75.6568
80.304
85.1354
90.1558
95.3682
100.777
106.385
112.196
118.211
124.435
130.867
137.511
144.366
151.435
158.716
166.209
173.913
181.826
189.947
198.272
206.797
215.519
224.431
233.531
242.809
252.26
261.875
271.648
281.567
291.623
301.806
312.104
322.503
332.993
343.559
354.183
364.851
375.542
386.238
396.914
407.545
418.105
428.567
438.908
449.119
459.234
469.285
479.168
488.918
498.503
507.918
517.141
526.157
534.951
543.506
551.806
559.836
567.581
575.026
582.159
588.964
595.431
601.546
607.299
612.678
617.676
622.282
626.49
630.292
633.683
636.658
639.214
641.347
643.054
644.329
645.149
645.725
645.721
645.306
644.36
643.095
641.514
639.47
637.043
634.228
631.041
627.49
623.59
619.354
614.797
609.924
604.749
599.284
593.544
587.542
581.292
574.808
568.106
561.2
554.105
546.837
539.412
531.846
524.153
516.352
508.459
500.495
492.489
484.5
476.883
472.029
469.108
466.33
463.533
460.699
457.825
454.907
451.926
448.848
445.591
441.994
437.587
431.436
407.281
0.6036
0.360247
0.328577
0.341809
0.373453
0.415129
0.463867
0.519114
0.581553
0.652813
0.735084
0.828803
0.935252
1.05616
1.19335
1.34866
1.52395
1.72129
1.943
2.1913
2.47177
2.79228
3.15512
3.56144
4.01328
4.51337
5.06411
5.6666
6.31913
7.01501
7.7446
8.51792
9.33394
10.1912
11.0891
12.0292
13.006
14.0207
15.0745
16.1692
17.307
18.4908
19.7237
21.0093
22.3515
23.7539
25.2194
26.749
28.3393
29.9899
31.7043
33.4833
35.3287
37.2422
39.2251
41.2789
43.405
45.6047
47.879
50.2292
52.6562
55.1608
57.7437
60.4056
63.1469
65.968
68.869
71.8499
74.9105
78.0506
81.2694
84.5665
87.9407
91.391
94.916
98.5143
102.184
105.923
109.729
113.601
117.534
121.526
125.574
129.675
133.824
138.018
142.253
146.523
150.825
155.152
159.499
163.859
168.227
172.594
176.954
181.298
185.619
189.91
194.168
198.395
202.603
206.828
211.088
215.282
219.425
223.505
227.519
231.459
235.319
239.092
242.773
246.355
249.832
253.199
256.449
259.578
262.579
265.448
268.179
270.769
273.213
275.507
277.648
279.631
281.455
283.116
284.613
285.943
287.106
288.099
288.922
289.576
290.076
290.378
290.499
290.452
290.239
289.89
289.362
288.677
287.831
286.83
285.677
284.377
282.933
281.351
279.633
277.784
275.81
273.715
271.503
269.182
266.754
264.227
261.606
258.897
256.106
253.238
250.3
247.298
244.239
241.13
237.979
234.797
231.609
228.521
225.963
223.829
221.777
219.735
217.688
215.635
213.576
211.513
209.444
207.369
205.272
203.193
201.029
197.324
1.32403
0.651946
0.51464
0.4866
0.495966
0.5259
0.571159
0.629684
0.701336
0.787036
0.888349
1.00677
1.1438
1.30089
1.47945
1.68086
1.9066
2.1584
2.43844
2.74967
3.09338
3.46841
3.87439
4.31077
4.77676
5.27146
5.79405
6.34407
6.92221
7.53198
8.17917
8.85815
9.56898
10.3129
11.0858
11.8774
12.7032
13.5654
14.4657
15.4057
16.387
17.4111
18.4794
19.5934
20.7544
21.9635
23.2217
24.5298
25.8871
27.2946
28.7536
30.265
31.8299
33.4492
35.1239
36.855
38.6433
40.4897
42.3947
44.3591
46.3834
48.4681
50.6138
52.8207
55.0892
57.4193
59.8112
62.2649
64.78
67.3565
69.9938
72.6914
75.4485
78.2644
81.1381
84.0684
87.0539
90.0932
93.1847
96.3265
99.5166
102.753
106.033
109.353
112.712
116.107
119.533
122.988
126.468
129.968
133.486
137.016
140.554
144.096
147.637
151.173
154.7
158.217
161.721
165.215
168.701
172.183
175.647
179.069
182.448
185.779
189.055
192.272
195.424
198.506
201.513
204.44
207.281
210.033
212.691
215.249
217.703
220.05
222.285
224.404
226.405
228.283
230.037
231.662
233.156
234.519
235.746
236.838
237.793
238.61
239.289
239.829
240.232
240.485
240.58
240.555
240.392
240.103
239.676
239.117
238.428
237.612
236.671
235.61
234.43
233.137
231.733
230.222
228.608
226.895
225.088
223.189
221.205
219.139
216.996
214.781
212.499
210.154
207.752
205.297
202.796
200.253
197.676
195.073
192.462
189.897
187.521
185.315
183.17
181.043
178.923
176.809
174.703
172.61
170.535
168.493
166.499
164.634
162.899
161.182
2.0938
0.942059
0.71861
0.66435
0.665714
0.696205
0.747512
0.816959
0.904174
1.00987
1.13526
1.28165
1.45025
1.64203
1.85773
2.09786
2.36281
2.65287
2.96827
3.309
3.67457
4.06402
4.47656
4.91165
5.3691
5.84914
6.35245
6.88017
7.43386
8.01531
8.62578
9.26495
9.93284
10.6291
11.3571
12.1259
12.9315
13.7744
14.656
15.5776
16.5408
17.5455
18.5926
19.6827
20.8165
21.9943
23.2157
24.4806
25.7919
27.1507
28.558
30.0146
31.5217
33.08
34.6905
36.3541
38.0716
39.8439
41.6718
43.5559
45.4969
47.4954
49.5518
51.6667
53.8404
56.0734
58.3657
60.7177
63.1292
65.6002
68.1305
70.7198
73.3675
76.0732
78.8361
81.6551
84.5293
87.4575
90.4381
93.4696
96.5501
99.6778
102.85
106.065
109.321
112.613
115.939
119.296
122.681
126.09
129.519
132.964
136.422
139.889
143.36
146.832
150.302
153.767
157.225
160.673
164.111
167.532
170.924
174.278
177.59
180.854
184.064
187.214
190.301
193.317
196.259
199.12
201.896
204.582
207.173
209.665
212.053
214.333
216.502
218.554
220.487
222.298
223.984
225.541
226.968
228.263
229.423
230.447
231.335
232.085
232.697
233.17
233.504
233.683
233.727
233.641
233.419
233.067
232.581
231.965
231.22
230.35
229.358
228.247
227.02
225.682
224.236
222.685
221.034
219.288
217.45
215.524
213.516
211.43
209.27
207.041
204.748
202.397
199.992
197.538
195.04
192.505
189.938
187.348
184.75
182.175
179.688
177.288
174.935
172.603
170.285
167.982
165.696
163.435
161.208
159.035
156.939
155
153.243
151.706
2.78462
1.21687
0.930252
0.859208
0.85711
0.891481
0.951391
1.03308
1.13563
1.25932
1.40492
1.57323
1.76484
1.98002
2.21871
2.48056
2.76503
3.0715
3.39928
3.74775
4.11631
4.50453
4.91233
5.34003
5.78835
6.25839
6.75155
7.26938
7.81351
8.38545
8.98648
9.61767
10.2802
10.9755
11.7056
12.4726
13.2768
14.1187
14.9992
15.9189
16.8781
17.8784
18.9206
20.0057
21.1343
22.3073
23.5261
24.7922
26.1053
27.4664
28.8764
30.3363
31.8472
33.4101
35.0261
36.6962
38.4215
40.203
42.0418
43.9391
45.8953
47.9113
49.9878
52.1256
54.3253
56.5875
58.9128
61.3016
63.7541
66.2706
68.8512
71.4957
74.204
76.9758
79.8104
82.7072
85.6653
88.6836
91.7609
94.8956
98.086
101.33
104.626
107.971
111.363
114.799
118.275
121.789
125.337
128.915
132.519
136.146
139.791
143.45
147.119
150.793
154.469
158.142
161.808
165.461
169.096
172.706
176.284
179.822
183.315
186.756
190.14
193.459
196.71
199.885
202.979
205.986
208.901
211.718
214.432
217.038
219.532
221.909
224.164
226.294
228.294
230.162
231.894
233.487
234.939
236.248
237.412
238.429
239.298
240.02
240.592
241.016
241.283
241.39
241.363
241.189
240.871
240.411
239.81
239.07
238.194
237.186
236.049
234.787
233.404
231.903
230.29
228.569
226.743
224.818
222.799
220.691
218.498
216.225
213.878
211.462
208.982
206.443
203.852
201.212
198.531
195.814
193.067
190.299
187.522
184.757
182.038
179.371
176.739
174.132
171.545
168.981
166.444
163.943
161.491
159.111
156.833
154.73
152.821
151.103
3.3599
1.48462
1.14549
1.06111
1.05724
1.09596
1.16394
1.2562
1.37109
1.50831
1.66802
1.85045
2.05557
2.28307
2.53235
2.80257
3.09285
3.40232
3.73031
4.07637
4.44035
4.82248
5.22334
5.64388
6.08533
6.54917
7.03697
7.55037
8.09094
8.66017
9.25947
9.89015
10.5536
11.251
11.984
12.7536
13.5607
14.4062
15.2909
16.2157
17.1816
18.1894
19.2403
20.3353
21.4752
22.6612
23.8944
25.1758
26.5064
27.8872
29.3195
30.8043
32.3431
33.937
35.5874
37.2956
39.0628
40.8903
42.7793
44.7308
46.7464
48.8273
50.9748
53.19
55.4739
57.8275
60.2516
62.747
65.3144
67.9543
70.667
73.4528
76.3117
79.2436
82.2481
85.3247
88.4727
91.6909
94.9782
98.333
101.754
105.238
108.784
112.388
116.049
119.763
123.526
127.334
131.185
135.073
138.995
142.946
146.92
150.913
154.921
158.937
162.956
166.973
170.982
174.976
178.948
182.892
186.798
190.661
194.474
198.229
201.919
205.539
209.081
212.538
215.904
219.173
222.338
225.393
228.332
231.15
233.842
236.402
238.826
241.109
243.246
245.235
247.072
248.753
250.276
251.639
252.84
253.878
254.751
255.459
256.002
256.379
256.574
256.613
256.492
256.21
255.769
255.172
254.419
253.515
252.463
251.267
249.93
248.457
246.854
245.124
243.273
241.305
239.227
237.043
234.76
232.382
229.915
227.365
224.738
222.04
219.276
216.452
213.575
210.651
207.685
204.685
201.657
198.609
195.553
192.503
189.48
186.492
183.535
180.605
177.702
174.829
171.993
169.204
166.478
163.839
161.319
158.98
156.827
154.8
3.81663
1.72913
1.35276
1.25884
1.25406
1.29636
1.37045
1.47027
1.5934
1.73891
1.90645
2.09571
2.30627
2.53747
2.7885
3.05846
3.3465
3.65198
3.97449
4.31399
4.6708
5.04558
5.43932
5.85326
6.28882
6.74755
7.23103
7.74084
8.27849
8.84546
9.44314
10.0729
10.736
11.4337
12.1674
12.9381
13.747
14.5952
15.4836
16.4134
17.3857
18.4016
19.4624
20.569
21.7229
22.9252
24.1771
25.4801
26.8354
28.2445
29.7088
31.2299
32.8093
34.4488
36.1498
37.9141
39.7433
41.639
43.603
45.6369
47.7424
49.9213
52.1751
54.5054
56.9136
59.4011
61.9692
64.6191
67.3518
70.1681
73.0688
76.0544
79.1251
82.2811
85.5222
88.848
92.2578
95.7506
99.3252
102.98
106.713
110.522
114.405
118.358
122.379
126.463
130.607
134.807
139.059
143.356
147.695
152.069
156.474
160.903
165.35
169.808
174.271
178.732
183.184
187.618
192.027
196.402
200.736
205.02
209.246
213.407
217.495
221.502
225.419
229.24
232.956
236.561
240.048
243.409
246.638
249.729
252.675
255.471
258.111
260.591
262.906
265.052
267.024
268.821
270.438
271.873
273.126
274.193
275.075
275.772
276.282
276.598
276.721
276.671
276.438
276.025
275.435
274.67
273.734
272.629
271.361
269.933
268.352
266.621
264.747
262.735
260.591
258.322
255.932
253.43
250.82
248.11
245.305
242.413
239.44
236.392
233.277
230.101
226.87
223.592
220.274
216.923
213.546
210.15
206.747
203.349
199.969
196.618
193.296
190.004
186.745
183.526
180.353
177.239
174.2
171.261
168.453
165.828
163.375
160.99
4.18732
1.95325
1.54775
1.44488
1.43814
1.48189
1.55924
1.66307
1.79024
1.93925
2.10928
2.29969
2.50983
2.73893
2.98623
3.25098
3.53257
3.83065
4.14517
4.47642
4.82501
5.19186
5.5781
5.98507
6.4142
6.86699
7.34499
7.84972
8.38267
8.94528
9.53897
10.1651
10.825
11.5198
12.2511
13.02
13.828
14.6763
15.5662
16.4991
17.4763
18.4991
19.569
20.6873
21.8555
23.0752
24.348
25.6755
27.0593
28.5014
30.0036
31.568
33.1966
34.8913
36.6542
38.4874
40.3931
42.3734
44.4306
46.5667
48.7839
51.0845
53.4706
55.9442
58.5072
61.1615
63.9088
66.7508
69.6889
72.7244
75.8583
79.0914
82.4243
85.8573
89.3904
93.0233
96.7554
100.586
104.513
108.535
112.65
116.855
121.148
125.525
129.982
134.515
139.12
143.792
148.525
153.314
158.152
163.033
167.95
172.896
177.864
182.846
187.833
192.818
197.791
202.744
207.667
212.55
217.385
222.163
226.874
231.509
236.059
240.515
244.868
249.11
253.232
257.225
261.081
264.793
268.353
271.754
274.989
278.052
280.937
283.638
286.151
288.47
290.593
292.514
294.231
295.742
297.045
298.139
299.023
299.697
300.161
300.401
300.439
300.273
299.902
299.331
298.562
297.597
296.442
295.1
293.577
291.878
290.009
287.976
285.786
283.446
280.962
278.341
275.59
272.718
269.73
266.635
263.44
260.153
256.78
253.33
249.81
246.228
242.591
238.907
235.183
231.428
227.649
223.855
220.055
216.26
212.482
208.73
205.009
201.323
197.677
194.079
190.538
187.067
183.683
180.411
177.279
174.33
171.538
168.772
4.89687
2.23191
1.74787
1.6206
1.60519
1.64569
1.7224
1.82651
1.95391
2.10249
2.27101
2.45861
2.66452
2.88805
3.12854
3.38548
3.65853
3.94763
4.25297
4.57504
4.91464
5.27279
5.65067
6.04958
6.47081
6.91573
7.386
7.88317
8.40872
8.96413
9.55089
10.1705
10.8246
11.5147
12.2416
13.0069
13.8119
14.6583
15.5474
16.481
17.4606
18.4881
19.5653
20.6944
21.8776
23.1161
24.4119
25.7664
27.182
28.6613
30.2068
31.821
33.5064
35.2655
37.1009
39.0153
41.0114
43.0918
45.2594
47.5169
49.867
52.3126
54.8563
57.5006
60.2481
63.1013
66.0623
69.1332
72.3159
75.6121
79.0231
82.5502
86.194
89.9552
93.8337
97.8294
101.941
106.169
110.51
114.963
119.525
124.193
128.965
133.834
138.799
143.852
148.99
154.206
159.493
164.845
170.255
175.714
181.215
186.75
192.308
197.882
203.461
209.035
214.594
220.128
225.626
231.077
236.47
241.796
247.044
252.202
257.261
262.211
267.041
271.742
276.303
280.716
284.971
289.059
292.972
296.703
300.244
303.587
306.726
309.655
312.369
314.863
317.132
319.173
320.983
322.558
323.899
325.003
325.87
326.501
326.89
327.038
326.958
326.646
326.107
325.344
324.361
323.16
321.748
320.13
318.312
316.301
314.102
311.725
309.175
306.461
303.592
300.574
297.417
294.129
290.719
287.193
283.562
279.834
276.017
272.119
268.15
264.117
260.03
255.896
251.724
247.523
243.301
239.067
234.831
230.602
226.391
222.207
218.059
213.951
209.892
205.889
201.953
198.099
194.343
190.71
187.224
183.921
180.764
177.606
5.88198
2.55277
1.94747
1.78126
1.75037
1.78286
1.85515
1.95619
2.08069
2.22587
2.39011
2.57234
2.77178
2.98779
3.21988
3.46773
3.73125
4.01055
4.30601
4.61812
4.94769
5.296
5.66438
6.05432
6.46757
6.90529
7.36845
7.85842
8.37665
8.92463
9.50389
10.1159
10.7622
11.4442
12.1635
12.9219
13.7212
14.5634
15.4502
16.3838
17.366
18.3989
19.4845
20.6248
21.822
23.0785
24.3972
25.7813
27.2332
28.7553
30.3511
32.0237
33.776
35.6113
37.5326
39.5433
41.6467
43.8461
46.145
48.5468
51.0549
53.6728
56.4036
59.2507
62.2171
65.3058
68.5196
71.8609
75.3323
78.9356
82.6726
86.5446
90.5527
94.6974
98.9788
103.397
107.95
112.637
117.457
122.406
127.482
132.681
137.998
143.43
148.97
154.612
160.351
166.179
172.088
178.07
184.117
190.219
196.367
202.55
208.758
214.981
221.206
227.423
233.619
239.782
245.9
251.962
257.954
263.865
269.683
275.396
280.992
286.46
291.788
296.965
301.981
306.825
311.487
315.957
320.227
324.287
328.129
331.746
335.13
338.276
341.177
343.828
346.225
348.365
350.243
351.858
353.207
354.292
355.111
355.665
355.949
355.971
355.733
355.238
354.491
353.496
352.258
350.78
349.07
347.133
344.978
342.61
340.04
337.274
334.322
331.192
327.895
324.438
320.833
317.087
313.212
309.216
305.108
300.899
296.599
292.215
287.759
283.239
278.665
274.046
269.392
264.711
260.013
255.307
250.603
245.91
241.24
236.601
232.002
227.451
222.956
218.527
214.177
209.918
205.77
201.753
197.891
194.213
190.672
187.116
6.85897
2.85804
2.12685
1.91794
1.86855
1.89011
1.95527
2.05072
2.17001
2.30971
2.46784
2.64317
2.83486
3.04237
3.2653
3.50343
3.75675
4.02583
4.31143
4.6147
4.93637
5.27694
5.63743
6.01898
6.42264
6.84956
7.30127
7.77953
8.28592
8.82205
9.38956
9.99009
10.6254
11.2972
12.0077
12.759
13.5529
14.3916
15.2773
16.2123
17.1989
18.2397
19.3371
20.4939
21.713
22.9973
24.3497
25.7733
27.2696
28.8441
30.5017
32.2463
34.0813
36.0105
38.0376
40.1665
42.4015
44.7465
47.2057
49.7834
52.4835
55.3103
58.2676
61.3593
64.5891
67.9605
71.4767
75.1409
78.9555
82.9231
87.0454
91.3239
95.7597
100.353
105.104
110.012
115.076
120.294
125.663
131.179
136.841
142.641
148.576
154.64
160.825
167.125
173.532
180.037
186.631
193.304
200.046
206.846
213.694
220.576
227.481
234.396
241.309
248.205
255.071
261.894
268.66
275.355
281.965
288.477
294.878
301.154
307.292
313.279
319.103
324.752
330.214
335.478
340.532
345.366
349.971
354.336
358.454
362.316
365.916
369.245
372.298
375.071
377.558
379.756
381.661
383.273
384.589
385.609
386.334
386.765
386.902
386.748
386.305
385.579
384.577
383.303
381.763
379.961
377.906
375.605
373.067
370.299
367.312
364.115
360.717
357.13
353.364
349.429
345.335
341.095
336.718
332.215
327.596
322.873
318.056
313.156
308.182
303.145
298.056
292.924
287.76
282.574
277.375
272.173
266.978
261.8
256.65
251.537
246.472
241.461
236.517
231.648
226.867
222.19
217.633
213.218
208.963
204.894
200.959
197.005
7.77791
3.13166
2.27831
2.02671
1.95767
1.96675
2.02304
2.11118
2.22366
2.3565
2.5074
2.67492
2.85809
3.05666
3.27061
3.50032
3.74592
4.00727
4.28466
4.57845
4.88913
5.21807
5.56654
5.93575
6.32698
6.74181
7.18195
7.6488
8.14394
8.6691
9.22606
9.81673
10.4431
11.1074
11.8117
12.5584
13.35
14.189
15.0779
16.0197
17.0172
18.0733
19.191
20.3738
21.6257
22.9495
24.3477
25.8221
27.3804
29.0277
30.7683
32.6079
34.5517
36.6036
38.7681
41.0499
43.4538
45.9849
48.648
51.4482
54.3902
57.4788
60.7186
64.114
67.6692
71.3883
75.2747
79.3318
83.5625
87.969
92.5534
97.3168
102.26
107.383
112.686
118.166
123.822
129.652
135.651
141.816
148.141
154.62
161.248
168.016
174.916
181.94
189.078
196.319
203.654
211.07
218.556
226.098
233.683
241.299
248.931
256.564
264.183
271.775
279.323
286.812
294.227
301.552
308.773
315.875
322.842
329.661
336.317
342.796
349.085
355.171
361.041
366.683
372.085
377.237
382.128
386.748
391.089
395.142
398.9
402.355
405.502
408.337
410.853
413.049
414.921
416.467
417.688
418.583
419.154
419.402
419.332
418.944
418.235
417.221
415.908
414.3
412.404
410.226
407.775
405.06
402.09
398.876
395.427
391.756
387.871
383.787
379.513
375.062
370.447
365.677
360.767
355.726
350.568
345.304
339.945
334.502
328.987
323.412
317.787
312.123
306.431
300.722
295.005
289.292
283.593
277.917
272.276
266.679
261.136
255.659
250.256
244.939
239.721
234.616
229.643
224.819
220.162
215.695
211.361
207.015
8.61467
3.36788
2.39988
2.10738
2.01824
2.01438
2.06073
2.14043
2.24502
2.3701
2.51336
2.67361
2.85015
3.04198
3.24865
3.46976
3.7051
3.95547
4.2215
4.50392
4.80388
5.12234
5.46034
5.81911
6.20002
6.60461
7.03453
7.49147
7.97723
8.49372
9.04303
9.62734
10.249
10.9106
11.6146
12.3639
13.1612
14.0096
14.9123
15.8729
16.8952
17.9821
19.1371
20.3633
21.6626
23.0405
24.5038
26.0594
27.7123
29.4675
31.3306
33.3076
35.405
37.6279
39.9816
42.472
45.1048
47.8858
50.8208
53.9153
57.175
60.6052
64.2108
67.9967
71.9674
76.127
80.4792
85.0271
89.7735
94.7202
99.8688
105.22
110.773
116.529
122.484
128.636
134.983
141.52
148.243
155.144
162.219
169.458
176.854
184.397
192.078
199.886
207.809
215.835
223.952
232.146
240.404
248.71
257.049
265.407
273.768
282.115
290.432
298.702
306.909
315.036
323.067
330.984
338.772
346.414
353.894
361.198
368.31
375.216
381.9
388.351
394.554
400.497
406.168
411.556
416.651
421.442
425.92
430.078
433.908
437.403
440.558
443.367
445.828
447.937
449.691
451.091
452.135
452.826
453.164
453.155
452.809
452.103
451.062
449.693
448.004
445.999
443.686
441.074
438.172
434.99
431.54
427.831
423.876
419.687
415.277
410.658
405.842
400.843
395.675
390.349
384.879
379.278
373.559
367.733
361.814
355.814
349.744
343.617
337.444
331.238
325.009
318.769
312.529
306.299
300.09
293.912
287.777
281.695
275.675
269.729
263.868
258.103
252.447
246.915
241.523
236.29
231.23
226.363
221.634
216.906
9.35792
3.56523
2.4923
2.16177
2.05245
2.03609
2.07201
2.14312
2.24074
2.35964
2.4967
2.64995
2.81794
3.00053
3.19753
3.40898
3.63537
3.87695
4.13427
4.40808
4.69935
5.00916
5.33871
5.68936
6.06264
6.46023
6.88397
7.33581
7.81779
8.33217
8.88135
9.46794
10.0948
10.7652
11.4825
12.2495
13.0697
13.9464
14.8831
15.8825
16.9469
18.0832
19.2967
20.5931
21.979
23.4598
25.0414
26.7309
28.5343
30.4582
32.5093
34.6953
37.0222
39.4971
42.1266
44.9176
47.8768
51.0109
54.3261
57.8287
61.5245
65.4188
69.517
73.8235
78.3427
83.0782
88.033
93.2096
98.6098
104.234
110.084
116.157
122.452
128.967
135.699
142.643
149.794
157.145
164.691
172.422
180.33
188.406
196.639
205.017
213.528
222.161
230.901
239.734
248.646
257.621
266.644
275.698
284.768
293.836
302.884
311.896
320.853
329.738
338.534
347.221
355.783
364.203
372.462
380.545
388.435
396.116
403.573
410.79
417.754
424.45
430.865
436.987
442.804
448.305
453.479
458.317
462.81
466.95
470.731
474.146
477.19
479.86
482.151
484.062
485.59
486.738
487.504
487.889
487.899
487.554
486.82
485.72
484.266
482.466
480.327
477.855
475.06
471.952
468.541
464.838
460.856
456.607
452.103
447.358
442.385
437.198
431.812
426.239
420.494
414.592
408.546
402.369
396.076
389.679
383.192
376.628
369.999
363.318
356.597
349.849
343.086
336.318
329.558
322.817
316.104
309.432
302.811
296.251
289.764
283.359
277.049
270.844
264.759
258.808
253.005
247.369
241.912
236.655
231.54
226.447
10.0015
3.72316
2.55692
2.19241
2.06451
2.03658
2.06421
2.12812
2.21793
2.32862
2.45745
2.60272
2.76358
2.93932
3.12965
3.33461
3.55451
3.78982
4.04122
4.30958
4.59594
4.90151
5.22768
5.57603
5.94836
6.34675
6.77372
7.23154
7.72246
8.24921
8.81468
9.42191
10.0739
10.773
11.5217
12.3257
13.1901
14.1197
15.1195
16.1954
17.3536
18.5993
19.9388
21.3792
22.9279
24.5921
26.3791
28.2964
30.3518
32.5531
34.9083
37.4255
40.1129
42.9789
46.0316
49.2785
52.7269
56.3838
60.2557
64.3485
68.6674
73.217
78.0015
83.0243
88.2881
93.7951
99.5466
105.543
111.784
118.268
124.993
131.956
139.153
146.578
154.226
162.089
170.161
178.431
186.891
195.53
204.337
213.3
222.406
231.642
240.994
250.446
259.985
269.594
279.257
288.957
298.678
308.402
318.111
327.789
337.415
346.973
356.443
365.808
375.05
384.149
393.089
401.852
410.42
418.777
426.905
434.791
442.417
449.77
456.835
463.6
470.05
476.175
481.962
487.401
492.483
497.199
501.54
505.499
509.071
512.25
515.032
517.414
519.393
520.967
522.136
522.902
523.267
523.229
522.82
521.993
520.784
519.196
517.238
514.921
512.253
509.24
505.894
502.226
498.247
493.971
489.409
484.575
479.484
474.149
468.584
462.805
456.826
450.663
444.329
437.84
431.21
424.454
417.586
410.62
403.569
396.448
389.268
382.044
374.788
367.512
360.229
352.95
345.688
338.453
331.256
324.109
317.021
310.004
303.069
296.226
289.486
282.862
276.366
270.013
263.817
257.794
251.956
246.324
240.841
235.406
10.5693
3.84735
2.59857
2.20463
2.06095
2.02341
2.04122
2.09642
2.17911
2.28381
2.40736
2.54796
2.70452
2.87643
3.06349
3.26581
3.48378
3.71815
3.97002
4.24051
4.53077
4.84229
5.17682
5.53632
5.92283
6.33839
6.78444
7.26377
7.78056
8.33866
8.94201
9.59483
10.3017
11.0679
11.8992
12.8006
13.7782
14.8384
15.9884
17.2357
18.5882
20.0537
21.6404
23.3569
25.2122
27.2151
29.3747
31.7001
34.2004
36.8842
39.7603
42.8357
46.1192
49.6224
53.3564
57.3265
61.5391
66.0013
70.7181
75.6931
80.9288
86.4267
92.1877
98.212
104.499
111.047
117.854
124.916
132.23
139.79
147.591
155.626
163.887
172.366
181.053
189.938
199.011
208.261
217.674
227.239
236.942
246.769
256.706
266.738
276.849
287.023
297.246
307.5
317.768
328.034
338.28
348.489
358.642
368.723
378.713
388.593
398.347
407.956
417.401
426.667
435.735
444.589
453.212
461.588
469.701
477.536
485.079
492.316
499.234
505.82
512.063
517.952
523.475
528.624
533.389
537.764
541.74
545.312
548.475
551.224
553.558
555.472
556.965
558.041
558.69
558.927
558.753
558.175
557.173
555.77
553.974
551.793
549.236
546.313
543.033
539.405
535.44
531.151
526.551
521.653
516.47
511.017
505.308
499.359
493.184
486.799
480.219
473.459
466.536
459.463
452.258
444.933
437.504
429.986
422.391
414.735
407.029
399.288
391.524
383.749
375.977
368.219
360.486
352.791
345.143
337.554
330.033
322.593
315.243
307.994
300.857
293.844
286.968
280.242
273.68
267.298
261.105
255.123
249.297
243.552
11.1157
3.95186
2.62372
2.20294
2.04558
1.9983
2.00953
2.06007
2.1394
2.24193
2.36458
2.50574
2.66417
2.83938
3.03132
3.24032
3.46695
3.71189
3.97565
4.25945
4.5658
4.89706
5.25576
5.64469
6.06698
6.52622
7.02681
7.57308
8.16952
8.82145
9.53476
10.3159
11.1719
12.1104
13.1397
14.2679
15.5038
16.8568
18.3369
19.9544
21.72
23.6444
25.7385
28.013
30.4785
33.1455
36.0245
39.1257
42.4583
46.0308
49.8511
53.9268
58.2638
62.8669
67.7387
72.886
78.3146
84.0372
90.051
96.353
102.937
109.799
116.93
124.326
131.98
139.883
148.03
156.411
165.017
173.839
182.867
192.09
201.497
211.076
220.817
230.706
240.731
250.879
261.137
271.49
281.924
292.427
302.982
313.576
324.193
334.818
345.436
356.032
366.589
377.091
387.524
397.869
408.111
418.234
428.22
438.054
447.718
457.197
466.473
475.532
484.357
492.933
501.246
509.28
517.021
524.456
531.571
538.355
544.796
550.882
556.604
561.951
566.915
571.485
575.657
579.423
582.777
585.713
588.231
590.322
591.991
593.231
594.042
594.437
594.384
593.957
593.067
591.775
590.073
587.97
585.475
582.595
579.343
575.73
571.761
567.448
562.805
557.843
552.578
547.022
541.189
535.095
528.754
522.182
515.394
508.406
501.232
493.89
486.395
478.762
471.006
463.143
455.186
447.151
439.051
430.9
422.711
414.498
406.272
398.047
389.834
381.645
373.493
365.386
357.338
349.356
341.453
333.638
325.922
318.314
310.826
303.469
296.255
289.198
282.311
275.607
269.096
262.801
256.666
250.652
11.6602
4.03683
2.63468
2.19273
2.0257
1.97547
1.98689
2.04016
2.12437
2.23368
2.36463
2.5146
2.68356
2.87168
3.07948
3.30793
3.55842
3.83283
4.13377
4.46409
4.82683
5.22577
5.66521
6.15013
6.68627
7.28015
7.93911
8.67086
9.48376
10.3872
11.3915
12.508
13.7486
15.1261
16.6537
18.3451
20.2142
22.2755
24.5428
27.03
29.7504
32.7175
35.9438
39.4394
43.2135
47.2746
51.631
56.2898
61.2543
66.5262
72.1078
78.0034
84.2089
90.7164
97.5171
104.603
111.966
119.593
127.487
135.661
144.085
152.74
161.61
170.683
179.945
189.384
198.987
208.742
218.638
228.663
238.805
249.052
259.394
269.819
280.315
290.872
301.476
312.118
322.786
333.468
344.152
354.827
365.481
376.101
386.676
397.194
407.642