/*--------------------------------*- C++ -*----------------------------------*\
| =========                 |                                                 |
| \\      /  F ield         | OpenFOAM: The Open Source CFD Toolbox           |
|  \\    /   O peration     | Version:  4.1                                   |
|   \\  /    A nd           | Web:      www.OpenFOAM.org                      |
|    \\/     M anipulation  |                                                 |
\*---------------------------------------------------------------------------*/
FoamFile
{
    version     2.0;
    format      ascii;
    class       volScalarField;
    location    "298";
    object      k;
}
// * * * * * * * * * * * * * * * * * * * * * * * * * * * * * * * * * * * * * //

dimensions      [0 2 -2 0 0 0 0];

internalField   nonuniform List<scalar> 
12225
(
0.580288
1.01383
1.31598
1.48985
1.57421
1.60333
1.60025
1.58728
1.56462
1.53889
1.51395
1.49033
1.46936
1.44979
1.4337
1.41765
1.40691
1.39193
0.442181
0.502559
0.527838
0.540394
0.547593
0.55149
0.553405
0.555482
0.55857
0.562496
0.568153
0.574588
0.582687
0.591099
0.600749
0.61036
0.620221
0.631321
0.387489
0.419265
0.42632
0.423526
0.416688
0.406302
0.394557
0.383319
0.371968
0.362284
0.352765
0.345485
0.338159
0.333368
0.328064
0.325467
0.32183
0.320894
0.375843
0.384399
0.388022
0.387393
0.385551
0.38147
0.376074
0.370129
0.363715
0.357314
0.350868
0.344693
0.338691
0.333028
0.32772
0.322691
0.318131
0.313739
0.374005
0.3749
0.375831
0.375403
0.374367
0.372283
0.369556
0.366319
0.362837
0.359066
0.35531
0.351355
0.347639
0.343727
0.340218
0.336469
0.333283
0.329758
0.37372
0.372268
0.371496
0.370519
0.369352
0.36781
0.366004
0.363889
0.361665
0.359216
0.356796
0.354198
0.351736
0.349112
0.346714
0.344143
0.341877
0.339409
0.373786
0.371642
0.369946
0.36841
0.366965
0.365455
0.363909
0.362238
0.36054
0.358732
0.356943
0.355062
0.353251
0.35136
0.34958
0.347723
0.346015
0.344221
0.373822
0.37156
0.369556
0.367732
0.366063
0.364454
0.362905
0.361339
0.359798
0.358222
0.356682
0.355104
0.353578
0.352024
0.350538
0.349026
0.347603
0.346144
0.373831
0.371558
0.369449
0.367489
0.365679
0.363971
0.362363
0.360803
0.359302
0.357819
0.356386
0.35496
0.353582
0.352209
0.35089
0.349574
0.34832
0.347062
0.373831
0.371562
0.369424
0.367407
0.365519
0.363738
0.362065
0.360471
0.358957
0.357498
0.356103
0.354747
0.353445
0.352175
0.350955
0.349761
0.348617
0.347493
0.373829
0.371561
0.369416
0.367384
0.365464
0.363647
0.361931
0.360304
0.358762
0.357293
0.355895
0.354556
0.353279
0.35205
0.350875
0.349742
0.348655
0.347606
0.373828
0.371558
0.36941
0.367373
0.365444
0.363613
0.361879
0.360233
0.358671
0.357186
0.355775
0.354431
0.353151
0.35193
0.350764
0.349649
0.348583
0.347563
0.373827
0.371556
0.369404
0.367365
0.365431
0.363596
0.361855
0.3602
0.358629
0.357135
0.355714
0.354362
0.353074
0.351848
0.350679
0.349564
0.348499
0.347484
0.373826
0.371554
0.3694
0.367358
0.365421
0.363583
0.361838
0.36018
0.358604
0.357105
0.355679
0.354322
0.353029
0.351797
0.350623
0.349504
0.348436
0.347417
0.373826
0.371552
0.369397
0.367353
0.365414
0.363574
0.361826
0.360165
0.358586
0.357084
0.355655
0.354294
0.352998
0.351763
0.350585
0.349462
0.348391
0.347369
0.373825
0.371551
0.369395
0.367349
0.365409
0.363566
0.361816
0.360153
0.358572
0.357068
0.355636
0.354273
0.352974
0.351737
0.350557
0.349432
0.348358
0.347334
0.373825
0.371551
0.369393
0.367347
0.365405
0.363561
0.36181
0.360145
0.358563
0.357057
0.355623
0.354259
0.352958
0.351719
0.350537
0.34941
0.348335
0.347309
0.373825
0.37155
0.369393
0.367346
0.365404
0.363559
0.361807
0.360142
0.358558
0.357051
0.355617
0.354251
0.35295
0.35171
0.350527
0.349399
0.348323
0.347296
0.373825
0.371551
0.369393
0.367347
0.365404
0.36356
0.361808
0.360142
0.358558
0.357051
0.355617
0.354251
0.352949
0.351709
0.350526
0.349398
0.348322
0.347295
0.373825
0.371551
0.369394
0.367348
0.365406
0.363562
0.361811
0.360146
0.358562
0.357056
0.355622
0.354256
0.352955
0.351715
0.350533
0.349405
0.348329
0.347303
0.373826
0.371552
0.369396
0.367351
0.36541
0.363567
0.361816
0.360152
0.35857
0.357065
0.355633
0.354269
0.35297
0.351732
0.350552
0.349427
0.348353
0.347328
0.373826
0.371553
0.369398
0.367354
0.365415
0.363575
0.361828
0.360169
0.358593
0.357095
0.35567
0.354314
0.353021
0.351789
0.350613
0.34949
0.348418
0.347392
0.373826
0.371554
0.3694
0.367362
0.365432
0.363608
0.361882
0.360247
0.358695
0.35722
0.355813
0.354471
0.353186
0.351957
0.350776
0.349645
0.348556
0.34751
0.373827
0.371552
0.369412
0.36742
0.365552
0.363806
0.362155
0.360591
0.359091
0.35765
0.356254
0.354904
0.35359
0.352316
0.351074
0.349868
0.348693
0.347554
0.373817
0.371557
0.369579
0.367832
0.366203
0.364681
0.363181
0.361704
0.360211
0.358724
0.357223
0.35573
0.354238
0.352765
0.351296
0.34986
0.348437
0.347055
0.373752
0.371904
0.370798
0.369755
0.368638
0.367447
0.365995
0.364405
0.36263
0.360789
0.35884
0.35688
0.354865
0.352869
0.350859
0.348896
0.346931
0.345032
0.373955
0.374792
0.376338
0.376384
0.375898
0.374613
0.372423
0.369951
0.367103
0.364195
0.36108
0.358005
0.354819
0.351728
0.348594
0.345564
0.342544
0.339651
0.377029
0.39087
0.398672
0.398152
0.396367
0.392634
0.387945
0.383145
0.377878
0.372746
0.367378
0.362233
0.357063
0.352122
0.347359
0.34277
0.338551
0.334382
0.401068
0.430057
0.440456
0.444207
0.447069
0.450283
0.453163
0.455993
0.458391
0.460661
0.462689
0.464547
0.466507
0.468146
0.470299
0.471904
0.47455
0.476118
0.464822
0.644117
0.800194
0.916058
1.0169
1.10105
1.16842
1.22028
1.25835
1.285
1.30215
1.31208
1.3161
1.31536
1.31243
1.30727
1.30012
1.29188
0.00218013
0.00364056
0.00526232
0.00680012
0.00815232
0.0093147
0.0103122
0.0111731
0.011923
0.0126002
0.0132797
0.013961
0.0146618
0.0154003
0.0161862
0.0170219
0.0179034
0.0188287
0.0198078
0.020887
0.0221781
0.0237931
0.0256805
0.0277912
0.0301215
0.0326912
0.0355248
0.0386474
0.0420761
0.0458186
0.0498626
0.0541807
0.0587585
0.0635688
0.068589
0.0737987
0.0791805
0.0847189
0.0904001
0.0962159
0.102159
0.10823
0.11443
0.120772
0.127273
0.133964
0.14089
0.14812
0.155573
0.163138
0.170869
0.178744
0.186777
0.194967
0.203315
0.211824
0.220495
0.22933
0.238329
0.247495
0.256824
0.26632
0.275978
0.2858
0.295782
0.305924
0.316221
0.326672
0.33727
0.348013
0.358895
0.369912
0.381055
0.392321
0.403701
0.415188
0.426773
0.438449
0.450205
0.462035
0.473925
0.485869
0.497852
0.509866
0.521898
0.533937
0.545969
0.557983
0.569965
0.581902
0.59378
0.605582
0.617293
0.628895
0.640369
0.651694
0.662847
0.673804
0.684542
0.695042
0.705304
0.715366
0.725266
0.734902
0.744315
0.753478
0.762389
0.771034
0.779402
0.787483
0.795266
0.80274
0.809896
0.816725
0.823217
0.829365
0.83516
0.840595
0.845664
0.85036
0.854678
0.858613
0.86216
0.865317
0.86808
0.870448
0.872418
0.873992
0.875168
0.875945
0.876321
0.876278
0.875999
0.875194
0.87401
0.872343
0.870384
0.868134
0.86546
0.862437
0.85906
0.855341
0.851288
0.846913
0.842228
0.837245
0.831967
0.826407
0.820573
0.814477
0.80813
0.801543
0.794728
0.787695
0.780457
0.773027
0.765416
0.757638
0.749705
0.74163
0.733427
0.72511
0.716698
0.708216
0.699715
0.691491
0.685756
0.682069
0.678545
0.675001
0.671417
0.667789
0.664112
0.66037
0.656527
0.652503
0.648142
0.642981
0.636092
0.611335
0.0053922
0.00838291
0.0119306
0.014823
0.0172646
0.0194221
0.0214036
0.0232865
0.0251296
0.0269792
0.0288796
0.0309038
0.0330991
0.0354908
0.0380859
0.0408795
0.0438624
0.0470289
0.0503813
0.0539324
0.0576977
0.0616924
0.0659311
0.0704268
0.0751951
0.0802584
0.0856417
0.0913701
0.0974643
0.103937
0.110786
0.117996
0.125564
0.133483
0.141749
0.150349
0.159268
0.1685
0.178041
0.187886
0.198032
0.208478
0.219221
0.230262
0.241601
0.253237
0.265169
0.277395
0.289904
0.302694
0.315775
0.32915
0.342824
0.356802
0.371087
0.385686
0.4006
0.415836
0.431395
0.447282
0.463498
0.480046
0.496927
0.514142
0.531691
0.549573
0.567787
0.58633
0.6052
0.624392
0.643901
0.663722
0.683847
0.70427
0.724981
0.745971
0.767229
0.788744
0.810503
0.832493
0.854699
0.877106
0.899697
0.922456
0.945364
0.968402
0.99155
1.01479
1.03809
1.06144
1.08482
1.10818
1.13152
1.15481
1.178
1.20108
1.224
1.24673
1.26922
1.29143
1.31328
1.33471
1.3557
1.3764
1.39677
1.4168
1.43646
1.45574
1.47461
1.49304
1.51101
1.5285
1.54549
1.56196
1.57789
1.59325
1.60804
1.62222
1.63579
1.64872
1.66101
1.67264
1.68359
1.69386
1.70343
1.71229
1.72044
1.72787
1.73458
1.74056
1.74581
1.75034
1.75416
1.75724
1.75957
1.76095
1.76165
1.76186
1.76127
1.75997
1.75797
1.75527
1.7519
1.74786
1.74318
1.73786
1.73193
1.72539
1.71826
1.71057
1.70233
1.69355
1.68426
1.67448
1.66422
1.65351
1.64237
1.63083
1.61889
1.6066
1.59397
1.58103
1.56781
1.55432
1.54062
1.52682
1.51336
1.50016
1.48687
1.47345
1.45994
1.44633
1.43265
1.41889
1.40503
1.39102
1.3767
1.36196
1.34531
1.31039
0.00910747
0.0137098
0.0185268
0.0222993
0.0254937
0.0283777
0.0311075
0.0337906
0.0365099
0.0393351
0.0423262
0.0455334
0.0489918
0.0527208
0.0567252
0.0610001
0.0655359
0.0703237
0.0753588
0.0806431
0.086187
0.0920043
0.0981066
0.104507
0.111224
0.118278
0.12569
0.133481
0.141667
0.150259
0.159272
0.168723
0.178617
0.188958
0.199743
0.210965
0.222609
0.234673
0.247148
0.260029
0.273309
0.286981
0.301039
0.315477
0.33029
0.345475
0.361027
0.376941
0.393217
0.409855
0.42686
0.444237
0.461987
0.480117
0.49863
0.517529
0.536819
0.556503
0.576583
0.597062
0.617942
0.639223
0.660907
0.682994
0.705481
0.728367
0.75165
0.775325
0.799388
0.823833
0.848653
0.873841
0.899387
0.925283
0.951516
0.978075
1.00495
1.03212
1.05957
1.08729
1.11525
1.14345
1.17185
1.20045
1.22921
1.25811
1.28713
1.31624
1.34542
1.37464
1.40387
1.43308
1.46224
1.49132
1.52028
1.5491
1.57773
1.60614
1.6343
1.66217
1.68972
1.71693
1.74378
1.77026
1.79633
1.82197
1.84714
1.87181
1.89595
1.91954
1.94253
1.96491
1.98664
2.0077
2.02806
2.0477
2.06658
2.0847
2.10201
2.11852
2.13419
2.149
2.16295
2.17601
2.18818
2.19943
2.20977
2.21917
2.22765
2.23518
2.24178
2.24744
2.25217
2.25594
2.25876
2.26047
2.26123
2.26128
2.26034
2.25848
2.25572
2.25208
2.24756
2.24219
2.23598
2.22896
2.22114
2.21255
2.20321
2.19313
2.18235
2.17088
2.15876
2.14601
2.13264
2.1187
2.10421
2.0892
2.07369
2.05773
2.04133
2.02453
2.00737
1.98989
1.97213
1.95419
1.93632
1.91849
1.90056
1.8825
1.86433
1.84606
1.82774
1.80939
1.791
1.77261
1.75415
1.73563
1.71563
1.68465
0.0123668
0.0193337
0.0253775
0.0299622
0.0338307
0.0373463
0.0407102
0.044055
0.0474804
0.0510654
0.0548731
0.0589506
0.0633282
0.0680203
0.0730276
0.0783419
0.083951
0.0898441
0.0960146
0.102462
0.109193
0.116217
0.12355
0.131214
0.139234
0.147639
0.156457
0.165715
0.175435
0.185638
0.196339
0.207545
0.219259
0.231476
0.244188
0.257387
0.271072
0.285233
0.299863
0.314952
0.330491
0.346473
0.362891
0.379737
0.397008
0.414699
0.432808
0.451332
0.470272
0.48963
0.509411
0.529618
0.550256
0.57133
0.592844
0.614802
0.637208
0.660067
0.683381
0.707154
0.731387
0.756082
0.781241
0.806862
0.832945
0.859489
0.88649
0.913944
0.941847
0.970192
0.998973
1.02818
1.05781
1.08784
1.11826
1.14907
1.18024
1.21176
1.24361
1.27578
1.30824
1.34097
1.37395
1.40715
1.44055
1.47412
1.50784
1.54167
1.57558
1.60954
1.64353
1.6775
1.71142
1.74525
1.77896
1.81252
1.84588
1.87901
1.91187
1.94444
1.97667
2.00854
2.04
2.07102
2.10156
2.13159
2.16106
2.18995
2.2182
2.2458
2.27269
2.29886
2.32425
2.34885
2.37262
2.39552
2.41754
2.43863
2.45879
2.47798
2.49617
2.51336
2.52951
2.54461
2.55865
2.57161
2.58347
2.59424
2.6039
2.61246
2.61989
2.62622
2.63143
2.63552
2.63847
2.64016
2.64078
2.64044
2.63898
2.63643
2.63282
2.62817
2.62249
2.61581
2.60814
2.59952
2.58997
2.5795
2.56816
2.55596
2.54293
2.52911
2.51452
2.49918
2.48315
2.46644
2.44909
2.43114
2.41261
2.39355
2.374
2.35398
2.33355
2.31274
2.29162
2.27028
2.24886
2.22738
2.20578
2.18406
2.16222
2.14032
2.1184
2.0965
2.07468
2.053
2.03151
2.0103
1.98814
1.95919
0.0149596
0.0249555
0.0322749
0.0377066
0.0422661
0.0464017
0.0503575
0.0542911
0.0583164
0.0625204
0.066969
0.0717086
0.0767673
0.082157
0.0878766
0.0939171
0.100267
0.106917
0.113862
0.121106
0.12866
0.136542
0.144774
0.153386
0.162408
0.171871
0.181804
0.192231
0.203174
0.214648
0.226662
0.239219
0.25232
0.265961
0.280136
0.29484
0.310067
0.325807
0.342053
0.358796
0.37603
0.393746
0.41194
0.430606
0.449741
0.469343
0.48941
0.509944
0.530948
0.552424
0.574377
0.596812
0.619733
0.643148
0.667059
0.691474
0.716397
0.741833
0.767786
0.79426
0.821258
0.848782
0.876835
0.905416
0.934526
0.964163
0.994326
1.02501
1.05621
1.08793
1.12014
1.15286
1.18605
1.21973
1.25386
1.28844
1.32345
1.35887
1.39468
1.43086
1.4674
1.50425
1.54141
1.57883
1.6165
1.65438
1.69244
1.73064
1.76895
1.80734
1.84576
1.88418
1.92257
1.96087
1.99905
2.03707
2.07488
2.11246
2.14974
2.1867
2.22329
2.25946
2.29517
2.33038
2.36504
2.39911
2.43255
2.46531
2.49734
2.52862
2.55909
2.58871
2.61746
2.64528
2.67215
2.69803
2.72288
2.74667
2.76939
2.79098
2.81144
2.83073
2.84884
2.86573
2.88141
2.89585
2.90903
2.92095
2.9316
2.94098
2.94908
2.9559
2.96145
2.96571
2.96867
2.9702
2.97058
2.96976
2.96769
2.96438
2.95987
2.95416
2.94729
2.93928
2.93016
2.91995
2.90868
2.89638
2.88309
2.86883
2.85364
2.83755
2.82059
2.80281
2.78423
2.7649
2.74486
2.72413
2.70277
2.68082
2.65832
2.6353
2.61183
2.58794
2.56371
2.53921
2.51455
2.48976
2.46484
2.43979
2.41466
2.38948
2.36433
2.33927
2.31439
2.28982
2.26565
2.24204
2.21793
2.18925
0.0169574
0.03028
0.0389578
0.0452714
0.0505308
0.0552712
0.0597785
0.0642331
0.0687622
0.0734604
0.0783973
0.0836216
0.0891627
0.0950342
0.101238
0.107769
0.114622
0.121792
0.129282
0.137102
0.145268
0.153803
0.162736
0.172096
0.181913
0.192216
0.20303
0.214375
0.226269
0.238721
0.251738
0.265323
0.279475
0.294191
0.309468
0.3253
0.341682
0.358607
0.37607
0.394066
0.412588
0.431633
0.451198
0.47128
0.491879
0.512995
0.534628
0.556783
0.579461
0.602669
0.62641
0.650692
0.675519
0.7009
0.72684
0.753346
0.780425
0.808082
0.836323
0.865154
0.894578
0.9246
0.955223
0.986448
1.01828
1.05071
1.08374
1.11737
1.1516
1.18642
1.22182
1.2578
1.29434
1.33143
1.36906
1.40721
1.44587
1.48501
1.52461
1.56465
1.60511
1.64595
1.68715
1.72868
1.7705
1.81258
1.85488
1.89736
1.93999
1.98272
2.02552
2.06833
2.11111
2.15382
2.19641
2.23883
2.28104
2.32299
2.36462
2.40588
2.44674
2.48712
2.52699
2.56629
2.60497
2.64298
2.68028
2.71681
2.75252
2.78737
2.82131
2.8543
2.88628
2.91722
2.94708
2.97582
3.0034
3.02978
3.05494
3.07883
3.10143
3.12272
3.14267
3.16125
3.17845
3.19426
3.20865
3.22161
3.23314
3.24324
3.2519
3.25912
3.2649
3.26924
3.27211
3.27342
3.27346
3.2721
3.26934
3.2652
3.25972
3.2529
3.24479
3.23541
3.22478
3.21295
3.19995
3.1858
3.17054
3.15422
3.13687
3.11852
3.09923
3.07902
3.05793
3.03602
3.01333
2.98989
2.96576
2.94099
2.91561
2.88968
2.86326
2.83639
2.80914
2.7816
2.75383
2.7259
2.69782
2.66962
2.64135
2.61307
2.58487
2.55682
2.52907
2.50177
2.47506
2.4491
2.42298
2.39344
0.0184629
0.0352123
0.045207
0.0523858
0.0583246
0.063637
0.0686466
0.0735541
0.0784991
0.0835839
0.088884
0.0944527
0.100325
0.106519
0.113044
0.119904
0.127099
0.134634
0.142518
0.150765
0.159396
0.168436
0.177912
0.187853
0.198285
0.209232
0.220716
0.232753
0.245356
0.258534
0.272291
0.286631
0.301555
0.317061
0.333147
0.349811
0.367049
0.384859
0.403238
0.422183
0.441693
0.461767
0.482403
0.503604
0.525371
0.547705
0.570612
0.594094
0.618158
0.64281
0.668057
0.693905
0.720363
0.74744
0.775142
0.803479
0.83246
0.86209
0.892379
0.923332
0.954957
0.987258
1.02024
1.05391
1.08826
1.12331
1.15904
1.19545
1.23256
1.27034
1.30879
1.3479
1.38767
1.42808
1.46911
1.51075
1.55297
1.59577
1.6391
1.68295
1.72729
1.77208
1.8173
1.86291
1.90887
1.95514
2.00168
2.04845
2.0954
2.14248
2.18965
2.23686
2.28405
2.33118
2.37819
2.42502
2.47162
2.51793
2.5639
2.60947
2.65458
2.69916
2.74316
2.78653
2.82921
2.87114
2.91227
2.95254
2.99189
3.03028
3.06764
3.10394
3.13911
3.17312
3.20592
3.23746
3.2677
3.2966
3.32414
3.35026
3.37494
3.39815
3.41986
3.44005
3.4587
3.47578
3.4913
3.50522
3.51755
3.52828
3.53741
3.54495
3.55088
3.55523
3.55791
3.55897
3.55856
3.55659
3.55307
3.54804
3.54152
3.53354
3.52413
3.51333
3.50115
3.48766
3.47287
3.45684
3.4396
3.42119
3.40166
3.38105
3.3594
3.33676
3.31318
3.2887
3.26338
3.23725
3.21038
3.18282
3.15461
3.12582
3.09649
3.0667
3.0365
3.00597
2.97518
2.9442
2.91306
2.88182
2.85052
2.81925
2.7881
2.75718
2.72665
2.69669
2.66748
2.63915
2.61088
2.57979
0.0196382
0.0396191
0.050833
0.0588193
0.0653861
0.0712175
0.0766704
0.0819637
0.0872479
0.0926332
0.0982018
0.104013
0.11011
0.116518
0.123256
0.130335
0.137764
0.145556
0.153723
0.162284
0.17126
0.180676
0.190556
0.200925
0.211807
0.223221
0.235184
0.247712
0.260815
0.2745
0.288775
0.303643
0.319106
0.335166
0.351823
0.369079
0.386934
0.405387
0.42444
0.444094
0.46435
0.485211
0.50668
0.528759
0.551455
0.574771
0.598714
0.623292
0.648511
0.674379
0.700907
0.728103
0.755977
0.784539
0.813801
0.843772
0.874463
0.905884
0.938043
0.970952
1.00462
1.03904
1.07424
1.11022
1.14697
1.18451
1.22283
1.26194
1.30183
1.34249
1.38392
1.42611
1.46905
1.51273
1.55712
1.60222
1.648
1.69443
1.74148
1.78914
1.83737
1.88612
1.93537
1.98508
2.03519
2.08568
2.13648
2.18756
2.23885
2.29032
2.34189
2.39352
2.44515
2.49671
2.54815
2.5994
2.65041
2.7011
2.75141
2.80127
2.85062
2.89939
2.94752
2.99494
3.04159
3.08741
3.13233
3.1763
3.21925
3.26113
3.30187
3.34142
3.37973
3.41675
3.45241
3.48669
3.51952
3.55088
3.58071
3.60898
3.63565
3.6607
3.68409
3.7058
3.72581
3.7441
3.76064
3.77544
3.78848
3.79976
3.80928
3.81704
3.82304
3.8273
3.82975
3.83047
3.82953
3.82688
3.82254
3.81655
3.80894
3.79973
3.78897
3.77669
3.76293
3.74772
3.73113
3.71318
3.69393
3.67341
3.65169
3.6288
3.6048
3.57974
3.55366
3.52663
3.49869
3.46991
3.44033
3.41001
3.37901
3.3474
3.31523
3.28256
3.24946
3.21601
3.18228
3.14833
3.11423
3.08002
3.04579
3.01162
2.97761
2.94391
2.91067
2.8781
2.84639
2.81566
2.78513
2.75243
0.0217799
0.0436167
0.0557948
0.0644494
0.0715438
0.077814
0.0836391
0.0892509
0.0948079
0.100427
0.106195
0.11218
0.11843
0.124981
0.131858
0.139082
0.146669
0.154635
0.162997
0.171776
0.180992
0.190667
0.200822
0.211481
0.222662
0.234383
0.246658
0.259502
0.272924
0.286933
0.301536
0.316739
0.332548
0.348967
0.365999
0.38365
0.401923
0.420821
0.44035
0.460514
0.481318
0.502767
0.524869
0.54763
0.571058
0.595162
0.61995
0.645432
0.671619
0.698521
0.726151
0.754519
0.78364
0.813526
0.844189
0.875644
0.907902
0.940977
0.97488
1.00962
1.04522
1.08167
1.11899
1.15719
1.19627
1.23623
1.27708
1.31882
1.36145
1.40495
1.44933
1.49458
1.54068
1.58762
1.63538
1.68394
1.73327
1.78335
1.83415
1.88563
1.93776
1.9905
2.04381
2.09763
2.15193
2.20665
2.26174
2.31715
2.37281
2.42866
2.48465
2.5407
2.59676
2.65276
2.70862
2.76427
2.81966
2.87469
2.9293
2.98342
3.03697
3.08988
3.14207
3.19348
3.24404
3.29368
3.34232
3.38991
3.43637
3.48165
3.52567
3.56838
3.60972
3.64964
3.68807
3.72497
3.76029
3.79397
3.82599
3.85629
3.88485
3.91162
3.93658
3.95969
3.98095
4.00032
4.01779
4.03335
4.04699
4.05872
4.06852
4.07641
4.08238
4.08647
4.0886
4.0889
4.08734
4.08394
4.07871
4.0717
4.06293
4.05245
4.04029
4.02649
4.0111
3.99417
3.97574
3.95586
3.93458
3.91196
3.88805
3.86289
3.83656
3.80909
3.78055
3.75099
3.72048
3.68908
3.65684
3.62382
3.5901
3.55573
3.52077
3.4853
3.44938
3.41309
3.3765
3.33969
3.30271
3.26565
3.22859
3.19161
3.15485
3.11845
3.08257
3.04744
3.01324
2.98009
2.94724
2.91277
0.0246141
0.0471119
0.0600005
0.0691723
0.0766826
0.083303
0.0894262
0.0952921
0.101064
0.106863
0.112782
0.118891
0.125248
0.131893
0.138859
0.146174
0.153858
0.161931
0.170413
0.179324
0.188684
0.198512
0.208828
0.21965
0.230997
0.242885
0.255328
0.268338
0.281927
0.296104
0.310878
0.326259
0.342254
0.358871
0.376117
0.394
0.412527
0.431706
0.451546
0.472056
0.493244
0.51512
0.537694
0.560976
0.584979
0.609714
0.635193
0.66143
0.688438
0.716231
0.744825
0.774235
0.804477
0.835566
0.86752
0.900353
0.934082
0.968722
1.00429
1.04079
1.07825
1.11667
1.15606
1.19644
1.23781
1.28018
1.32354
1.3679
1.41326
1.45962
1.50696
1.55527
1.60455
1.65477
1.70591
1.75795
1.81087
1.86463
1.91919
1.97452
2.03058
2.08732
2.1447
2.20266
2.26115
2.32011
2.37948
2.4392
2.4992
2.55942
2.61979
2.68023
2.74067
2.80103
2.86125
2.92123
2.98091
3.04019
3.09901
3.15727
3.21491
3.27183
3.32796
3.38323
3.43755
3.49086
3.54307
3.59412
3.64394
3.69245
3.73959
3.78529
3.82949
3.87213
3.91315
3.9525
3.99013
4.02598
4.06001
4.09217
4.12244
4.15077
4.17713
4.20149
4.22383
4.24414
4.26239
4.27857
4.29268
4.30471
4.31467
4.32257
4.32841
4.3322
4.33395
4.33371
4.33147
4.32724
4.32105
4.31295
4.30298
4.29118
4.27758
4.26224
4.24521
4.22653
4.20626
4.18446
4.16117
4.13646
4.11038
4.083
4.05436
4.02454
3.99359
3.96158
3.92857
3.89462
3.8598
3.82417
3.78781
3.75077
3.71313
3.67496
3.63633
3.59731
3.55798
3.51842
3.47871
3.43892
3.39914
3.35949
3.32008
3.28108
3.24266
3.20503
3.16838
3.13282
3.09765
3.06123
0.0272744
0.0499315
0.0633481
0.0729138
0.0807414
0.0876299
0.0939814
0.100042
0.105977
0.111912
0.117941
0.124139
0.130566
0.13727
0.144287
0.151648
0.159379
0.167501
0.176036
0.185003
0.194421
0.20431
0.214688
0.22557
0.236974
0.248914
0.261404
0.274457
0.288086
0.302303
0.317119
0.332546
0.348595
0.365277
0.382602
0.400584
0.419234
0.438563
0.458585
0.479312
0.500757
0.522934
0.545856
0.569538
0.593996
0.619246
0.645305
0.67219
0.699919
0.728508
0.757977
0.788345
0.819632
0.851858
0.885042
0.919203
0.95436
0.990531
1.02773
1.06598
1.10529
1.14568
1.18715
1.22973
1.27341
1.3182
1.3641
1.41113
1.45926
1.5085
1.55885
1.61027
1.66277
1.71632
1.77089
1.82646
1.88299
1.94046
1.99881
2.05801
2.11801
2.17875
2.24019
2.30227
2.36491
2.42807
2.49167
2.55564
2.61991
2.6844
2.74904
2.81375
2.87844
2.94304
3.00745
3.0716
3.13539
3.19874
3.26157
3.32378
3.38528
3.446
3.50584
3.56473
3.62258
3.6793
3.73484
3.7891
3.84201
3.89349
3.94348
3.99191
4.03871
4.08382
4.12717
4.16872
4.2084
4.24616
4.28195
4.31574
4.34749
4.37714
4.40469
4.43008
4.45331
4.47435
4.49318
4.50981
4.52421
4.53639
4.54636
4.55412
4.55969
4.56308
4.56432
4.56346
4.56045
4.5553
4.54809
4.53885
4.52763
4.51447
4.49942
4.48253
4.46385
4.44343
4.42135
4.39764
4.37239
4.34563
4.31745
4.2879
4.25705
4.22496
4.1917
4.15732
4.12192
4.08554
4.04826
4.01014
3.97127
3.93171
3.89152
3.85079
3.80959
3.768
3.72609
3.68394
3.64165
3.59928
3.55695
3.51476
3.47286
3.43139
3.39054
3.35052
3.3115
3.27359
3.23613
3.19774
0.0296645
0.0520616
0.0658323
0.0756762
0.0837282
0.0908066
0.0973198
0.103518
0.109568
0.115597
0.121701
0.127956
0.134425
0.141156
0.14819
0.15556
0.163295
0.171418
0.179951
0.188913
0.198323
0.208197
0.218552
0.229405
0.24077
0.252663
0.265097
0.27809
0.291654
0.305805
0.320558
0.335926
0.351926
0.368571
0.385877
0.403861
0.422538
0.441925
0.462039
0.482897
0.504517
0.526916
0.550112
0.574123
0.598969
0.624671
0.651253
0.678735
0.707138
0.736486
0.766803
0.79811
0.830434
0.863797
0.898222
0.933731
0.970346
1.00809
1.04697
1.08702
1.12825
1.17067
1.2143
1.25915
1.30522
1.35253
1.40107
1.45084
1.50184
1.55406
1.60749
1.66212
1.71791
1.77485
1.83291
1.89205
1.95224
2.01343
2.07558
2.13865
2.20256
2.26727
2.33272
2.39883
2.46555
2.53279
2.60049
2.66856
2.73693
2.80551
2.87422
2.94298
3.01168
3.08026
3.1486
3.21663
3.28424
3.35135
3.41786
3.48368
3.54872
3.61288
3.67607
3.73822
3.79922
3.859
3.91748
3.97457
4.03019
4.08428
4.13675
4.18753
4.23656
4.28377
4.3291
4.37248
4.41386
4.4532
4.49044
4.52553
4.55844
4.58912
4.61756
4.64371
4.66756
4.68909
4.70827
4.72511
4.7396
4.75173
4.76152
4.76898
4.77413
4.77699
4.77758
4.77602
4.77212
4.76598
4.75768
4.74726
4.73475
4.72022
4.70371
4.68527
4.66497
4.64286
4.619
4.59346
4.56631
4.5376
4.50741
4.47581
4.44285
4.40862
4.37318
4.33659
4.29894
4.26029
4.22071
4.18029
4.13908
4.09717
4.05463
4.01153
3.96796
3.92398
3.87969
3.83516
3.79048
3.74574
3.70105
3.65652
3.6123
3.56853
3.52541
3.48314
3.44186
3.40172
3.36207
3.32178
0.031761
0.0535414
0.0675038
0.0775165
0.0857038
0.0928958
0.0995056
0.105785
0.111903
0.117985
0.124128
0.13041
0.136891
0.143624
0.150649
0.158
0.165705
0.173789
0.182271
0.191172
0.20051
0.210301
0.220563
0.231312
0.242564
0.254331
0.266632
0.279484
0.292906
0.306915
0.32153
0.33677
0.352653
0.369199
0.386427
0.404359
0.423014
0.442416
0.462586
0.483546
0.50532
0.527928
0.551392
0.575732
0.600966
0.627127
0.654244
0.682345
0.711457
0.74161
0.772832
0.80515
0.838594
0.873191
0.908966
0.945943
0.984146
1.0236
1.06431
1.10632
1.14963
1.19425
1.2402
1.2875
1.33614
1.38612
1.43746
1.49014
1.54416
1.5995
1.65615
1.71408
1.77326
1.83368
1.89528
1.95804
2.0219
2.08682
2.15274
2.21961
2.28736
2.35593
2.42524
2.49523
2.56583
2.63694
2.70849
2.78039
2.85256
2.92491
2.99735
3.06979
3.14212
3.21426
3.28611
3.35758
3.42855
3.49895
3.56866
3.6376
3.70566
3.77276
3.83879
3.90367
3.96731
4.02962
4.09052
4.14992
4.20774
4.26391
4.31835
4.37098
4.42175
4.47058
4.5174
4.56216
4.60481
4.64528
4.68353
4.71952
4.75321
4.78455
4.81352
4.84009
4.86424
4.88594
4.90519
4.92198
4.9363
4.94816
4.95757
4.96454
4.96909
4.97126
4.97111
4.96872
4.96381
4.95662
4.94718
4.93554
4.92174
4.90583
4.88788
4.86794
4.84606
4.82232
4.79678
4.76951
4.74057
4.71004
4.67798
4.64447
4.60958
4.57338
4.53594
4.49733
4.45764
4.41693
4.37528
4.33276
4.28946
4.24544
4.20078
4.15556
4.10985
4.06374
4.01732
3.97065
3.92384
3.87697
3.83016
3.78353
3.73721
3.69137
3.64617
3.60182
3.55847
3.51624
3.47456
3.43253
0.033568
0.0544353
0.0684412
0.0785208
0.0867585
0.0939899
0.100632
0.106936
0.113073
0.119169
0.125321
0.131602
0.138075
0.144786
0.151775
0.159074
0.166713
0.174716
0.183103
0.191895
0.201111
0.210767
0.220884
0.23148
0.242577
0.254201
0.266357
0.279063
0.292339
0.306205
0.320683
0.335795
0.351565
0.368015
0.385172
0.403058
0.4217
0.441126
0.461366
0.482448
0.5044
0.527247
0.551016
0.575738
0.60144
0.62816
0.655934
0.684793
0.714769
0.745897
0.77821
0.811744
0.84653
0.882598
0.919976
0.958688
0.998757
1.0402
1.08305
1.1273
1.17298
1.2201
1.26867
1.3187
1.37018
1.42311
1.4775
1.53332
1.59056
1.64921
1.70923
1.77061
1.83329
1.89725
1.96244
2.0288
2.0963
2.16486
2.23444
2.30495
2.37634
2.44853
2.52144
2.595
2.66911
2.74371
2.81869
2.89397
2.96946
3.04506
3.12069
3.19623
3.2716
3.3467
3.42142
3.49567
3.56935
3.64236
3.71459
3.78595
3.85634
3.92566
3.99382
4.06074
4.1263
4.19044
4.25306
4.31409
4.37343
4.43102
4.48677
4.54062
4.5925
4.64233
4.69006
4.73563
4.77897
4.82005
4.8588
4.89519
4.92918
4.96072
4.9898
5.01639
5.04046
5.06199
5.08097
5.0974
5.11128
5.1226
5.1314
5.13767
5.14144
5.14276
5.14179
5.13839
5.13243
5.12412
5.1135
5.10062
5.08553
5.06828
5.04894
5.02756
5.00421
4.97895
4.95185
4.92298
4.89242
4.86024
4.82651
4.7913
4.75469
4.71675
4.67756
4.63719
4.59572
4.55322
4.50977
4.46545
4.42033
4.37449
4.32802
4.28097
4.23344
4.18551
4.13725
4.08876
4.04011
3.99142
3.94279
3.89433
3.84619
3.79853
3.75152
3.70533
3.66012
3.61603
3.57252
3.52896
0.035096
0.0548027
0.0687149
0.0787714
0.0869839
0.0941871
0.100802
0.107081
0.113196
0.119269
0.125394
0.131646
0.138082
0.144755
0.151697
0.15894
0.16651
0.174432
0.182726
0.191413
0.200512
0.210042
0.220021
0.230469
0.241402
0.252832
0.264784
0.277288
0.290369
0.304054
0.31837
0.333347
0.349014
0.365403
0.382547
0.400475
0.419222
0.438818
0.459296
0.480694
0.503048
0.526384
0.550729
0.576102
0.602552
0.630127
0.658867
0.68881
0.719997
0.752466
0.786258
0.821418
0.857982
0.895976
0.93543
0.976364
1.01879
1.06274
1.1082
1.1552
1.20373
1.25382
1.30545
1.35863
1.41334
1.46959
1.52735
1.5866
1.64731
1.70946
1.77301
1.83792
1.90415
1.97164
2.04034
2.11019
2.18113
2.25311
2.32603
2.39985
2.47447
2.54982
2.62581
2.70238
2.77942
2.85684
2.93457
3.01251
3.09056
3.16862
3.24661
3.32443
3.40197
3.47914
3.55583
3.63196
3.70741
3.78209
3.85591
3.92875
4.00053
4.07115
4.14052
4.20854
4.27513
4.3402
4.40367
4.46545
4.52546
4.58364
4.6399
4.69417
4.74639
4.79649
4.84441
4.89009
4.93347
4.97451
5.01316
5.04937
5.08311
5.11435
5.14305
5.16919
5.19275
5.21371
5.23207
5.24781
5.26093
5.27146
5.27939
5.28475
5.28756
5.2879
5.28601
5.28146
5.27438
5.26492
5.25312
5.23902
5.22269
5.20417
5.18353
5.16082
5.13613
5.10951
5.08104
5.05078
5.01882
4.98522
4.95007
4.91343
4.87538
4.836
4.79536
4.75354
4.71062
4.66667
4.62177
4.57599
4.52942
4.48213
4.4342
4.3857
4.33671
4.28732
4.2376
4.18765
4.13754
4.08737
4.03726
3.98733
3.9377
3.88854
3.84001
3.79228
3.74549
3.6998
3.65473
3.6099
0.036417
0.0548039
0.0685716
0.0785521
0.0866901
0.0938219
0.10037
0.106588
0.112646
0.118666
0.124741
0.130941
0.137319
0.14392
0.150778
0.157924
0.16538
0.173171
0.181319
0.189847
0.198775
0.208127
0.217923
0.228186
0.238941
0.250216
0.262042
0.274445
0.287455
0.301104
0.315425
0.330452
0.346222
0.362777
0.380165
0.398419
0.417574
0.437668
0.458735
0.480799
0.503869
0.528025
0.553327
0.579838
0.607608
0.636668
0.667056
0.698813
0.731976
0.766582
0.802665
0.84025
0.879374
0.920089
0.96243
1.0064
1.05201
1.09924
1.14809
1.19856
1.25065
1.30434
1.35963
1.4165
1.47492
1.53488
1.59634
1.65926
1.72362
1.78936
1.85644
1.9248
1.9944
2.06517
2.13704
2.20997
2.28387
2.35868
2.43432
2.51071
2.58779
2.66546
2.74365
2.82227
2.90124
2.98047
3.05986
3.13934
3.21881
3.29817
3.37734
3.45621
3.53471
3.61271
3.69015
3.76691
3.8429
3.91802
3.99219
4.0653
4.13727
4.208
4.2774
4.34538
4.41186
4.47675
4.53998
4.60147
4.66113
4.7189
4.7747
4.82847
4.88014
4.92965
4.97693
5.02194
5.0646
5.10489
5.14275
5.17814
5.21103
5.24138
5.26917
5.29437
5.31697
5.33695
5.3543
5.36901
5.38108
5.39053
5.39737
5.40161
5.40329
5.40263
5.39962
5.39386
5.38565
5.37505
5.3621
5.34685
5.32936
5.3097
5.2879
5.26406
5.23822
5.21047
5.18087
5.14949
5.11641
5.08171
5.04545
5.00772
4.96859
4.92814
4.88644
4.84356
4.79959
4.7546
4.70867
4.66186
4.61427
4.56596
4.51701
4.46749
4.41749
4.36708
4.31634
4.26535
4.2142
4.16299
4.11182
4.0608
4.01008
3.9598
3.91011
3.86119
3.81316
3.7662
3.71987
3.67411
0.0376675
0.0546437
0.068119
0.0779143
0.0858838
0.0928587
0.0992635
0.105352
0.111295
0.117211
0.123188
0.129291
0.135571
0.142068
0.148816
0.155846
0.163187
0.170865
0.178902
0.187323
0.196151
0.205414
0.215141
0.22536
0.2361
0.247396
0.259283
0.271803
0.285009
0.29893
0.313604
0.329076
0.345386
0.36257
0.380641
0.399657