/*--------------------------------*- C++ -*----------------------------------*\
| =========                 |                                                 |
| \\      /  F ield         | OpenFOAM: The Open Source CFD Toolbox           |
|  \\    /   O peration     | Version:  4.1                                   |
|   \\  /    A nd           | Web:      www.OpenFOAM.org                      |
|    \\/     M anipulation  |                                                 |
\*---------------------------------------------------------------------------*/
FoamFile
{
    version     2.0;
    format      ascii;
    class       volScalarField;
    location    "298";
    object      nut;
}
// * * * * * * * * * * * * * * * * * * * * * * * * * * * * * * * * * * * * * //

dimensions      [0 2 -1 0 0 0 0];

internalField   nonuniform List<scalar> 
12225
(
2.68176e-05
3.54258e-05
4.03683e-05
4.29509e-05
4.41503e-05
4.45571e-05
4.4546e-05
4.43066e-05
4.4022e-05
4.36538e-05
4.32973e-05
4.29578e-05
4.26543e-05
4.23693e-05
4.21336e-05
4.18971e-05
4.17376e-05
4.15167e-05
0.000212632
8.32995e-05
5.47241e-05
4.31734e-05
3.76053e-05
3.47177e-05
3.32702e-05
3.25603e-05
3.23573e-05
3.24546e-05
3.27927e-05
3.32608e-05
3.38753e-05
3.45328e-05
3.52957e-05
3.60477e-05
3.6869e-05
3.76984e-05
0.000672599
0.000310875
0.000195702
0.000143027
0.00011384
9.49266e-05
8.23664e-05
7.35828e-05
6.70067e-05
6.21372e-05
5.8173e-05
5.52192e-05
5.26122e-05
5.07687e-05
4.89386e-05
4.78564e-05
4.64079e-05
4.56098e-05
0.000875105
0.000622522
0.000467546
0.000363421
0.000300146
0.000255937
0.000225161
0.000202066
0.000184905
0.000171057
0.000160338
0.000151175
0.000143898
0.000137366
0.000132131
0.000127315
0.000123085
0.000119001
0.000879336
0.000788163
0.000712777
0.000617669
0.000543917
0.000484063
0.000438397
0.000401096
0.00037239
0.000347812
0.000328783
0.000311516
0.000298376
0.000285544
0.000276221
0.000266218
0.000259468
0.000251274
0.000858479
0.000840261
0.000818518
0.000775012
0.000728469
0.000681711
0.000640662
0.000603032
0.000571787
0.000543062
0.000519898
0.000497802
0.000480659
0.000463183
0.000450549
0.000436236
0.000427028
0.000414525
0.000853084
0.000852168
0.000845122
0.000832635
0.00081727
0.000794282
0.00077092
0.000746205
0.000723513
0.000700674
0.000681004
0.000661087
0.000644871
0.000627714
0.000614779
0.000599822
0.000589897
0.000576357
0.000851863
0.000852184
0.000850462
0.000847008
0.000840812
0.000831985
0.000821461
0.000808212
0.000794781
0.000780256
0.000766948
0.000752682
0.000740452
0.000727124
0.000716487
0.000704215
0.000695379
0.000683793
0.000851703
0.00085164
0.000851173
0.000850258
0.000848406
0.000845182
0.000840912
0.000835272
0.00082831
0.000820921
0.000813226
0.000804607
0.00079673
0.000787893
0.000780355
0.000771798
0.000764757
0.000756436
0.000851749
0.000851404
0.000851079
0.000850688
0.000850163
0.000849195
0.000847828
0.000845876
0.000843378
0.000840174
0.000836843
0.000832723
0.000828784
0.000824111
0.000819904
0.000814983
0.000810823
0.000805501
0.00085178
0.000851365
0.000851008
0.000850643
0.000850325
0.000849913
0.000849462
0.000848797
0.000848051
0.000846946
0.000845807
0.000844252
0.000842744
0.000840784
0.000839022
0.000836718
0.000834874
0.000832241
0.000851785
0.000851365
0.00085099
0.000850615
0.000850291
0.000849949
0.000849651
0.000849295
0.000848974
0.000848543
0.000848139
0.000847586
0.000847071
0.000846371
0.000845747
0.000844894
0.000844187
0.000843193
0.000851783
0.000851365
0.000850982
0.000850607
0.000850268
0.000849931
0.00084963
0.000849323
0.000849048
0.000848757
0.000848494
0.000848201
0.000847934
0.000847625
0.000847344
0.000847008
0.000846706
0.000846341
0.000851781
0.000851365
0.000850975
0.000850602
0.000850253
0.000849919
0.000849606
0.000849305
0.000849023
0.00084875
0.000848494
0.000848243
0.000848008
0.000847774
0.000847553
0.000847332
0.000847122
0.000846909
0.00085178
0.000851364
0.00085097
0.000850596
0.000850243
0.000849908
0.00084959
0.000849288
0.000849001
0.000848727
0.000848467
0.000848218
0.000847981
0.000847753
0.000847536
0.000847327
0.000847128
0.000846936
0.000851779
0.000851363
0.000850967
0.000850592
0.000850237
0.000849899
0.000849579
0.000849275
0.000848985
0.000848709
0.000848445
0.000848194
0.000847954
0.000847725
0.000847505
0.000847295
0.000847094
0.000846901
0.000851779
0.000851362
0.000850966
0.00085059
0.000850233
0.000849894
0.000849572
0.000849266
0.000848974
0.000848696
0.000848431
0.000848178
0.000847936
0.000847704
0.000847483
0.000847271
0.000847068
0.000846874
0.000851779
0.000851362
0.000850965
0.000850589
0.000850231
0.000849892
0.000849569
0.000849262
0.000848969
0.00084869
0.000848424
0.000848169
0.000847926
0.000847694
0.000847471
0.000847258
0.000847054
0.000846859
0.000851779
0.000851362
0.000850965
0.000850589
0.000850232
0.000849892
0.000849569
0.000849262
0.000848969
0.00084869
0.000848423
0.000848169
0.000847925
0.000847692
0.000847469
0.000847256
0.000847051
0.000846855
0.000851779
0.000851363
0.000850967
0.000850591
0.000850234
0.000849895
0.000849573
0.000849266
0.000848973
0.000848695
0.000848427
0.000848173
0.000847927
0.000847693
0.000847467
0.00084725
0.00084704
0.000846839
0.000851779
0.000851364
0.000850968
0.000850595
0.000850238
0.000849901
0.000849578
0.000849272
0.000848975
0.000848692
0.000848412
0.000848144
0.000847874
0.000847614
0.000847346
0.000847089
0.000846818
0.000846562
0.000851778
0.000851367
0.000850969
0.000850603
0.000850242
0.000849906
0.00084956
0.000849225
0.00084886
0.000848491
0.000848073
0.000847645
0.000847151
0.000846654
0.000846075
0.00084551
0.000844848
0.000844229
0.000851779
0.000851383
0.000850973
0.000850622
0.000850189
0.000849725
0.000849094
0.00084836
0.000847395
0.000846288
0.000844933
0.000843452
0.000841735
0.000839945
0.000837917
0.000835943
0.000833675
0.000831613
0.000851859
0.000851472
0.000850928
0.000850331
0.000848934
0.000847062
0.000844298
0.000840954
0.000836727
0.000832089
0.000826798
0.000821336
0.000815452
0.0008095
0.000803504
0.00079761
0.000791429
0.000785952
0.000852723
0.000851367
0.000849164
0.000844914
0.000836674
0.000827525
0.000815446
0.000802431
0.000788032
0.000773948
0.000759307
0.000745614
0.000731721
0.000719131
0.000706331
0.000695153
0.000683508
0.000673828
0.000857405
0.000843081
0.000830282
0.000805602
0.000773705
0.000741356
0.000708133
0.000677894
0.000648532
0.000622946
0.000598384
0.000577466
0.000557219
0.000540289
0.000523553
0.000509918
0.000495908
0.000484945
0.00086201
0.000792012
0.000724541
0.00064484
0.00057811
0.000523923
0.000477044
0.000439735
0.000406994
0.000381076
0.00035751
0.000339014
0.000321491
0.000307949
0.000294511
0.000284339
0.000273706
0.000265929
0.000782215
0.000562153
0.000424453
0.000338361
0.000281909
0.000241064
0.000209982
0.000187114
0.000168524
0.000154555
0.000142476
0.00013338
0.00012502
0.000118804
0.000112723
0.000108316
0.000103712
0.00010048
0.000343383
0.000180407
0.000124381
9.65976e-05
7.95271e-05
6.85222e-05
6.11087e-05
5.61037e-05
5.25365e-05
5.00693e-05
4.82444e-05
4.7009e-05
4.60724e-05
4.55025e-05
4.50585e-05
4.4871e-05
4.47115e-05
4.4762e-05
3.41129e-05
4.01585e-05
4.47621e-05
4.78932e-05
5.04607e-05
5.25069e-05
5.40896e-05
5.52768e-05
5.61325e-05
5.67237e-05
5.7101e-05
5.73184e-05
5.7406e-05
5.74021e-05
5.73098e-05
5.72191e-05
5.70578e-05
5.68757e-05
2.75711e-06
7.6384e-06
9.18154e-06
1.04352e-05
1.14231e-05
1.22072e-05
1.28407e-05
1.33621e-05
1.37993e-05
1.41793e-05
1.45506e-05
1.49128e-05
1.52758e-05
1.56487e-05
1.60359e-05
1.64373e-05
1.68503e-05
1.72724e-05
1.77066e-05
1.81695e-05
1.87036e-05
1.93545e-05
2.00946e-05
2.08929e-05
2.17404e-05
2.26375e-05
2.35865e-05
2.45893e-05
2.56447e-05
2.6749e-05
2.78934e-05
2.90644e-05
3.02553e-05
3.14567e-05
3.26618e-05
3.38651e-05
3.50629e-05
3.6252e-05
3.74303e-05
3.85968e-05
3.97511e-05
4.08939e-05
4.20265e-05
4.31515e-05
4.42725e-05
4.53947e-05
4.65251e-05
4.76738e-05
4.88303e-05
4.99726e-05
5.11115e-05
5.22432e-05
5.33702e-05
5.44924e-05
5.56104e-05
5.67245e-05
5.7835e-05
5.89424e-05
6.00465e-05
6.11477e-05
6.22459e-05
6.33412e-05
6.44334e-05
6.55226e-05
6.66083e-05
6.76907e-05
6.87692e-05
6.98438e-05
7.09139e-05
7.19793e-05
7.30395e-05
7.40942e-05
7.51428e-05
7.6185e-05
7.722e-05
7.82476e-05
7.9267e-05
8.02778e-05
8.12794e-05
8.22713e-05
8.32527e-05
8.42232e-05
8.51821e-05
8.61288e-05
8.70627e-05
8.79832e-05
8.88896e-05
8.97813e-05
9.06577e-05
9.15181e-05
9.23618e-05
9.3188e-05
9.3996e-05
9.47849e-05
9.55538e-05
9.63016e-05
9.70271e-05
9.77291e-05
9.84065e-05
9.90586e-05
9.96858e-05
0.000100292
0.000100879
0.000101441
0.000101981
0.000102498
0.000102992
0.000103462
0.000103908
0.00010433
0.000104728
0.000105101
0.000105448
0.000105771
0.000106068
0.000106339
0.000106584
0.000106803
0.000106996
0.000107163
0.000107304
0.000107418
0.000107506
0.000107567
0.000107602
0.000107611
0.000107593
0.00010755
0.000107481
0.000107386
0.000107266
0.000107119
0.000106955
0.000106759
0.000106539
0.000106289
0.00010602
0.000105733
0.000105418
0.000105082
0.000104723
0.000104343
0.000103941
0.000103519
0.000103077
0.000102616
0.000102136
0.000101638
0.000101122
0.000100588
0.000100038
9.94723e-05
9.88908e-05
9.82945e-05
9.7684e-05
9.70599e-05
9.64228e-05
9.57734e-05
9.51124e-05
9.44405e-05
9.37583e-05
9.30667e-05
9.23666e-05
9.16594e-05
9.09476e-05
9.02411e-05
8.96628e-05
8.92538e-05
8.88601e-05
8.84648e-05
8.80662e-05
8.76639e-05
8.72575e-05
8.68459e-05
8.64267e-05
8.59947e-05
8.55394e-05
8.50304e-05
8.44046e-05
8.25862e-05
4.33537e-06
1.75563e-05
3.89881e-05
5.78538e-05
7.18323e-05
8.17808e-05
8.88841e-05
9.40128e-05
9.77288e-05
0.000100349
0.000102114
0.000103709
0.000105426
0.000107336
0.000109396
0.000111519
0.00011362
0.000115643
0.000117573
0.000119465
0.000121214
0.000122673
0.000123996
0.000125341
0.000126801
0.000128446
0.00013035
0.000132595
0.000135294
0.000138597
0.000142631
0.000147111
0.000152023
0.000157352
0.000163076
0.000169125
0.000175533
0.000182253
0.000189251
0.000196491
0.000203935
0.000211547
0.000219291
0.000227131
0.000235035
0.000242975
0.000250931
0.0002589
0.000266908
0.000274964
0.000283061
0.000291208
0.000299404
0.000307653
0.000315959
0.000324326
0.000332756
0.000341253
0.000349822
0.000358467
0.000367189
0.000375992
0.000384879
0.000393851
0.000402911
0.00041206
0.000421298
0.000430627
0.000440045
0.000449553
0.000459148
0.000468831
0.000478598
0.000488447
0.000498375
0.000508378
0.000518453
0.000528596
0.000538801
0.000549064
0.000559379
0.00056974
0.000580142
0.000590579
0.000601043
0.000611529
0.000622029
0.000632537
0.000643047
0.000653552
0.000664046
0.000674522
0.000684976
0.000695399
0.000705786
0.000716128
0.00072641
0.000736609
0.000746688
0.000756577
0.000766148
0.000775188
0.000783619
0.000791996
0.000800216
0.000808299
0.000816234
0.000824019
0.000831645
0.000839108
0.000846401
0.000853518
0.000860455
0.000867205
0.000873764
0.000880127
0.000886288
0.000892244
0.00089799
0.000903522
0.000908837
0.00091393
0.0009188
0.000923442
0.000927854
0.000932034
0.000935981
0.000939693
0.000943169
0.000946411
0.00094942
0.000952195
0.000954708
0.000957068
0.000959202
0.000960868
0.00096233
0.000963721
0.000964838
0.000965699
0.000966331
0.000966732
0.000966908
0.000966861
0.000966593
0.000966108
0.000965414
0.000964514
0.000963412
0.000962114
0.000960622
0.000958943
0.000957081
0.000955041
0.000952829
0.000950449
0.000947908
0.000945211
0.000942365
0.000939374
0.000936244
0.00093298
0.000929583
0.000926046
0.000922316
0.00091811
0.000912203
0.000904902
0.00089716
0.000889237
0.000881207
0.000873095
0.000864911
0.00085665
0.000848291
0.000839785
0.00083098
0.000821605
0.000810265
0.00078318
5.6382e-06
2.59474e-05
6.00258e-05
9.19719e-05
0.000117939
0.000137814
0.000152481
0.000163197
0.000171055
0.000176932
0.000181501
0.000185341
0.00018886
0.000192294
0.000195747
0.000199238
0.000202742
0.000206213
0.000209603
0.000212861
0.000216119
0.000219648
0.000223582
0.000228025
0.000233081
0.000238845
0.000245393
0.000252765
0.000260937
0.000269785
0.000279134
0.000289232
0.00030007
0.000311595
0.000323908
0.000337243
0.000351089
0.000365371
0.00038003
0.000395007
0.000410251
0.000425719
0.000441367
0.00045716
0.000473069
0.000489073
0.000505157
0.00052131
0.000537556
0.000553894
0.000570325
0.000586855
0.000603487
0.000620228
0.000637083
0.000654058
0.000671157
0.000688387
0.000705755
0.000723267
0.000740926
0.000758737
0.000776703
0.000794825
0.000813106
0.000831544
0.000850141
0.000868894
0.000887802
0.000906862
0.000926069
0.000945419
0.000964907
0.000984525
0.00100427
0.00102413
0.00104409
0.00106416
0.00108431
0.00110455
0.00112485
0.0011452
0.0011656
0.00118603
0.00120648
0.00122693
0.00124738
0.0012678
0.00128819
0.00130853
0.00132881
0.00134901
0.00136911
0.0013891
0.00140896
0.00142865
0.00144816
0.00146743
0.00148641
0.00150502
0.00152319
0.00154083
0.00155807
0.00157506
0.00159176
0.00160816
0.00162426
0.00164003
0.00165547
0.00167056
0.0016853
0.00169966
0.00171365
0.00172724
0.00174043
0.00175321
0.00176556
0.00177749
0.00178897
0.00180001
0.00181059
0.00182072
0.00183037
0.00183955
0.00184825
0.00185646
0.00186419
0.00187143
0.00187817
0.00188443
0.0018902
0.00189547
0.00190026
0.00190463
0.00190863
0.00191173
0.0019143
0.00191669
0.00191851
0.00191984
0.00192068
0.00192106
0.00192096
0.00192041
0.0019194
0.00191794
0.00191605
0.00191374
0.001911
0.00190786
0.00190432
0.00190039
0.00189608
0.0018914
0.00188637
0.00188099
0.00187527
0.00186924
0.00186289
0.00185624
0.00184931
0.0018421
0.00183462
0.00182685
0.00181873
0.00180992
0.00179949
0.00178753
0.00177482
0.0017617
0.00174832
0.00173473
0.00172097
0.00170703
0.00169286
0.00167837
0.00166327
0.00164679
0.00162619
0.0015847
6.57385e-06
3.57103e-05
8.06578e-05
0.000121617
0.000154731
0.000180302
0.00019954
0.000213813
0.000224398
0.000232396
0.000238707
0.000244033
0.000248883
0.000253594
0.000258366
0.000263302
0.000268451
0.000273845
0.000279521
0.000285545
0.000292028
0.000299105
0.00030689
0.000315482
0.000324962
0.000335392
0.00034681
0.000359224
0.000372616
0.000386952
0.000402213
0.000418431
0.000435594
0.000453689
0.000472522
0.000491701
0.000511402
0.00053158
0.000552168
0.000573099
0.0005943
0.000615766
0.000637463
0.000659363
0.000681449
0.000703719
0.00072619
0.00074888
0.000771715
0.00079469
0.000817809
0.000841076
0.000864497
0.000888078
0.000911827
0.00093575
0.000959852
0.000984139
0.00100862
0.00103329
0.00105817
0.00108325
0.00110854
0.00113405
0.00115976
0.00118568
0.0012118
0.00123813
0.00126466
0.00129138
0.00131828
0.00134537
0.00137262
0.00140003
0.00142759
0.00145529
0.00148312
0.00151105
0.00153908
0.0015672
0.00159538
0.00162361
0.00165187
0.00168015
0.00170843
0.00173669
0.00176491
0.00179307
0.00182115
0.00184913
0.001877
0.00190472
0.00193227
0.00195963
0.00198677
0.00201365
0.00204025
0.0020665
0.00209238
0.00211782
0.00214276
0.00216723
0.00219128
0.00221496
0.00223824
0.00226111
0.00228354
0.00230553
0.00232705
0.00234808
0.00236862
0.00238865
0.00240814
0.00242709
0.00244548
0.00246329
0.00248053
0.00249716
0.00251318
0.00252859
0.00254336
0.00255749
0.00257097
0.0025838
0.00259596
0.00260745
0.00261827
0.0026284
0.00263786
0.00264663
0.00265473
0.00266214
0.0026689
0.00267516
0.00268065
0.00268507
0.00268887
0.00269224
0.00269488
0.00269683
0.00269811
0.00269874
0.00269871
0.00269805
0.00269675
0.00269484
0.00269232
0.00268921
0.00268551
0.00268124
0.00267642
0.00267105
0.00266514
0.00265873
0.00265181
0.0026444
0.00263652
0.00262819
0.00261942
0.00261023
0.00260063
0.00259064
0.00258027
0.0025695
0.00255826
0.00254631
0.00253308
0.00251856
0.00250318
0.00248726
0.00247096
0.00245436
0.00243751
0.0024204
0.00240302
0.00238522
0.00236674
0.00234655
0.00232143
0.00227715
7.233e-06
4.60607e-05
0.000100779
0.000148929
0.000187582
0.000217369
0.00023989
0.000256782
0.000269518
0.00027935
0.000287301
0.000294166
0.000300532
0.000306805
0.000313248
0.000320024
0.000327233
0.000334952
0.000343251
0.000352212
0.000361929
0.000372498
0.000384006
0.000396527
0.000410114
0.000424801
0.0004406
0.000457503
0.000475483
0.000494505
0.000514528
0.000535507
0.000557374
0.000580037
0.000603374
0.000627274
0.000651716
0.000676654
0.000702037
0.000727823
0.000753986
0.000780454
0.000807187
0.00083416
0.000861351
0.000888741
0.000916302
0.000944003
0.000971889
0.000999966
0.00102824
0.00105671
0.00108538
0.00111426
0.00114335
0.00117266
0.0012022
0.00123196
0.00126195
0.00129216
0.00132261
0.00135331
0.00138425
0.00141543
0.00144685
0.0014785
0.00151039
0.00154251
0.00157484
0.00160738
0.00164013
0.00167306
0.00170618
0.00173946
0.00177288
0.00180645
0.00184014
0.00187393
0.0019078
0.00194175
0.00197574
0.00200976
0.0020438
0.00207781
0.0021118
0.00214573
0.00217958
0.00221333
0.00224696
0.00228044
0.00231374
0.00234685
0.00237973
0.00241235
0.00244468
0.0024767
0.00250836
0.00253963
0.00257049
0.00260091
0.00263088
0.00266039
0.00268943
0.00271802
0.00274614
0.00277376
0.00280087
0.00282745
0.00285347
0.00287892
0.00290377
0.00292802
0.00295164
0.00297461
0.00299692
0.00301855
0.00303949
0.00305972
0.00307924
0.00309802
0.00311605
0.00313333
0.00314984
0.00316557
0.00318051
0.00319467
0.00320802
0.00322057
0.00323231
0.00324324
0.00325337
0.00326269
0.00327133
0.00327929
0.00328621
0.00329199
0.00329717
0.00330166
0.00330531
0.00330816
0.00331021
0.00331148
0.00331197
0.0033117
0.00331067
0.00330891
0.00330642
0.00330322
0.00329932
0.00329473
0.00328947
0.00328356
0.003277
0.00326981
0.00326202
0.00325364
0.00324469
0.00323518
0.00322513
0.00321457
0.00320352
0.00319198
0.00317997
0.00316749
0.00315448
0.00314078
0.00312608
0.00311033
0.00309376
0.00307659
0.00305897
0.00304097
0.00302267
0.00300407
0.00298515
0.00296582
0.00294572
0.00292383
0.00289706
0.0028547
7.70251e-06
5.55828e-05
0.000119245
0.000173832
0.00021736
0.000250867
0.000276314
0.000295598
0.000310367
0.000322002
0.000331622
0.000340097
0.000348078
0.000356027
0.000364257
0.000372973
0.000382314
0.000392379
0.000403251
0.000415007
0.000427725
0.000441473
0.000456312
0.000472287
0.000489425
0.000507732
0.000527201
0.000547803
0.000569499
0.000592238
0.000615962
0.000640603
0.000666085
0.000692324
0.000719237
0.000746754
0.000774824
0.000803398
0.000832428
0.000861872
0.000891688
0.000921834
0.000952278
0.000982994
0.00101396
0.00104517
0.00107659
0.00110823
0.00114009
0.00117218
0.00120449
0.00123703
0.0012698
0.00130281
0.00133605
0.00136954
0.00140327
0.00143725
0.00147149
0.00150599
0.00154075
0.00157575
0.001611
0.0016465
0.00168223
0.00171819
0.00175439
0.0017908
0.00182743
0.00186425
0.00190127
0.00193846
0.00197582
0.00201333
0.00205098
0.00208875
0.00212662
0.00216458
0.0022026
0.00224068
0.00227878
0.00231689
0.00235498
0.00239304
0.00243104
0.00246897
0.00250678
0.00254447
0.00258201
0.00261937
0.00265653
0.00269346
0.00273013
0.00276652
0.00280259
0.00283832
0.00287367
0.00290863
0.00294315
0.00297723
0.00301085
0.00304399
0.00307664
0.00310879
0.00314042
0.0031715
0.00320202
0.00323196
0.0032613
0.00329
0.00331806
0.00334545
0.00337215
0.00339815
0.00342342
0.00344796
0.00347173
0.00349473
0.00351695
0.00353835
0.00355895
0.00357871
0.00359763
0.0036157
0.00363291
0.00364925
0.00366471
0.00367929
0.00369297
0.00370577
0.00371768
0.00372873
0.00373912
0.00374851
0.00375685
0.00376401
0.00377059
0.00377626
0.00378104
0.00378494
0.00378795
0.0037901
0.00379139
0.00379183
0.00379144
0.00379023
0.00378821
0.0037854
0.00378181
0.00377745
0.00377235
0.00376651
0.00375995
0.00375269
0.00374474
0.00373613
0.00372688
0.003717
0.00370651
0.00369544
0.0036838
0.00367162
0.0036589
0.00364565
0.00363184
0.00361738
0.00360209
0.00358593
0.00356902
0.00355149
0.00353348
0.00351506
0.0034963
0.00347723
0.00345785
0.00343809
0.00341765
0.00339558
0.00336916
0.00333055
8.03824e-06
6.45362e-05
0.000135967
0.0001962
0.000244134
0.000281149
0.000309468
0.000331177
0.000348055
0.000361585
0.000372962
0.000383124
0.000392778
0.000402433
0.000412449
0.000423066
0.000434449
0.000446711
0.00045994
0.000474204
0.000489561
0.00050606
0.000523734
0.000542602
0.000562668
0.000583921
0.000606332
0.000629863
0.000654462
0.000680073
0.000706632
0.000734069
0.000762314
0.000791297
0.00082095
0.00085121
0.000882026
0.000913349
0.000945134
0.00097734
0.00100993
0.00104287
0.00107614
0.00110971
0.00114355
0.00117767
0.00121205
0.00124667
0.00128154
0.00131666
0.00135202
0.00138762
0.00142347
0.00145956
0.00149589
0.00153247
0.0015693
0.00160638
0.00164371
0.00168129
0.00171912
0.00175719
0.0017955
0.00183404
0.00187281
0.0019118
0.00195102
0.00199043
0.00203005
0.00206986
0.00210984
0.00214999
0.00219029
0.00223072
0.00227128
0.00231195
0.0023527
0.00239353
0.00243441
0.00247533
0.00251626
0.00255719
0.00259809
0.00263894
0.00267972
0.00272041
0.00276099
0.00280142
0.00284169
0.00288178
0.00292164
0.00296127
0.00300063
0.0030397
0.00307844
0.00311684
0.00315486
0.00319248
0.00322968
0.00326643
0.00330271
0.00333852
0.00337381
0.00340859
0.00344283
0.0034765
0.00350959
0.00354206
0.00357391
0.0036051
0.00363561
0.00366542
0.00369452
0.00372288
0.00375048
0.00377731
0.00380334
0.00382855
0.00385294
0.00387649
0.00389918
0.00392099
0.00394192
0.00396195
0.00398107
0.00399928
0.00401655
0.00403289
0.00404829
0.00406275
0.00407626
0.00408897
0.00410084
0.00411163
0.00412131
0.00412993
0.00413782
0.00414474
0.00415071
0.00415574
0.00415983
0.00416301
0.00416527
0.00416663
0.0041671
0.0041667
0.00416544
0.00416333
0.00416038
0.00415662
0.00415205
0.00414669
0.00414057
0.00413369
0.00412607
0.00411774
0.00410871
0.004099
0.00408864
0.00407764
0.00406603
0.00405382
0.00404104
0.00402768
0.00401374
0.00399917
0.00398388
0.00396785
0.00395112
0.0039338
0.00391598
0.00389773
0.00387914
0.00386025
0.00384109
0.00382161
0.00380158
0.00378019
0.00375517
0.00372062
8.28917e-06
7.23261e-05
0.000150256
0.000215502
0.000267554
0.000308035
0.000339301
0.000363559
0.000382685
0.000398237
0.000411478
0.000423399
0.000434759
0.000446114
0.000457861
0.000470272
0.000483533
0.000497771
0.000513072
0.000529498
0.00054709
0.000565876
0.000585871
0.000607076
0.000629476
0.000653047
0.000677748
0.00070353
0.000730339
0.000758114
0.000786794
0.000816312
0.000846609
0.000877637
0.000909323
0.000941608
0.000974443
0.00100778
0.00104158
0.0010758
0.00111042
0.00114539
0.0011807
0.00121634
0.00125228
0.00128851
0.00132501
0.00136178
0.00139882
0.0014361
0.00147363
0.0015114
0.00154941
0.00158765
0.00162613
0.00166485
0.0017038
0.00174299
0.00178241
0.00182206
0.00186194
0.00190205
0.00194238
0.00198292
0.00202368
0.00206464
0.0021058
0.00214715
0.00218869
0.0022304
0.00227227
0.0023143
0.00235646
0.00239876
0.00244117
0.00248368
0.00252627
0.00256893
0.00261164
0.00265438
0.00269714
0.0027399
0.00278263
0.00282532
0.00286795
0.00291048
0.00295291
0.00299521
0.00303735
0.00307931
0.00312106
0.00316259
0.00320386
0.00324484
0.00328552
0.00332587
0.00336585
0.00340545
0.00344465
0.00348341
0.00352171
0.00355954
0.00359687
0.00363367
0.00366994
0.00370563
0.00374074
0.00377523
0.00380907
0.00384226
0.00387476
0.00390655
0.0039376
0.00396791
0.00399744
0.00402618
0.0040541
0.00408119
0.00410743
0.00413281
0.0041573
0.0041809
0.00420358
0.00422533
0.00424615
0.00426602
0.00428493
0.00430288
0.00431985
0.00433583
0.00435085
0.00436511
0.0043783
0.00439049
0.00440152
0.00441159
0.00442078
0.00442897
0.00443616
0.00444238
0.00444763
0.00445192
0.00445526
0.00445767
0.00445915
0.00445972
0.0044594
0.00445818
0.0044561
0.00445317
0.00444939
0.00444479
0.00443939
0.00443319
0.00442623
0.00441851
0.00441006
0.0044009
0.00439104
0.00438052
0.00436934
0.00435754
0.00434513
0.00433211
0.00431851
0.00430428
0.0042894
0.00427384
0.00425765
0.00424089
0.00422362
0.00420594
0.00418791
0.00416961
0.00415108
0.00413231
0.00411314
0.00409291
0.0040698
0.00403994
8.71841e-06
7.67133e-05
0.000160296
0.000230677
0.000286987
0.000331138
0.000365533
0.000392505
0.000414026
0.000431725
0.000446924
0.000460664
0.000473747
0.000486771
0.000500168
0.000514239
0.000529189
0.000545156
0.000562227
0.000580461
0.000599886
0.000620514
0.000642344
0.000665365
0.000689565
0.000714916
0.000741352
0.000768816
0.000797251
0.000826598
0.000856794
0.000887774
0.000919469
0.000951828
0.000984835
0.00101845
0.00105262
0.00108732
0.00112249
0.0011581
0.00119411
0.00123051
0.00126724
0.00130426
0.00134154
0.0013791
0.00141695
0.00145509
0.00149351
0.00153217
0.00157106
0.00161016
0.00164949
0.00168902
0.00172877
0.00176873
0.00180891
0.00184929
0.00188989
0.00193069
0.0019717
0.00201291
0.00205432
0.00209593
0.00213774
0.00217973
0.00222191
0.00226427
0.0023068
0.0023495
0.00239235
0.00243536
0.00247851
0.00252179
0.00256519
0.0026087
0.00265231
0.00269599
0.00273974
0.00278354
0.00282738
0.00287123
0.00291509
0.00295892
0.00300271
0.00304644
0.00309009
0.00313364
0.00317706
0.00322032
0.00326342
0.00330631
0.00334897
0.00339139
0.00343352
0.00347536
0.00351686
0.003558
0.00359876
0.00363912
0.00367904
0.00371851
0.00375749
0.00379596
0.0038339
0.00387129
0.00390808
0.00394427
0.00397983
0.00401472
0.00404893
0.00408243
0.00411519
0.00414721
0.00417844
0.00420887
0.00423848
0.00426725
0.00429516
0.00432219
0.00434833
0.00437355
0.00439784
0.00442119
0.00444359
0.00446502
0.00448547
0.00450492
0.00452338
0.00454083
0.00455736
0.00457298
0.00458752
0.00460109
0.0046135
0.004625
0.0046355
0.00464496
0.00465342
0.00466087
0.00466733
0.0046728
0.00467731
0.00468085
0.00468345
0.00468511
0.00468585
0.00468568
0.00468461
0.00468267
0.00467986
0.00467621
0.00467172
0.00466642
0.00466033
0.00465346
0.00464584
0.00463748
0.0046284
0.00461863
0.00460819
0.00459709
0.00458536
0.00457301
0.00456005
0.00454648
0.00453229
0.00451747
0.00450205
0.00448609
0.00446964
0.00445277
0.00443557
0.00441812
0.00440048
0.00438269
0.00436463
0.00434579
0.00432476
0.0042993
9.27013e-06
7.82515e-05
0.000166373
0.000241757
0.000302347
0.000350305
0.000387966
0.000417778
0.000441804
0.000461742
0.000478963
0.000494555
0.000509357
0.000524004
0.000538956
0.000554543
0.000570987
0.000588434
0.00060698
0.000626694
0.000647603
0.000669679
0.000692892
0.000717201
0.000742533
0.000768888
0.000796275
0.000824655
0.000853974
0.000884179
0.000915213
0.000947026
0.000979574
0.00101283
0.00104672
0.00108121
0.00111623
0.00115175
0.00118771
0.00122409
0.00126086
0.00129798
0.00133543
0.00137323
0.00141133
0.00144973
0.00148838
0.00152723
0.0015663
0.00160558
0.00164504
0.00168468
0.00172449
0.00176448
0.00180465
0.00184499
0.00188552
0.00192624
0.00196713
0.00200821
0.00204947
0.00209092
0.00213255
0.00217437
0.00221637
0.00225855
0.00230092
0.00234347
0.0023862
0.00242911
0.00247219
0.00251544
0.00255886
0.00260242
0.00264614
0.00269
0.00273398
0.00277808
0.00282229
0.00286658
0.00291096
0.00295539
0.00299987
0.00304438
0.00308889
0.00313339
0.00317785
0.00322226
0.00326659
0.00331081
0.0033549
0.00339884
0.0034426
0.00348615
0.00352947
0.00357252
0.00361528
0.00365772
0.00369982
0.00374154
0.00378286
0.00382375
0.00386418
0.00390412
0.00394355
0.00398245
0.00402077
0.00405849
0.0040956
0.00413205
0.00416783
0.0042029
0.00423725
0.00427085
0.00430367
0.00433569
0.00436688
0.00439724
0.00442672
0.00445533
0.00448303
0.0045098
0.00453564
0.00456053
0.00458445
0.00460739
0.00462933
0.00465027
0.0046702
0.0046891
0.00470708
0.00472402
0.00473997
0.0047549
0.00476875
0.00478165
0.0047935
0.00480428
0.00481403
0.00482276
0.00483049
0.00483721
0.00484295
0.00484771
0.0048515
0.00485435
0.00485625
0.00485723
0.0048573
0.00485648
0.00485477
0.00485221
0.00484879
0.00484455
0.0048395
0.00483366
0.00482705
0.00481968
0.00481159
0.00480278
0.00479328
0.00478312
0.0047723
0.00476085
0.00474878
0.0047361
0.00472282
0.00470894
0.00469448
0.0046795
0.00466403
0.00464817
0.00463198
0.00461556
0.00459899
0.00458233
0.00456552
0.00454816
0.00452917
0.00450737
9.76102e-06
7.85096e-05
0.000169813
0.000249475
0.000314001
0.000365645
0.000406555
0.000439235
0.000465807
0.000488018
0.000507284
0.000524727
0.000541218
0.000557418
0.000573817
0.000590779
0.000608544
0.000627225
0.00064688
0.000667506
0.000689164
0.000711936
0.000735827
0.000760822
0.00078692
0.000814102
0.000842304
0.000871444
0.000901462
0.000932305
0.000963924
0.000996269
0.0010293
0.00106295
0.00109718
0.00113192
0.00116714
0.00120281
0.0012389
0.00127537
0.00131218
0.00134933
0.00138678
0.0014245
0.00146248
0.0015007
0.00153914
0.00157782
0.00161681
0.00165598
0.00169523
0.00173458
0.00177404
0.00181363
0.00185335
0.00189322
0.00193324
0.00197342
0.00201376
0.00205427
0.00209495
0.00213581
0.00217686
0.00221809
0.00225952
0.00230116
0.002343
0.00238505
0.00242731
0.00246979
0.00251248
0.00255539
0.00259851
0.00264184
0.00268538
0.00272911
0.00277303
0.00281713
0.0028614
0.00290584
0.00295041
0.00299511
0.00303993
0.00308483
0.00312981
0.00317485
0.00321991
0.00326498
0.00331003
0.00335503
0.00339997
0.0034448
0.00348952
0.00353407
0.00357844
0.0036226
0.00366651
0.00371015
0.00375348
0.00379647
0.00383909
0.00388132
0.00392311
0.00396445
0.0040053
0.00404563
0.0040854
0.0041246
0.0041632
0.00420115
0.00423845
0.00427505
0.00431093
0.00434606
0.00438043
0.004414
0.00444674
0.00447864
0.00450968
0.00453983
0.00456907
0.00459738
0.00462475
0.00465116
0.0046766
0.00470104
0.00472449
0.00474691
0.00476831
0.00478869
0.00480806
0.0048264
0.00484376
0.00486011
0.00487541
0.00488977
0.00490302
0.00491515
0.00492624
0.00493631
0.00494536
0.0049534
0.00496044
0.0049665
0.00497157
0.00497569
0.00497886
0.00498109
0.0049824
0.0049828
0.00498232
0.00498097
0.00497876
0.00497571
0.00497185
0.00496718
0.00496174
0.00495553
0.00494858
0.00494091
0.00493254
0.00492348
0.00491377
0.00490341
0.00489242
0.00488083
0.00486863
0.00485586
0.00484252
0.00482866
0.00481434
0.00479962
0.00478458
0.00476933
0.00475395
0.00473853
0.00472305
0.0047072
0.00469015
0.00467144
1.01825e-05
7.78937e-05
0.000171201
0.000254314
0.00032229
0.000377336
0.000421348
0.00045682
0.000485897
0.000510353
0.000531628
0.000550878
0.000569016
0.000586669
0.000604298
0.000622201
0.00064066
0.000659943
0.000680196
0.000701534
0.000724031
0.000747622
0.000772269
0.000797945
0.000824615
0.000852213
0.000880666
0.000909954
0.000940035
0.000970865
0.0010024