/*--------------------------------*- C++ -*----------------------------------*\
| =========                 |                                                 |
| \\      /  F ield         | OpenFOAM: The Open Source CFD Toolbox           |
|  \\    /   O peration     | Version:  4.1                                   |
|   \\  /    A nd           | Web:      www.OpenFOAM.org                      |
|    \\/     M anipulation  |                                                 |
\*---------------------------------------------------------------------------*/
FoamFile
{
    version     2.0;
    format      ascii;
    class       volScalarField;
    location    "298";
    object      p;
}
// * * * * * * * * * * * * * * * * * * * * * * * * * * * * * * * * * * * * * //

dimensions      [0 2 -2 0 0 0 0];

internalField   nonuniform List<scalar> 
12225
(
-1.61487
-3.84744
-4.96127
-5.27068
-5.44539
-5.62471
-5.77334
-5.88519
-5.97712
-6.06054
-6.13846
-6.21197
-6.28282
-6.35309
-6.42547
-6.49945
-6.59062
-6.64683
-4.80304
-5.63389
-5.83739
-5.73807
-5.70936
-5.77432
-5.85869
-5.93422
-6.00485
-6.07514
-6.14474
-6.2128
-6.27993
-6.34744
-6.41716
-6.49057
-6.57271
-6.68096
-5.19993
-5.12625
-5.2392
-5.32951
-5.44463
-5.59314
-5.73247
-5.84623
-5.94257
-6.02992
-6.11107
-6.18706
-6.25953
-6.33037
-6.40174
-6.47496
-6.55493
-6.63991
-5.07276
-4.97468
-5.23941
-5.44478
-5.57347
-5.69622
-5.8106
-5.90561
-5.98703
-6.06236
-6.13413
-6.20283
-6.26943
-6.33523
-6.40159
-6.46917
-6.53879
-6.60431
-5.06832
-5.08142
-5.33067
-5.50268
-5.59642
-5.69319
-5.79533
-5.88665
-5.96752
-6.04328
-6.11588
-6.18548
-6.25267
-6.31841
-6.38355
-6.44816
-6.51139
-6.56917
-5.13659
-5.18268
-5.3642
-5.50664
-5.59821
-5.69389
-5.79501
-5.88667
-5.9679
-6.04336
-6.11517
-6.18366
-6.24934
-6.31297
-6.37504
-6.43527
-6.49255
-6.54395
-5.20729
-5.24938
-5.38495
-5.51548
-5.61165
-5.70514
-5.80083
-5.88882
-5.96774
-6.04115
-6.11097
-6.17755
-6.24123
-6.30247
-6.36146
-6.41774
-6.47018
-6.51658
-5.26164
-5.29813
-5.41051
-5.53072
-5.62534
-5.71425
-5.80435
-5.88888
-5.96587
-6.03773
-6.10604
-6.17112
-6.23318
-6.29247
-6.34902
-6.40233
-6.45143
-6.4947
-5.30717
-5.34064
-5.43659
-5.54561
-5.63672
-5.72171
-5.80733
-5.8889
-5.9641
-6.03445
-6.10127
-6.16486
-6.22533
-6.28281
-6.3372
-6.38805
-6.43457
-6.47558
-5.35464
-5.38522
-5.46586
-5.56265
-5.64916
-5.73017
-5.81118
-5.8893
-5.96223
-6.03068
-6.09566
-6.15745
-6.21607
-6.27151
-6.32364
-6.37207
-6.4162
-6.45522
-5.40328
-5.43046
-5.49763
-5.5824
-5.6632
-5.7398
-5.81594
-5.89011
-5.96025
-6.0264
-6.08922
-6.1489
-6.20541
-6.25865
-6.30847
-6.35455
-6.39651
-6.43381
-5.45191
-5.47544
-5.53127
-5.60467
-5.67874
-5.75037
-5.82148
-5.89134
-5.95823
-6.0217
-6.08203
-6.13933
-6.19351
-6.24443
-6.29192
-6.33577
-6.37576
-6.41156
-5.4992
-5.5192
-5.56564
-5.62864
-5.69539
-5.76159
-5.8276
-5.89292
-5.95614
-6.01657
-6.07413
-6.12883
-6.18052
-6.22905
-6.27427
-6.31604
-6.35425
-6.38875
-5.54356
-5.56041
-5.59914
-5.65301
-5.71241
-5.77292
-5.83383
-5.89452
-5.95383
-6.01094
-6.06554
-6.11749
-6.16663
-6.21278
-6.25583
-6.29568
-6.33232
-6.36567
-5.58301
-5.5972
-5.62975
-5.67594
-5.7285
-5.78341
-5.83936
-5.89553
-5.95089
-6.0046
-6.05618
-6.10537
-6.152
-6.19588
-6.23693
-6.27507
-6.31032
-6.34268
-5.61497
-5.62707
-5.65489
-5.69497
-5.74168
-5.79152
-5.84295
-5.895
-5.94668
-5.99714
-6.04585
-6.09247
-6.13678
-6.17862
-6.21789
-6.25456
-6.28864
-6.32018
-5.636
-5.64661
-5.67109
-5.7068
-5.74911
-5.79495
-5.84276
-5.89146
-5.9401
-5.98784
-6.03414
-6.0786
-6.12101
-6.16118
-6.19904
-6.23456
-6.26775
-6.29868
-5.64085
-5.6507
-5.67354
-5.7071
-5.74717
-5.79089
-5.83668
-5.88349
-5.93036
-5.97651
-6.02135
-6.06451
-6.10576
-6.14494
-6.18197
-6.21683
-6.24953
-6.28014
-5.6294
-5.63922
-5.66205
-5.69568
-5.73586
-5.77956
-5.82518
-5.87176
-5.91839
-5.96427
-6.0088
-6.05166
-6.09261
-6.13153
-6.16836
-6.20307
-6.2357
-6.26632
-5.60645
-5.61668
-5.64063
-5.67614
-5.71836
-5.76366
-5.8105
-5.85812
-5.90566
-5.95225
-5.99733
-6.04061
-6.08191
-6.12112
-6.15817
-6.1931
-6.22593
-6.25676
-5.57541
-5.58618
-5.61215
-5.65126
-5.69706
-5.74503
-5.79403
-5.84369
-5.89299
-5.94095
-5.9871
-6.03125
-6.07328
-6.11309
-6.15066
-6.18603
-6.21927
-6.25048
-5.53887
-5.54959
-5.57837
-5.62336
-5.67416
-5.72511
-5.77669
-5.82909
-5.88081
-5.93063
-5.97824
-6.02358
-6.06658
-6.10716
-6.14533
-6.18119
-6.21483
-6.24638
-5.49916
-5.50811
-5.54007
-5.5938
-5.65111
-5.7054
-5.7599
-5.8153
-5.86948
-5.92123
-5.97046
-6.01723
-6.0614
-6.10294
-6.1419
-6.17843
-6.21266
-6.24478
-5.45813
-5.46308
-5.49993
-5.56368
-5.62649
-5.68472
-5.74405
-5.80354
-5.86026
-5.91366
-5.96427
-6.01218
-6.05721
-6.09936
-6.13879
-6.17567
-6.21017
-6.2424
-5.41566
-5.41033
-5.46553
-5.54229
-5.60294
-5.66074
-5.72521
-5.7902
-5.85067
-5.90688
-5.95994
-6.00989
-6.05651
-6.09984
-6.14013
-6.17767
-6.21272
-6.2457
-5.37815
-5.32336
-5.42407
-5.53658
-5.59714
-5.64879
-5.71146
-5.77599
-5.83597
-5.89218
-5.94581
-5.99661
-6.04411
-6.08834
-6.12952
-6.16794
-6.20378
-6.23714
-5.39883
-5.20253
-5.31692
-5.47972
-5.57768
-5.65413
-5.73061
-5.80094
-5.86285
-5.91944
-5.97253
-6.02204
-6.0678
-6.11005
-6.14917
-6.18558
-6.21971
-6.25246
-5.53717
-5.28667
-5.25664
-5.30713
-5.38293
-5.48308
-5.58743
-5.68022
-5.76158
-5.83568
-5.90394
-5.96612
-6.02235
-6.07317
-6.11928
-6.16132
-6.2
-6.23651
-5.29303
-5.86416
-5.9739
-5.84411
-5.75926
-5.7631
-5.8009
-5.84206
-5.88447
-5.93014
-5.97733
-6.02355
-6.06753
-6.10887
-6.14747
-6.18329
-6.21666
-6.249
-2.32339
-3.96789
-4.94179
-5.22516
-5.35275
-5.49322
-5.62117
-5.72061
-5.80196
-5.87462
-5.94077
-6.00025
-6.05352
-6.10139
-6.1445
-6.18304
-6.21711
-6.2453
-7.03255
-7.0323
-7.03223
-7.03258
-7.03334
-7.03443
-7.03577
-7.03728
-7.03887
-7.0405
-7.0422
-7.04398
-7.04586
-7.04785
-7.04999
-7.05229
-7.0548
-7.05754
-7.06055
-7.06386
-7.06752
-7.07157
-7.07605
-7.08099
-7.08645
-7.0925
-7.09919
-7.1066
-7.1148
-7.12389
-7.13396
-7.14508
-7.15733
-7.17076
-7.18542
-7.20134
-7.21853
-7.23698
-7.25667
-7.27757
-7.29962
-7.32276
-7.34691
-7.37201
-7.39798
-7.42478
-7.45235
-7.48053
-7.50919
-7.53821
-7.56754
-7.59712
-7.62687
-7.65674
-7.68665
-7.71652
-7.74629
-7.77587
-7.80518
-7.83413
-7.86262
-7.89057
-7.91785
-7.94436
-7.96998
-7.99459
-8.01804
-8.0402
-8.06093
-8.08007
-8.09745
-8.11291
-8.12628
-8.13739
-8.14603
-8.15203
-8.15519
-8.15532
-8.1522
-8.14565
-8.13544
-8.12138
-8.10325
-8.08086
-8.05399
-8.02244
-7.98601
-7.9445
-7.89772
-7.84547
-7.78759
-7.72388
-7.6542
-7.57837
-7.49625
-7.40773
-7.31265
-7.21089
-7.1024
-6.98724
-6.8655
-6.73696
-6.60109
-6.4578
-6.30733
-6.14973
-5.98504
-5.81329
-5.63452
-5.4488
-5.25619
-5.05679
-4.8507
-4.63803
-4.41893
-4.19355
-3.96205
-3.72461
-3.48143
-3.23272
-2.97869
-2.7196
-2.45566
-2.18716
-1.91435
-1.63751
-1.35693
-1.0729
-0.78571
-0.495679
-0.203113
0.0916709
0.388369
0.68668
0.986282
1.28682
1.58798
1.88946
2.19096
2.49215
2.79273
3.09241
3.39089
3.68789
3.98312
4.27632
4.56722
4.85556
5.14111
5.42363
5.70289
5.97869
6.25081
6.51906
6.78326
7.04324
7.29882
7.54987
7.79624
8.0378
8.27443
8.50602
8.73248
8.95372
9.16967
9.38038
9.58582
9.78569
9.97978
10.168
10.3505
10.5271
10.6979
10.8629
11.0222
11.1762
11.3257
11.4719
11.6247
11.7809
-7.03305
-7.03282
-7.03277
-7.0332
-7.03403
-7.03506
-7.03619
-7.03736
-7.03855
-7.03977
-7.041
-7.04228
-7.04365
-7.04514
-7.0468
-7.04864
-7.05067
-7.05294
-7.05546
-7.05827
-7.06137
-7.06479
-7.0686
-7.07285
-7.07762
-7.08298
-7.08901
-7.0958
-7.10344
-7.11202
-7.12162
-7.13234
-7.14423
-7.15736
-7.17177
-7.1875
-7.20454
-7.22287
-7.24246
-7.26325
-7.28518
-7.3082
-7.3322
-7.35713
-7.38289
-7.40941
-7.43661
-7.46438
-7.49263
-7.52128
-7.55024
-7.57946
-7.60886
-7.63839
-7.66796
-7.69752
-7.72699
-7.7563
-7.78535
-7.81406
-7.84235
-7.87012
-7.89725
-7.92364
-7.94917
-7.97372
-7.99716
-8.01934
-8.04012
-8.05935
-8.07688
-8.09252
-8.10612
-8.11749
-8.12645
-8.13282
-8.13639
-8.13697
-8.13437
-8.12837
-8.11877
-8.10538
-8.08797
-8.06634
-8.0403
-8.00962
-7.97412
-7.93359
-7.88785
-7.8367
-7.77996
-7.71747
-7.64906
-7.57456
-7.49385
-7.40678
-7.31322
-7.21305
-7.10614
-6.99236
-6.87152
-6.7435
-6.60852
-6.46666
-6.31777
-6.1618
-5.99877
-5.8287
-5.65162
-5.46758
-5.27666
-5.07895
-4.87453
-4.66353
-4.44608
-4.22233
-3.99244
-3.75658
-3.51496
-3.26777
-3.01523
-2.75758
-2.49506
-2.22791
-1.95642
-1.68084
-1.40147
-1.11859
-0.832502
-0.543507
-0.251918
0.0419489
0.337795
0.635323
0.934209
1.2341
1.53468
1.83565
2.1367
2.43752
2.73781
3.03725
3.33557
3.63248
3.92768
4.22092
4.51192
4.80044
5.08622
5.36904
5.64866
5.92488
6.19748
6.46626
6.73105
6.99167
7.24795
7.49973
7.74689
7.98928
8.22679
8.4593
8.68674
8.90904
9.12614
9.33773
9.54352
9.74353
9.93782
10.1264
10.3091
10.4862
10.6574
10.823
10.9831
11.1381
11.2893
11.4374
11.5936
11.7459
-7.03215
-7.03214
-7.03236
-7.03297
-7.03384
-7.03477
-7.03565
-7.03646
-7.03723
-7.03796
-7.0387
-7.03948
-7.04034
-7.0413
-7.0424
-7.04365
-7.04507
-7.0467
-7.04856
-7.05071
-7.05319
-7.05609
-7.05946
-7.06338
-7.06793
-7.07319
-7.07925
-7.0862
-7.09412
-7.10306
-7.11308
-7.12424
-7.13658
-7.15012
-7.16489
-7.18087
-7.19806
-7.2164
-7.23587
-7.25643
-7.27801
-7.30056
-7.32402
-7.34831
-7.37338
-7.39916
-7.42556
-7.45252
-7.47996
-7.50781
-7.53599
-7.56446
-7.59314
-7.62197
-7.65088
-7.6798
-7.70866
-7.73739
-7.7659
-7.79411
-7.82192
-7.84925
-7.87598
-7.90202
-7.92723
-7.9515
-7.9747
-7.99669
-8.01733
-8.03646
-8.05394
-8.06959
-8.08324
-8.09472
-8.10385
-8.11044
-8.11429
-8.11522
-8.11302
-8.10749
-8.09843
-8.08563
-8.06889
-8.04799
-8.02274
-7.99294
-7.95837
-7.91885
-7.87417
-7.82415
-7.76862
-7.7074
-7.64031
-7.5672
-7.48792
-7.40234
-7.31031
-7.21173
-7.1065
-6.99448
-6.87551
-6.74945
-6.61638
-6.47639
-6.32939
-6.17537
-6.01432
-5.84625
-5.67119
-5.4892
-5.30033
-5.10467
-4.90231
-4.69337
-4.47797
-4.25627
-4.02841
-3.79456
-3.55493
-3.30971
-3.05911
-2.80336
-2.5427
-2.27738
-2.00767
-1.73382
-1.45613
-1.17488
-0.890361
-0.602878
-0.312742
-0.0202649
0.274256
0.570527
0.868217
1.16699
1.46652
1.76652
2.06667
2.36667
2.6662
2.96497
3.26268
3.55904
3.85379
4.14663
4.43731
4.72557
5.01117
5.29387
5.57343
5.84965
6.12231
6.39122
6.65619
6.91703
7.17358
7.42569
7.67321
7.916
8.15393
8.38689
8.61475
8.83741
9.05483
9.26695
9.47364
9.67481
9.87034
10.0602
10.2442
10.4225
10.5952
10.7622
10.924
11.0808
11.2344
11.3846
11.544
11.6861
-7.02926
-7.02967
-7.0304
-7.03134
-7.03232
-7.03321
-7.03399
-7.03464
-7.0352
-7.0357
-7.03619
-7.03669
-7.03727
-7.03795
-7.03876
-7.03974
-7.04093
-7.04235
-7.04406
-7.0461
-7.04856
-7.05148
-7.05496
-7.05906
-7.06387
-7.06946
-7.07591
-7.08327
-7.09162
-7.101
-7.11145
-7.12301
-7.13569
-7.14951
-7.16446
-7.18052
-7.19766
-7.21588
-7.23512
-7.25536
-7.27654
-7.29861
-7.32152
-7.34522
-7.36964
-7.39473
-7.42043
-7.44668
-7.47341
-7.50057
-7.52809
-7.55591
-7.58397
-7.61221
-7.64056
-7.66896
-7.69734
-7.72561
-7.7537
-7.78153
-7.809
-7.83601
-7.86247
-7.88827
-7.91329
-7.9374
-7.96048
-7.9824
-8.003
-8.02214
-8.03966
-8.0554
-8.06918
-8.08084
-8.09019
-8.09704
-8.10121
-8.1025
-8.1007
-8.09563
-8.08707
-8.07482
-8.05867
-8.03842
-8.01387
-7.9848
-7.95102
-7.91233
-7.86853
-7.81944
-7.76488
-7.70466
-7.63863
-7.56661
-7.48845
-7.40401
-7.31316
-7.21576
-7.11171
-7.00091
-6.88323
-6.75859
-6.627
-6.48847
-6.34295
-6.19043
-6.03089
-5.86436
-5.69085
-5.51041
-5.3231
-5.12901
-4.92822
-4.72085
-4.50702
-4.28687
-4.06056
-3.82825
-3.59014
-3.34641
-3.09729
-2.84299
-2.58375
-2.31983
-2.05147
-1.77895
-1.50254
-1.22253
-0.939211
-0.652884
-0.36386
-0.072446
0.221069
0.516382
0.813151
1.11105
1.40978
1.70905
2.00851
2.30787
2.60682
2.90506
3.2023
3.49826
3.79264
4.08517
4.3756
4.66366
4.9491
5.23169
5.51121
5.78742
6.06012
6.3291
6.59419
6.85519
7.11194
7.36427
7.61203
7.85509
8.09333
8.32664
8.55489
8.77798
8.99583
9.20843
9.41572
9.61758
9.81388
10.0045
10.1894
10.3687
10.5422
10.7103
10.8732
11.0311
11.1859
11.3363
11.4949
11.6244
-7.02435
-7.0253
-7.0268
-7.02833
-7.02963
-7.03068
-7.0315
-7.03215
-7.03267
-7.03311
-7.03352
-7.03395
-7.03446
-7.03508
-7.03586
-7.03685
-7.03808
-7.0396
-7.04147
-7.04374
-7.04649
-7.04978
-7.05368
-7.05827
-7.06361
-7.06977
-7.07681
-7.08476
-7.09369
-7.10361
-7.11455
-7.12654
-7.13957
-7.15366
-7.16879
-7.18494
-7.20209
-7.22023
-7.23931
-7.25929
-7.28015
-7.30184
-7.32431
-7.34752
-7.37143
-7.39597
-7.42111
-7.44679
-7.47295
-7.49955
-7.52653
-7.55383
-7.5814
-7.60917
-7.63708
-7.66507
-7.69305
-7.72097
-7.74874
-7.77628
-7.80349
-7.83028
-7.85655
-7.88218
-7.90707
-7.93109
-7.95411
-7.97599
-7.99659
-8.01577
-8.03336
-8.0492
-8.06312
-8.07495
-8.0845
-8.09158
-8.09602
-8.0976
-8.09614
-8.09143
-8.08326
-8.07144
-8.05575
-8.03599
-8.01196
-7.98344
-7.95025
-7.91217
-7.86901
-7.82059
-7.76672
-7.70723
-7.64194
-7.57069
-7.49333
-7.40971
-7.31969
-7.22315
-7.11997
-7.01006
-6.89331
-6.76967
-6.63911
-6.50159
-6.3571
-6.2056
-6.0471
-5.88161
-5.70915
-5.52978
-5.34353
-5.15051
-4.95079
-4.74448
-4.53171
-4.31262
-4.08735
-3.85608
-3.619
-3.37629
-3.12816
-2.87485
-2.61658
-2.3536
-2.08616
-1.81453
-1.539
-1.25983
-0.977323
-0.691782
-0.403513
-0.112816
0.180025
0.474688
0.770828
1.06814
1.36634
1.66511
1.96412
2.26306
2.56163
2.85954
3.15648
3.45217
3.74633
4.03869
4.32897
4.61693
4.90232
5.18488
5.46441
5.74067
6.01345
6.28256
6.54779
6.80897
7.06591
7.31848
7.56651
7.80988
8.04845
8.2821
8.51072
8.7342
8.95244
9.16538
9.37296
9.57512
9.77176
9.96278
10.1481
10.3278
10.5019
10.6704
10.8338
10.9922
11.147
11.2963
11.452
11.5699
-7.01792
-7.01947
-7.02192
-7.02421
-7.02599
-7.02733
-7.02837
-7.02916
-7.02979
-7.03032
-7.03082
-7.03135
-7.03196
-7.03272
-7.03368
-7.03488
-7.03637
-7.03821
-7.04046
-7.04317
-7.04642
-7.05025
-7.05475
-7.05996
-7.06595
-7.07277
-7.08045
-7.08904
-7.09855
-7.10902
-7.12046
-7.13286
-7.14625
-7.1606
-7.17591
-7.19216
-7.20933
-7.2274
-7.24634
-7.26612
-7.28672
-7.30809
-7.33021
-7.35303
-7.37651
-7.40063
-7.42532
-7.45055
-7.47627
-7.50243
-7.52899
-7.55588
-7.58306
-7.61046
-7.63803
-7.6657
-7.69341
-7.72107
-7.74861
-7.77594
-7.80298
-7.82963
-7.85579
-7.88134
-7.90617
-7.93016
-7.95318
-7.97509
-7.99575
-8.01501
-8.03271
-8.04868
-8.06275
-8.07476
-8.08451
-8.09182
-8.0965
-8.09836
-8.09718
-8.09278
-8.08494
-8.07346
-8.05814
-8.03877
-8.01513
-7.98704
-7.95427
-7.91665
-7.87396
-7.82602
-7.77265
-7.71366
-7.6489
-7.57818
-7.50137
-7.41831
-7.32886
-7.23292
-7.13035
-7.02106
-6.90496
-6.782
-6.65211
-6.51528
-6.37147
-6.22066
-6.06286
-5.89806
-5.72631
-5.54763
-5.3621
-5.16979
-4.97078
-4.76518
-4.55313
-4.33474
-4.11018
-3.87962
-3.64323
-3.40122
-3.15378
-2.90114
-2.64353
-2.38121
-2.11441
-1.84341
-1.56849
-1.28991
-1.00799
-0.723007
-0.435281
-0.145095
0.147253
0.44143
0.737102
1.03398
1.33179
1.63019
1.92885
2.22747
2.52575
2.82339
3.1201
3.41558
3.70956
4.00177
4.29193
4.5798
4.86513
5.14766
5.42719
5.70348
5.97632
6.2455
6.51084
6.77215
7.02927
7.28203
7.53028
7.77388
8.0127
8.24661
8.47551
8.69927
8.91779
9.13098
9.33878
9.54114
9.73799
9.92925
10.1149
10.2948
10.4692
10.638
10.8015
10.9599
11.1142
11.2617
11.4145
11.5221
-7.01085
-7.01302
-7.01648
-7.01959
-7.02191
-7.02366
-7.02501
-7.02607
-7.02693
-7.02768
-7.02841
-7.02918
-7.03006
-7.03112
-7.0324
-7.03398
-7.0359
-7.03821
-7.04098
-7.04425
-7.0481
-7.05257
-7.05771
-7.06359
-7.07023
-7.07769
-7.08598
-7.09515
-7.1052
-7.11616
-7.12802
-7.14079
-7.15446
-7.16904
-7.1845
-7.20084
-7.21803
-7.23606
-7.2549
-7.27454
-7.29495
-7.31609
-7.33794
-7.36048
-7.38366
-7.40745
-7.43181
-7.45671
-7.48211
-7.50795
-7.53419
-7.56079
-7.5877
-7.61485
-7.64218
-7.66965
-7.69717
-7.72467
-7.75208
-7.77931
-7.80627
-7.83286
-7.85899
-7.88454
-7.90939
-7.93343
-7.95651
-7.97851
-7.99928
-8.01866
-8.0365
-8.05263
-8.06688
-8.07908
-8.08904
-8.09657
-8.10147
-8.10357
-8.10264
-8.0985
-8.09093
-8.07972
-8.06469
-8.0456
-8.02226
-7.99447
-7.96201
-7.9247
-7.88232
-7.83471
-7.78166
-7.72301
-7.65858
-7.58821
-7.51174
-7.42903
-7.33995
-7.24436
-7.14217
-7.03327
-6.91758
-6.79503
-6.66557
-6.52915
-6.38576
-6.23538
-6.078
-5.91363
-5.74231
-5.56408
-5.37899
-5.18711
-4.98855
-4.78341
-4.57181
-4.35388
-4.12979
-3.89968
-3.66376
-3.4222
-3.17522
-2.92304
-2.66589
-2.40401
-2.13766
-1.8671
-1.59261
-1.31446
-1.03296
-0.74839
-0.461063
-0.171258
0.120705
0.414499
0.709807
1.00636
1.30385
1.60194
1.90031
2.19866
2.49668
2.79409
3.09058
3.38587
3.67967
3.97172
4.26176
4.54952
4.83475
5.11723
5.3967
5.67297
5.94581
6.21502
6.48042
6.74181
6.99903
7.2519
7.50029
7.74404
7.98302
8.21711
8.4462
8.67015
8.88888
9.10226
9.31025
9.51279
9.70982
9.90127
10.0871
10.2672
10.4418
10.6107
10.7742
10.9322
11.0857
11.2313
11.3814
11.48
-7.00411
-7.00681
-7.01122
-7.01512
-7.01801
-7.0202
-7.02193
-7.02333
-7.02451
-7.02558
-7.02662
-7.02773
-7.02897
-7.03042
-7.03213
-7.03417
-7.03659
-7.03943
-7.04277
-7.04664
-7.0511
-7.05619
-7.06197
-7.06846
-7.07571
-7.08374
-7.09259
-7.10226
-7.11277
-7.12413
-7.13635
-7.14942
-7.16334
-7.1781
-7.19369
-7.21011
-7.22734
-7.24535
-7.26414
-7.28369
-7.30397
-7.32496
-7.34664
-7.36898
-7.39195
-7.41552
-7.43967
-7.46435
-7.48953
-7.51517
-7.54122
-7.56764
-7.59438
-7.62138
-7.6486
-7.67596
-7.7034
-7.73084
-7.75822
-7.78543
-7.8124
-7.83903
-7.86521
-7.89082
-7.91577
-7.93991
-7.96312
-7.98525
-8.00617
-8.02571
-8.04373
-8.06004
-8.07448
-8.08687
-8.09702
-8.10476
-8.10987
-8.11217
-8.11145
-8.10751
-8.10014
-8.08915
-8.07431
-8.05542
-8.03228
-8.00468
-7.97241
-7.93528
-7.89309
-7.84566
-7.79279
-7.73432
-7.67006
-7.59986
-7.52357
-7.44103
-7.35212
-7.25672
-7.15471
-7.046
-6.93051
-6.80816
-6.6789
-6.54269
-6.39951
-6.24934
-6.09217
-5.92802
-5.75692
-5.57891
-5.39406
-5.20243
-5.00411
-4.79922
-4.58788
-4.37022
-4.14639
-3.91656
-3.68092
-3.43965
-3.19296
-2.94107
-2.68422
-2.42265
-2.1566
-1.88635
-1.61216
-1.33432
-1.05312
-0.768853
-0.481818
-0.192309
0.0993479
0.392837
0.687857
0.984136
1.28137
1.5792
1.87732
2.17543
2.47323
2.77041
3.0667
3.36179
3.65542
3.94731
4.23719
4.52482
4.80994
5.09232
5.37172
5.64794
5.92074
6.18994
6.45534
6.71676
6.97401
7.22695
7.47541
7.71925
7.95834
8.19255
8.42175
8.64585
8.86471
9.07825
9.28639
9.48908
9.68625
9.87784
10.0638
10.2441
10.4186
10.5876
10.7509
10.9084
11.0609
11.2044
11.3521
11.4429
-6.99851
-7.00162
-7.00679
-7.01139
-7.01482
-7.01746
-7.01958
-7.02134
-7.02287
-7.02429
-7.0257
-7.02718
-7.02883
-7.0307
-7.03286
-7.03538
-7.0383
-7.04168
-7.04555
-7.04998
-7.055
-7.06066
-7.06699
-7.07402
-7.08178
-7.09031
-7.09961
-7.1097
-7.12059
-7.13229
-7.1448
-7.15812
-7.17224
-7.18716
-7.20288
-7.21937
-7.23664
-7.25467
-7.27344
-7.29294
-7.31315
-7.33405
-7.35563
-7.37786
-7.40072
-7.42417
-7.4482
-7.47277
-7.49784
-7.52337
-7.54934
-7.57568
-7.60236
-7.62933
-7.65652
-7.68387
-7.71133
-7.7388
-7.76623
-7.79352
-7.82057
-7.8473
-7.8736
-7.89935
-7.92444
-7.94874
-7.97211
-7.99442
-8.01551
-8.03524
-8.05344
-8.06994
-8.08456
-8.09713
-8.10747
-8.11537
-8.12066
-8.12312
-8.12255
-8.11876
-8.11153
-8.10066
-8.08594
-8.06716
-8.04411
-8.0166
-7.98441
-7.94735
-7.90522
-7.85783
-7.80501
-7.74657
-7.68235
-7.61217
-7.5359
-7.45338
-7.36449
-7.2691
-7.16712
-7.05843
-6.94296
-6.82064
-6.69142
-6.55525
-6.41211
-6.26198
-6.10486
-5.94076
-5.76972
-5.59178
-5.407
-5.21546
-5.01724
-4.81245
-4.60122
-4.38368
-4.15999
-3.93031
-3.69482
-3.45371
-3.2072
-2.9555
-2.69883
-2.43746
-2.17162
-1.90158
-1.62761
-1.35
-1.06902
-0.784986
-0.49818
-0.208917
0.0824874
0.375723
0.670502
0.96655
1.26355
1.56115
1.85904
2.15693
2.4545
2.75147
3.04755
3.34245
3.63588
3.92759
4.21731
4.50479
4.78978
5.07204
5.35134
5.62747
5.90021
6.16936
6.43472
6.69612
6.95338
7.20633
7.45482
7.69871
7.93786
8.17214
8.40143
8.62561
8.84458
9.05823
9.26649
9.46929
9.66656
9.85824
10.0443
10.2246
10.3992
10.5679
10.7309
10.8878
11.0392
11.1807
11.3262
11.4103
-6.99463
-6.99801
-7.00366
-7.0088
-7.0127
-7.01574
-7.01823
-7.02034
-7.02221
-7.02398
-7.02575
-7.02761
-7.02964
-7.03192
-7.03451
-7.03747
-7.04085
-7.04469
-7.04904
-7.05395
-7.05945
-7.06557
-7.07236
-7.07984
-7.08802
-7.09694
-7.1066
-7.11703
-7.12822
-7.14018
-7.15291
-7.16643
-7.18071
-7.19576
-7.21158
-7.22814
-7.24546
-7.26352
-7.2823
-7.30179
-7.32198
-7.34286
-7.36441
-7.3866
-7.40942
-7.43285
-7.45684
-7.48139
-7.50645
-7.53198
-7.55795
-7.58431
-7.61103
-7.63804
-7.6653
-7.69274
-7.72029
-7.74788
-7.77543
-7.80286
-7.83007
-7.85695
-7.88342
-7.90935
-7.93462
-7.9591
-7.98266
-8.00516
-8.02644
-8.04635
-8.06473
-8.08139
-8.09618
-8.1089
-8.11938
-8.12741
-8.13281
-8.13536
-8.13488
-8.13116
-8.12398
-8.11315
-8.09845
-8.07968
-8.05663
-8.02909
-7.99687
-7.95976
-7.91757
-7.87011
-7.8172
-7.75867
-7.69435
-7.62407
-7.54768
-7.46505
-7.37604
-7.28054
-7.17844
-7.06964
-6.95406
-6.83164
-6.70231
-6.56605
-6.42282
-6.2726
-6.1154
-5.95124
-5.78014
-5.60216
-5.41734
-5.22577
-5.02754
-4.82276
-4.61155
-4.39404
-4.17039
-3.94077
-3.70535
-3.46433
-3.21792
-2.96633
-2.7098
-2.44856
-2.18287
-1.91299
-1.6392
-1.36176
-1.08098
-0.797136
-0.510536
-0.221494
0.0696825
0.362689
0.65724
0.953065
1.24983
1.54719
1.84485
2.1425
2.43985
2.73659
3.03244
3.32712
3.62035
3.91186
4.2014
4.4887
4.77352
5.05564
5.33481
5.61082
5.88345
6.15252
6.41781
6.67916
6.93638
7.18931
7.43779
7.68169
7.92086
8.15518
8.38451
8.60876
8.82779
9.04152
9.24986
9.45274
9.65008
9.84182
10.0279
10.2082
10.3827
10.5512
10.7138
10.87
11.0202
11.1598
11.3032
11.3817
-6.99276
-6.99624
-7.00209
-7.00757
-7.01181
-7.01518
-7.01798
-7.0204
-7.02259
-7.02467
-7.02676
-7.02895
-7.03133
-7.03396
-7.03691
-7.04024
-7.04399
-7.04822
-7.05296
-7.05824
-7.06412
-7.07061
-7.07775
-7.08556
-7.09406
-7.10326
-7.11319
-7.12384
-7.13524
-7.14739
-7.16029
-7.17394
-7.18835
-7.2035
-7.21939
-7.23603
-7.25341
-7.27151
-7.29033
-7.30986
-7.33008
-7.35099
-7.37256
-7.39479
-7.41764
-7.44111
-7.46516
-7.48977
-7.51489
-7.5405
-7.56656
-7.59303
-7.61986
-7.64701
-7.67441
-7.702
-7.72971
-7.75747
-7.7852
-7.81281
-7.84021
-7.86729
-7.89395
-7.92007
-7.94553
-7.97021
-7.99395
-8.01662
-8.03807
-8.05813
-8.07664
-8.09343
-8.10833
-8.12114
-8.13169
-8.13978
-8.14521
-8.14778
-8.1473
-8.14355
-8.13633
-8.12543
-8.11065
-8.09178
-8.06861
-8.04094
-8.00856
-7.97129
-7.92892
-7.88127
-7.82817
-7.76943
-7.70489
-7.63439
-7.55778
-7.47492
-7.38568
-7.28996
-7.18763
-7.07861
-6.96282
-6.84019
-6.71067
-6.57421
-6.43079
-6.2804
-6.12304
-5.95873
-5.7875
-5.60939
-5.42447
-5.23281
-5.0345
-4.82966
-4.61841
-4.40088
-4.17723
-3.94762
-3.71224
-3.47127
-3.22492
-2.97341
-2.71698
-2.45586
-2.19031
-1.92058
-1.64694
-1.36968
-1.08908
-0.805439
-0.519058
-0.230246
0.0606954
0.35346
0.647767
0.94335
1.23986
1.53697
1.83436
2.13175
2.42884
2.72532
3.02092
3.31535
3.60834
3.89962
4.18893
4.47602
4.76064
5.04257
5.32157
5.59742
5.86992
6.13886
6.40405
6.66531
6.92246
7.17533
7.42378
7.66765
7.90681
8.14113
8.37048
8.59475
8.81383
9.02761
9.236
9.43894
9.63632
9.82808
10.0141
10.1944
10.3687
10.537
10.6992
10.8545
11.0035
11.1412
11.2828
11.3567
-6.99289
-6.99634
-7.00217
-7.00777
-7.01223
-7.01583
-7.01886
-7.02151
-7.02394
-7.02627
-7.02861
-7.03106
-7.03371
-7.03662
-7.03985
-7.04346
-7.0475
-7.052
-7.05702
-7.06258
-7.06871
-7.07544
-7.08281
-7.09083
-7.09953
-7.10892
-7.11901
-7.12982
-7.14135
-7.15362
-7.16663
-7.18038
-7.19487
-7.2101
-7.22607
-7.24278
-7.26022
-7.27839
-7.29727
-7.31687
-7.33717
-7.35815
-7.37981
-7.40213
-7.42508
-7.44865
-7.4728
-7.49751
-7.52277
-7.54852
-7.57474
-7.60138
-7.62839
-7.65572
-7.68332
-7.7111
-7.73902
-7.76698
-7.7949
-7.82271
-7.8503
-7.87757
-7.90441
-7.93071
-7.95633
-7.98116
-8.00504
-8.02783
-8.04938
-8.06953
-8.08811
-8.10494
-8.11986
-8.13267
-8.1432
-8.15124
-8.1566
-8.15908
-8.15848
-8.15459
-8.14721
-8.13614
-8.12116
-8.10207
-8.07867
-8.05075
-8.01811
-7.98056
-7.93791
-7.88997
-7.83656
-7.77751
-7.71266
-7.64184
-7.56491
-7.48174
-7.39219
-7.29616
-7.19353
-7.08422
-6.96814
-6.84523
-6.71545
-6.57874
-6.43508
-6.28447
-6.1269
-5.96239
-5.79098
-5.61271
-5.42765
-5.23587
-5.03747
-4.83256
-4.62125
-4.40368
-4.18002
-3.95042
-3.71506
-3.47415
-3.22788
-2.97647
-2.72015
-2.45917
-2.19376
-1.92421
-1.65076
-1.3737
-1.09332
-0.809913
-0.523783
-0.235226
0.0554496
0.347933
0.641964
0.937267
1.23348
1.53027
1.82736
2.12444
2.42122
2.7174
3.01269
3.30682
3.59952
3.89052
4.17955
4.46638
4.75076
5.03246
5.31125
5.5869
5.85922
6.128
6.39304
6.65417
6.91121
7.16399
7.41236
7.65618
7.8953
8.12959
8.35893
8.5832
8.8023
9.0161
9.22453
9.42749
9.6249
9.81666
10.0027
10.1828
10.357
10.525
10.6866
10.8411
10.9889
11.1249
11.2646
11.3348
-6.99488
-6.99819
-7.00382
-7.00938
-7.01391
-7.01761
-7.02077
-7.02356
-7.02614
-7.02863
-7.03114
-7.03377
-7.0366
-7.03968
-7.04309
-7.04688
-7.05108
-7.05575
-7.06092
-7.06662
-7.07289
-7.07976
-7.08725
-7.09539
-7.10419
-7.11368
-7.12386
-7.13475
-7.14636
-7.1587
-7.17177
-7.18557
-7.20012
-7.21541
-7.23145
-7.24822
-7.26573
-7.28397
-7.30294
-7.32264
-7.34303
-7.36412
-7.38589
-7.40832
-7.4314
-7.4551
-7.4794
-7.50427
-7.5297
-7.55565
-7.58206
-7.60891
-7.63613
-7.66367
-7.69146
-7.71945
-7.74755
-7.77569
-7.80379
-7.83176
-7.8595
-7.8869
-7.91387
-7.94027
-7.96598
-7.99087
-8.0148
-8.03761
-8.05916
-8.07928
-8.0978
-8.11456
-8.12938
-8.14206
-8.15243
-8.16029
-8.16545
-8.16771
-8.16687
-8.16272
-8.15506
-8.14368
-8.12839
-8.10897
-8.08522
-8.05694
-8.02394
-7.98602
-7.94299
-7.89466
-7.84087
-7.78143
-7.71619
-7.64498
-7.56768
-7.48413
-7.39422
-7.29783
-7.19486
-7.08521
-6.96882
-6.8456
-6.71552
-6.57854
-6.43463
-6.28378
-6.126
-5.9613
-5.78971
-5.6113
-5.42611
-5.23423
-5.03575
-4.83078
-4.61944
-4.40187
-4.17823
-3.94867
-3.71338
-3.47256
-3.2264
-2.97513
-2.71897
-2.45817
-2.19298
-1.92364
-1.65044
-1.37364
-1.09354
-0.810436
-0.524611
-0.236366
0.0539762
0.346111
0.639814
0.934769
1.2306
1.52702
1.82373
2.12044
2.41684
2.71265
3.00758
3.30135
3.59369
3.88435
4.17306
4.45957
4.74365
5.02506
5.30358
5.57899
5.85108
6.11964
6.3845
6.64546
6.90235
7.155
7.40326
7.64698
7.88603
8.12027
8.34957
8.57383
8.79291
9.00673
9.21517
9.41815
9.61555
9.80729
9.99325
10.1733
10.3472
10.5148
10.6759
10.8296
10.9762
11.1106
11.2485
11.3159
-6.99853
-7.00162
-7.00694
-7.01231
-7.01676
-7.02044
-7.02361
-7.02643
-7.02905
-7.03159
-7.03415
-7.03685
-7.03973
-7.04288
-7.04635
-7.05019
-7.05445
-7.05916
-7.06438
-7.07013
-7.07644
-7.08334
-7.09087
-7.09903
-7.10785
-7.11735
-7.12755
-7.13845
-7.15008
-7.16243
-7.17552
-7.18936
-7.20394
-7.21928
-7.23536
-7.2522
-7.26977
-7.28809
-7.30714
-7.32692
-7.34741
-7.36861
-7.39049
-7.41305
-7.43627
-7.46013
-7.4846
-7.50966
-7.53528
-7.5614
-7.58801
-7.61503
-7.64243
-7.67013
-7.69808
-7.7262
-7.75442
-7.78266
-7.81084
-7.83887
-7.86665
-7.89407
-7.92103
-7.9474
-7.97306
-7.99787
-8.02169
-8.04437
-8.06576
-8.0857
-8.10401
-8.12053
-8.13509
-8.14749
-8.15756
-8.16509
-8.16991
-8.1718
-8.17058
-8.16604
-8.15798
-8.14619
-8.13047
-8.11062
-8.08644
-8.05772
-8.02428
-7.98592
-7.94244
-7.89368
-7.83945
-7.77958
-7.71392
-7.6423
-7.5646
-7.48067
-7.39038
-7.29363
-7.19031
-7.08033
-6.96363
-6.84012
-6.70977
-6.57254
-6.4284
-6.27734
-6.11938
-5.95452
-5.78281
-5.60428
-5.41901
-5.22708
-5.02858
-4.82361
-4.6123
-4.39479
-4.17123
-3.94179
-3.70664
-3.46599
-3.22002
-2.96897
-2.71306
-2.45252
-2.18762
-1.9186
-1.64573
-1.36928
-1.08956
-0.806843
-0.521399
-0.233559
0.0563488
0.34806
0.641354
0.935863
1.23122
1.52718
1.82343
2.11968
2.41562
2.71098
3.00546
3.2988
3.59072
3.88096
4.16927
4.4554
4.73911
5.02018
5.29837
5.57347
5.84528
6.11359
6.3782
6.63895
6.89564
7.14813
7.39624
7.63984
7.87878
8.11294
8.34218
8.5664
8.78546
8.99926
9.20771
9.41068
9.60808
9.79978
9.98565
10.1655
10.3392
10.5065
10.6669
10.8198
10.9652
11.0981
11.2343
11.2996
-7.00359
-7.00645
-7.01136
-7.01643
-7.02068
-7.0242
-7.02723
-7.02993
-7.03245
-7.0349
-7.03738
-7.04
-7.04282
-7.04591
-7.04933
-7.05312
-7.05733
-7.062
-7.06718
-7.07288
-7.07914
-7.08599
-7.09346
-7.10157
-7.11034
-7.11979
-7.12995
-7.14081
-7.15239
-7.16471
-7.17778
-7.19159
-7.20617
-7.2215
-7.2376
-7.25445
-7.27206
-7.29042
-7.30953
-7.32936
-7.34993
-7.37122
-7.39323
-7.41592
-7.43927
-7.46326
-7.48786
-7.51304
-7.53876
-7.56499
-7.59167
-7.61876
-7.6462
-7.67394
-7.7019
-7.73001
-7.75819
-7.78636
-7.81444
-7.84235
-7.86998
-7.89724
-7.92401
-7.95016
-7.97557
-8.00011
-8.02364
-8.046
-8.06704
-8.08661
-8.10454
-8.12066
-8.13479
-8.14675
-8.15637
-8.16345
-8.16779
-8.16921
-8.1675
-8.16247
-8.15391
-8.14162
-8.12541
-8.10507
-8.08039
-8.05119
-8.01727
-7.97843
-7.93448
-7.88526
-7.83059
-7.77029
-7.70421
-7.6322
-7.55412
-7.46982
-7.37918
-7.2821
-7.17848
-7.06822
-6.95125
-6.82751
-6.69695
-6.55953
-6.41523
-6.26405
-6.10598
-5.94105
-5.76929
-5.59075
-5.40549
-5.2136
-5.01517
-4.81031
-4.59913
-4.38179
-4.15843
-3.92921
-3.69432
-3.45394
-3.20828
-2.95756
-2.70201
-2.44187
-2.17737
-1.90878
-1.63637
-1.36041
-1.08117
-0.798931
-0.51399
-0.226684
0.0626731
0.353876
0.64665
0.940583
1.23537
1.53076
1.82645
2.12213
2.41752
2.71233
3.00628
3.29909
3.59049
3.88024
4.16807
4.45374
4.73701
5.01766
5.29547
5.5702
5.84167
6.10966
6.37399
6.63447
6.89093
7.1432
7.39113
7.63457
7.87338
8.10744
8.3366
8.56075
8.77977
8.99356
9.20198
9.40495
9.60232
9.79398
9.97976
10.1595
10.3329
10.4998
10.6596
10.8116
10.956
11.0875
11.2219
11.2859
-7.00991
-7.01251
-7.01701
-7.02167
-7.02557
-7.02877
-7.03148
-7.03389
-7.03613
-7.03832
-7.04058
-7.04299
-7.04562
-7.04855
-7.05181
-7.05546
-7.05954
-7.06409
-7.06913
-7.0747
-7.08084
-7.08756
-7.09489
-7.10287
-7.1115
-7.12082
-7.13084
-7.14158
-7.15305
-7.16527
-7.17823
-7.19196
-7.20645
-7.22171
-7.23773
-7.25453
-7.27211
-7.29045
-7.30956
-7.32941
-7.35
-7.3713
-7.39332
-7.41601
-7.43935
-7.46332
-7.48788
-7.513
-7.53863
-7.56475
-7.59129
-7.61822
-7.64549
-7.67304
-7.7008
-7.72868
-7.75659
-7.78447
-7.81222
-7.83978
-7.86704
-7.8939
-7.92025
-7.94596
-7.9709
-7.99496
-8.01798
-8.03982
-8.06033
-8.07936
-8.09674
-8.1123
-8.12586
-8.13727
-8.14631
-8.15282
-8.1566
-8.15746
-8.1552
-8.14961
-8.14052
-8.1277
-8.11096
-8.09011
-8.06494
-8.03526
-8.00087
-7.96158
-7.9172
-7.86756
-7.81249
-7.75183
-7.6854
-7.61306
-7.53466
-7.45007
-7.35917
-7.26186
-7.15802
-7.04757
-6.93045
-6.80658
-6.67592
-6.53843
-6.39409
-6.24289
-6.08485