/*--------------------------------*- C++ -*----------------------------------*\
| =========                 |                                                 |
| \\      /  F ield         | OpenFOAM: The Open Source CFD Toolbox           |
|  \\    /   O peration     | Version:  4.1                                   |
|   \\  /    A nd           | Web:      www.OpenFOAM.org                      |
|    \\/     M anipulation  |                                                 |
\*---------------------------------------------------------------------------*/
FoamFile
{
    version     2.0;
    format      ascii;
    class       surfaceScalarField;
    location    "298";
    object      phi;
}
// * * * * * * * * * * * * * * * * * * * * * * * * * * * * * * * * * * * * * //

dimensions      [0 3 -1 0 0 0 0];

internalField   nonuniform List<scalar> 
24170
(
3.05907e-06
7.48211e-08
2.95467e-06
1.04404e-07
2.85726e-06
9.74113e-08
2.76453e-06
9.27287e-08
2.67732e-06
8.72009e-08
2.599e-06
7.83194e-08
2.53066e-06
6.83438e-08
2.47155e-06
5.91068e-08
2.4205e-06
5.10565e-08
2.37636e-06
4.41408e-08
2.33814e-06
3.82174e-08
2.305e-06
3.31358e-08
2.27627e-06
2.87372e-08
2.25137e-06
2.48918e-08
2.23003e-06
2.13431e-08
2.21178e-06
1.82501e-08
2.19633e-06
1.54474e-08
1.13488e-08
2.18498e-06
3.51041e-06
2.08514e-08
3.52828e-06
8.65317e-08
3.5346e-06
9.10959e-08
3.53272e-06
9.46106e-08
3.52364e-06
9.6271e-08
3.50883e-06
9.31366e-08
3.48963e-06
8.75389e-08
3.46733e-06
8.14044e-08
3.44307e-06
7.53145e-08
3.41779e-06
6.94299e-08
3.39218e-06
6.38216e-08
3.36678e-06
5.85395e-08
3.34195e-06
5.35621e-08
3.31798e-06
4.88659e-08
3.29505e-06
4.42703e-08
3.2734e-06
3.99034e-08
3.25392e-06
3.49248e-08
2.80544e-08
3.23721e-06
3.81757e-06
1.54732e-08
3.83013e-06
7.39744e-08
3.8403e-06
8.0921e-08
3.851e-06
8.39159e-08
3.86076e-06
8.65049e-08
3.86838e-06
8.55182e-08
3.87373e-06
8.21914e-08
3.87703e-06
7.81059e-08
3.87854e-06
7.38053e-08
3.87854e-06
6.94281e-08
3.8773e-06
6.5057e-08
3.87508e-06
6.07631e-08
3.87208e-06
5.65575e-08
3.86853e-06
5.24194e-08
3.86457e-06
4.82323e-08
3.86056e-06
4.39086e-08
3.85657e-06
3.89162e-08
3.26757e-08
3.85195e-06
4.20345e-06
1.65791e-08
4.21507e-06
6.23544e-08
4.22329e-06
7.26995e-08
4.23089e-06
7.63166e-08
4.23811e-06
7.92878e-08
4.24433e-06
7.92921e-08
4.24966e-06
7.68655e-08
4.25432e-06
7.34471e-08
4.25842e-06
6.97034e-08
4.26203e-06
6.58205e-08
4.2652e-06
6.18858e-08
4.26799e-06
5.79664e-08
4.27048e-06
5.40764e-08
4.27271e-06
5.01882e-08
4.27474e-06
4.62021e-08
4.27665e-06
4.19964e-08
4.27825e-06
3.73116e-08
3.18729e-08
4.27906e-06
4.63768e-06
1.62107e-08
4.64712e-06
5.29108e-08
4.65389e-06
6.59237e-08
4.65984e-06
7.03726e-08
4.66578e-06
7.33442e-08
4.67129e-06
7.37872e-08
4.67625e-06
7.19001e-08
4.68079e-06
6.891e-08
4.68498e-06
6.5518e-08
4.68886e-06
6.19402e-08
4.69248e-06
5.82655e-08
4.69588e-06
5.45589e-08
4.69912e-06
5.08401e-08
4.70222e-06
4.70856e-08
4.7052e-06
4.32198e-08
4.70805e-06
3.91498e-08
4.71062e-06
3.47452e-08
2.99038e-08
4.71259e-06
5.11602e-06
1.47826e-08
5.12361e-06
4.53273e-08
5.13002e-06
5.95132e-08
5.13574e-06
6.46496e-08
5.14152e-06
6.7564e-08
5.147e-06
6.83024e-08
5.152e-06
6.69027e-08
5.15657e-06
6.4336e-08
5.16081e-06
6.128e-08
5.16477e-06
5.79783e-08
5.16851e-06
5.45309e-08
5.17206e-06
5.10061e-08
5.17547e-06
4.74341e-08
5.17875e-06
4.38031e-08
5.1819e-06
4.00666e-08
5.18489e-06
3.61667e-08
5.18758e-06
3.205e-08
2.7711e-08
5.18977e-06
5.64261e-06
1.31809e-08
5.64907e-06
3.88682e-08
5.65559e-06
5.299e-08
5.6615e-06
5.8741e-08
5.66735e-06
6.1717e-08
5.67294e-06
6.27098e-08
5.67809e-06
6.17538e-08
5.68283e-06
5.95943e-08
5.68725e-06
5.68646e-08
5.69139e-06
5.38321e-08
5.69531e-06
5.0611e-08
5.69904e-06
4.72746e-08
5.70261e-06
4.38644e-08
5.70603e-06
4.03836e-08
5.70929e-06
3.68133e-08
5.71232e-06
3.31286e-08
5.71505e-06
2.9327e-08
2.54514e-08
5.71731e-06
4.40729e-06
1.20057e-08
4.41138e-06
3.4771e-08
4.41607e-06
4.83071e-08
4.42045e-06
5.43623e-08
4.42471e-06
5.74505e-08
4.42884e-06
5.85861e-08
4.43269e-06
5.78944e-08
4.43628e-06
5.60127e-08
4.43962e-06
5.35199e-08
4.44277e-06
5.06863e-08
4.44574e-06
4.76365e-08
4.44857e-06
4.44495e-08
4.45126e-06
4.11743e-08
4.45381e-06
3.78253e-08
4.45623e-06
3.44008e-08
4.45846e-06
3.08963e-08
4.46045e-06
2.73313e-08
2.37617e-08
4.46214e-06
5.1411e-06
1.07665e-08
5.14519e-06
3.06777e-08
5.15012e-06
4.3377e-08
5.1549e-06
4.95827e-08
5.15961e-06
5.27439e-08
5.1642e-06
5.39951e-08
5.16854e-06
5.35539e-08
5.1726e-06
5.19536e-08
5.17641e-06
4.97117e-08
5.17999e-06
4.70978e-08
5.18339e-06
4.42437e-08
5.1866e-06
4.1234e-08
5.18965e-06
3.81248e-08
5.19253e-06
3.49424e-08
5.19523e-06
3.17007e-08
5.19772e-06
2.84129e-08
5.19994e-06
2.51114e-08
2.18581e-08
5.20184e-06
5.99709e-06
9.46531e-09
6.00113e-06
2.66433e-08
6.00623e-06
3.82748e-08
6.01138e-06
4.44341e-08
6.01652e-06
4.76021e-08
6.02159e-06
4.89263e-08
6.02644e-06
4.8707e-08
6.03101e-06
4.73802e-08
6.03533e-06
4.53959e-08
6.03941e-06
4.30181e-08
6.04327e-06
4.03836e-08
6.04692e-06
3.7581e-08
6.05037e-06
3.46723e-08
6.05362e-06
3.1695e-08
6.05664e-06
2.86757e-08
6.05942e-06
2.56408e-08
6.0619e-06
2.2629e-08
1.97008e-08
6.06405e-06
6.99561e-06
8.12429e-09
6.99954e-06
2.27114e-08
7.00475e-06
3.30627e-08
7.01023e-06
3.89544e-08
7.01578e-06
4.20494e-08
7.02132e-06
4.33934e-08
7.02667e-06
4.33494e-08
7.03178e-06
4.22743e-08
7.03663e-06
4.05463e-08
7.04123e-06
3.84156e-08
7.04559e-06
3.60216e-08
7.04972e-06
3.3455e-08
7.05361e-06
3.0782e-08
7.05726e-06
2.80485e-08
7.06064e-06
2.52904e-08
7.06374e-06
2.2542e-08
7.06653e-06
1.98425e-08
1.72476e-08
7.06898e-06
8.16036e-06
6.77584e-09
8.16418e-06
1.88959e-08
8.16944e-06
2.78026e-08
8.1752e-06
3.31975e-08
8.18113e-06
3.61152e-08
8.18711e-06
3.74158e-08
8.19297e-06
3.74878e-08
8.19861e-06
3.66301e-08
8.20401e-06
3.51495e-08
8.20915e-06
3.32727e-08
8.21404e-06
3.11373e-08
8.21866e-06
2.88341e-08
8.22301e-06
2.64304e-08
8.22708e-06
2.39773e-08
8.23086e-06
2.15155e-08
8.23432e-06
1.90823e-08
8.23744e-06
1.6714e-08
1.44591e-08
8.24023e-06
9.51906e-06
5.44482e-09
9.52276e-06
1.5196e-08
9.52802e-06
2.25454e-08
9.53399e-06
2.72238e-08
9.54027e-06
2.98321e-08
9.54668e-06
3.10126e-08
9.55303e-06
3.11327e-08
9.55921e-06
3.04466e-08
9.56517e-06
2.91963e-08
9.57086e-06
2.75759e-08
9.57629e-06
2.57144e-08
9.58142e-06
2.36993e-08
9.58626e-06
2.15962e-08
9.59078e-06
1.94565e-08
9.59497e-06
1.73216e-08
9.59883e-06
1.52277e-08
9.60233e-06
1.32061e-08
1.12975e-08
9.60549e-06
1.1104e-05
4.14432e-09
1.11076e-05
1.15993e-08
1.11128e-05
1.73154e-08
1.1119e-05
2.1083e-08
1.11256e-05
2.32315e-08
1.11324e-05
2.4199e-08
1.11392e-05
2.42922e-08
1.1146e-05
2.37224e-08
1.11525e-05
2.26754e-08
1.11587e-05
2.13071e-08
1.11647e-05
1.97302e-08
1.11704e-05
1.8024e-08
1.11757e-05
1.62482e-08
1.11808e-05
1.44503e-08
1.11854e-05
1.26683e-08
1.11897e-05
1.09341e-08
1.11936e-05
9.2729e-09
7.71751e-09
1.11972e-05
1.29529e-05
2.87385e-09
1.29564e-05
8.07605e-09
1.29616e-05
1.20994e-08
1.29679e-05
1.47927e-08
1.29748e-05
1.63269e-08
1.29821e-05
1.69743e-08
1.29894e-05
1.69593e-08
1.29967e-05
1.6444e-08
1.30038e-05
1.55643e-08
1.30107e-05
1.44359e-08
1.30172e-05
1.31478e-08
1.30235e-05
1.17652e-08
1.30294e-05
1.03377e-08
1.30349e-05
8.90446e-09
1.30401e-05
7.49657e-09
1.30449e-05
6.13947e-09
1.30493e-05
4.85161e-09
3.6582e-09
1.30534e-05
1.51097e-05
1.61723e-09
1.51132e-05
4.56766e-09
1.51185e-05
6.83219e-09
1.5125e-05
8.3101e-09
1.51322e-05
9.08148e-09
1.51399e-05
9.29439e-09
1.51478e-05
9.08596e-09
1.51556e-05
8.56164e-09
1.51634e-05
7.80882e-09
1.51709e-05
6.90219e-09
1.51782e-05
5.90152e-09
1.51851e-05
4.85209e-09
1.51916e-05
3.78857e-09
1.51978e-05
2.73825e-09
1.52036e-05
1.72264e-09
1.5209e-05
7.58797e-10
1.5214e-05
-1.41911e-10
-9.61536e-10
1.52186e-05
1.76257e-05
3.40052e-10
1.76293e-05
9.66742e-10
1.76348e-05
1.36862e-09
1.76416e-05
1.48894e-09
1.76493e-05
1.35503e-09
1.76576e-05
1.02059e-09
1.76662e-05
5.3631e-10
1.76748e-05
-5.57439e-11
1.76833e-05
-7.18457e-10
1.76916e-05
-1.41962e-09
1.76997e-05
-2.1335e-09
1.77074e-05
-2.84008e-09
1.77147e-05
-3.52382e-09
1.77216e-05
-4.17234e-09
1.77281e-05
-4.77618e-09
1.77342e-05
-5.32789e-09
1.77398e-05
-5.82372e-09
-6.25287e-09
1.77451e-05
1.78274e-05
-8.57379e-10
1.78308e-05
-2.42905e-09
1.7836e-05
-3.81704e-09
1.78425e-05
-5.03277e-09
1.78499e-05
-6.07664e-09
1.78579e-05
-6.97367e-09
1.78662e-05
-7.75534e-09
1.78746e-05
-8.44045e-09
1.78829e-05
-9.0385e-09
1.78911e-05
-9.55851e-09
1.78989e-05
-1.00089e-08
1.79065e-05
-1.0396e-08
1.79137e-05
-1.07237e-08
1.79205e-05
-1.0995e-08
1.79269e-05
-1.12124e-08
1.7933e-05
-1.13779e-08
1.79387e-05
-1.14944e-08
-1.15575e-08
1.7944e-05
1.58824e-05
-1.92207e-09
1.58854e-05
-5.44739e-09
1.589e-05
-8.44671e-09
1.58959e-05
-1.08585e-08
1.59025e-05
-1.26965e-08
1.59096e-05
-1.40769e-08
1.5917e-05
-1.51145e-08
1.59244e-05
-1.58763e-08
1.59318e-05
-1.64103e-08
1.5939e-05
-1.6764e-08
1.59459e-05
-1.69781e-08
1.59526e-05
-1.70819e-08
1.5959e-05
-1.70968e-08
1.5965e-05
-1.70389e-08
1.59707e-05
-1.69212e-08
1.59761e-05
-1.67532e-08
1.59812e-05
-1.65435e-08
-1.62922e-08
1.59859e-05
1.41497e-05
-2.91033e-09
1.41525e-05
-8.26438e-09
1.41568e-05
-1.28039e-08
1.41623e-05
-1.63139e-08
1.41684e-05
-1.88263e-08
1.41749e-05
-2.06019e-08
1.41817e-05
-2.18423e-08
1.41884e-05
-2.26455e-08
1.41951e-05
-2.30944e-08
1.42016e-05
-2.32762e-08
1.42079e-05
-2.32612e-08
1.42139e-05
-2.30981e-08
1.42197e-05
-2.2823e-08
1.42251e-05
-2.2464e-08
1.42302e-05
-2.20429e-08
1.4235e-05
-2.15756e-08
1.42396e-05
-2.10744e-08
-2.05432e-08
1.42438e-05
1.26059e-05
-3.82874e-09
1.26087e-05
-1.09806e-08
1.26129e-05
-1.70792e-08
1.26182e-05
-2.15845e-08
1.2624e-05
-2.46367e-08
1.26301e-05
-2.67292e-08
1.26364e-05
-2.81202e-08
1.26427e-05
-2.89151e-08
1.26488e-05
-2.92424e-08
1.26548e-05
-2.92352e-08
1.26605e-05
-2.89882e-08
1.2666e-05
-2.85645e-08
1.26712e-05
-2.80125e-08
1.26761e-05
-2.73711e-08
1.26807e-05
-2.66693e-08
1.26851e-05
-2.5928e-08
1.26892e-05
-2.5163e-08
-2.43809e-08
1.2693e-05
1.12306e-05
-4.61406e-09
1.12333e-05
-1.36619e-08
1.12376e-05
-2.14448e-08
1.12428e-05
-2.67673e-08
1.12484e-05
-3.01902e-08
1.12542e-05
-3.25449e-08
1.12601e-05
-3.40447e-08
1.1266e-05
-3.47792e-08
1.12717e-05
-3.49456e-08
1.12772e-05
-3.47283e-08
1.12824e-05
-3.42398e-08
1.12874e-05
-3.35543e-08
1.12921e-05
-3.27319e-08
1.12966e-05
-3.18204e-08
1.13008e-05
-3.08548e-08
1.13047e-05
-2.98589e-08
1.13084e-05
-2.88498e-08
-2.78339e-08
1.13118e-05
1.00051e-05
-5.13199e-09
1.00078e-05
-1.63383e-08
1.00124e-05
-2.60506e-08
1.00176e-05
-3.19112e-08
1.00229e-05
-3.5525e-08
1.00284e-05
-3.80886e-08
1.0034e-05
-3.96374e-08
1.00395e-05
-4.0259e-08
1.00448e-05
-4.02411e-08
1.00499e-05
-3.98064e-08
1.00547e-05
-3.90742e-08
1.00593e-05
-3.81293e-08
1.00636e-05
-3.70436e-08
1.00677e-05
-3.5874e-08
1.00715e-05
-3.46598e-08
1.0075e-05
-3.34281e-08
1.00784e-05
-3.21984e-08
-3.09815e-08
1.00815e-05
8.91321e-06
-5.24328e-09
8.91599e-06
-1.91191e-08
8.92077e-06
-3.08323e-08
8.92577e-06
-3.69085e-08
8.93094e-06
-4.06966e-08
8.9363e-06
-4.34482e-08
8.94161e-06
-4.49481e-08
8.94674e-06
-4.53887e-08
8.95166e-06
-4.51652e-08
8.95637e-06
-4.45114e-08
8.96084e-06
-4.35405e-08
8.96505e-06
-4.23455e-08
8.96902e-06
-4.10095e-08
8.97274e-06
-3.95969e-08
8.97623e-06
-3.81507e-08
8.9795e-06
-3.66999e-08
8.98256e-06
-3.52606e-08
-3.38306e-08
8.98541e-06
7.93989e-06
-4.4704e-09
7.94346e-06
-2.26865e-08
7.94815e-06
-3.55182e-08
7.95265e-06
-4.14154e-08
7.95762e-06
-4.56664e-08
7.9629e-06
-4.87276e-08
7.9681e-06
-5.01477e-08
7.97309e-06
-5.03715e-08
7.97784e-06
-4.99188e-08
7.98235e-06
-4.90251e-08
7.98661e-06
-4.77996e-08
7.99061e-06
-4.63457e-08
7.99436e-06
-4.4756e-08
7.99786e-06
-4.31009e-08
8.00114e-06
-4.14273e-08
8.00421e-06
-3.97665e-08
8.00709e-06
-3.81445e-08
-3.6574e-08
8.00983e-06
7.07055e-06
-6.93983e-10
7.07639e-06
-2.8526e-08
7.08148e-06
-4.06048e-08
7.08586e-06
-4.57977e-08
7.09084e-06
-5.06427e-08
7.09612e-06
-5.4006e-08
7.10131e-06
-5.53377e-08
7.10631e-06
-5.53762e-08
7.11111e-06
-5.47156e-08
7.11566e-06
-5.35767e-08
7.11994e-06
-5.20808e-08
7.12394e-06
-5.03491e-08
7.12768e-06
-4.84879e-08
7.13115e-06
-4.65729e-08
7.13438e-06
-4.46572e-08
7.13738e-06
-4.27736e-08
7.14018e-06
-4.09369e-08
-3.91026e-08
7.1427e-06
6.29311e-06
8.71243e-09
6.30159e-06
-3.70074e-08
6.30863e-06
-4.76462e-08
6.31509e-06
-5.22579e-08
6.32175e-06
-5.73008e-08
6.32805e-06
-6.03072e-08
6.33383e-06
-6.11209e-08
6.33923e-06
-6.07806e-08
6.34434e-06
-5.98167e-08
6.34912e-06
-5.83653e-08
6.35358e-06
-5.65412e-08
6.35771e-06
-5.44773e-08
6.36151e-06
-5.22906e-08
6.365e-06
-5.00623e-08
6.3682e-06
-4.78536e-08
6.37113e-06
-4.57054e-08
6.37385e-06
-4.36534e-08
-4.17132e-08
6.37646e-06
5.60783e-06
1.57779e-08
5.61537e-06
-4.45481e-08
5.62311e-06
-5.53826e-08
5.63272e-06
-6.18673e-08
5.64339e-06
-6.79715e-08
5.65354e-06
-7.04581e-08
5.6626e-06
-7.01795e-08
5.67057e-06
-6.87491e-08
5.6775e-06
-6.67522e-08
5.68346e-06
-6.43183e-08
5.68848e-06
-6.15637e-08
5.69264e-06
-5.86373e-08
5.696e-06
-5.56524e-08
5.69864e-06
-5.27029e-08
5.70063e-06
-4.98472e-08
5.70208e-06
-4.7149e-08
5.70305e-06
-4.46267e-08
-4.23416e-08
5.70368e-06
5.0423e-06
-2.42173e-08
5.05633e-06
-5.85776e-08
5.0672e-06
-6.62499e-08
5.07698e-06
-7.16466e-08
5.08581e-06
-7.68079e-08
5.09242e-06
-7.70609e-08
5.0959e-06
-7.36626e-08
5.09601e-06
-6.88569e-08
5.09293e-06
-6.36801e-08
5.0871e-06
-5.84816e-08
5.07898e-06
-5.34496e-08
5.06906e-06
-4.87103e-08
5.05773e-06
-4.43251e-08
5.04536e-06
-4.03339e-08
5.03225e-06
-3.67422e-08
5.01868e-06
-3.35731e-08
5.00491e-06
-3.08577e-08
-2.90622e-08
4.99163e-06
4.43233e-06
4.37375e-06
4.3075e-06
4.23586e-06
4.15905e-06
4.08199e-06
4.00833e-06
3.93947e-06
3.87579e-06
3.81731e-06
3.76386e-06
3.71515e-06
3.67082e-06
3.63049e-06
3.59375e-06
3.56017e-06
3.52932e-06
3.50025e-06
5.38666e-09
-5.3885e-09
1.67512e-08
-1.13684e-08
3.02436e-08
-1.34946e-08
4.35272e-08
-1.32869e-08
5.52215e-08
-1.16961e-08
6.46157e-08
-9.39739e-09
7.1448e-08
-6.83375e-09
7.57099e-08
-4.26519e-09
7.7544e-08
-1.83533e-09
7.71732e-08
3.67471e-10
7.49199e-08
2.25229e-09
7.11445e-08
3.77193e-09
6.61662e-08
4.97724e-09
6.02003e-08
5.9621e-09
5.33719e-08
6.82734e-09
4.57032e-08
7.66429e-09
3.71588e-08
8.54297e-09
2.76463e-08
9.50744e-09
1.7064e-08
1.05803e-08
5.30881e-09
1.17495e-08
-7.76991e-09
1.30767e-08
-2.24208e-08
1.46452e-08
-3.88107e-08
1.6388e-08
-5.70948e-08
1.82788e-08
-7.74302e-08
2.03342e-08
-9.99781e-08
2.25432e-08
-1.24859e-07
2.48795e-08
-1.52168e-07
2.73047e-08
-1.81939e-07
2.97717e-08
-2.14169e-07
3.22261e-08
-2.48778e-07
3.46092e-08
-2.85642e-07
3.68603e-08
-3.24579e-07
3.89372e-08
-3.65394e-07
4.08113e-08
-4.07857e-07
4.24633e-08
-4.5174e-07
4.38796e-08
-4.96794e-07
4.50537e-08
-5.42786e-07
4.59889e-08
-5.89483e-07
4.66965e-08
-6.36679e-07
4.71929e-08
-6.84179e-07
4.74987e-08
-7.31818e-07
4.76358e-08
-7.79448e-07
4.76283e-08
-8.26951e-07
4.74994e-08
-8.74224e-07
4.72722e-08
-9.21197e-07
4.69695e-08
-9.67818e-07
4.66201e-08
-1.01408e-06
4.62588e-08
-1.06e-06
4.59142e-08
-1.10559e-06
4.5588e-08
-1.15086e-06
4.52751e-08
-1.19584e-06
4.49739e-08
-1.24052e-06
4.46828e-08
-1.28493e-06
4.43998e-08
-1.32905e-06
4.41237e-08
-1.3729e-06
4.38519e-08
-1.41649e-06
4.35826e-08
-1.4598e-06
4.33127e-08
-1.50284e-06
4.30399e-08
-1.5456e-06
4.27607e-08
-1.58808e-06
4.24725e-08
-1.63025e-06
4.21718e-08
-1.67211e-06
4.18559e-08
-1.71363e-06
4.15212e-08
-1.7548e-06
4.11654e-08
-1.79558e-06
4.07851e-08
-1.83596e-06
4.03782e-08
-1.87591e-06
3.99414e-08
-1.91538e-06
3.9473e-08
-1.95435e-06
3.89702e-08
-1.99278e-06
3.84316e-08
-2.03064e-06
3.78547e-08
-2.06788e-06
3.72385e-08
-2.10446e-06
3.6581e-08
-2.14034e-06
3.58815e-08
-2.17549e-06
3.51385e-08
-2.20984e-06
3.43518e-08
-2.24336e-06
3.352e-08
-2.276e-06
3.26433e-08
-2.30773e-06
3.17209e-08
-2.33848e-06
3.07531e-08
-2.36822e-06
2.97395e-08
-2.3969e-06
2.8681e-08
-2.42448e-06
2.75769e-08
-2.45091e-06
2.64286e-08
-2.47614e-06
2.52356e-08
-2.50014e-06
2.39994e-08
-2.52286e-06
2.27198e-08
-2.54426e-06
2.1398e-08
-2.56429e-06
2.00343e-08
-2.58292e-06
1.86286e-08
-2.60011e-06
1.71803e-08
-2.6158e-06
1.56888e-08
-2.62995e-06
1.41517e-08
-2.64252e-06
1.25655e-08
-2.65345e-06
1.09245e-08
-2.66268e-06
9.22241e-09
-2.67013e-06
7.44935e-09
-2.67573e-06
5.59068e-09
-2.67936e-06
3.62868e-09
-2.68094e-06
1.57607e-09
-2.68049e-06
-4.52899e-10
-2.67821e-06
-2.2797e-09
-2.67427e-06
-3.93807e-09
-2.66871e-06
-5.56247e-09
-2.66154e-06
-7.1783e-09
-2.65274e-06
-8.79624e-09
-2.64233e-06
-1.04178e-08
-2.63029e-06
-1.20417e-08
-2.61662e-06
-1.36669e-08
-2.60133e-06
-1.5291e-08
-2.58442e-06
-1.69123e-08
-2.56589e-06
-1.85285e-08
-2.54576e-06
-2.01379e-08
-2.52402e-06
-2.17379e-08
-2.5007e-06
-2.33272e-08
-2.4758e-06
-2.49031e-08
-2.44933e-06
-2.64641e-08
-2.42133e-06
-2.80077e-08
-2.3918e-06
-2.95325e-08
-2.36077e-06
-3.10359e-08
-2.32825e-06
-3.25167e-08
-2.29428e-06
-3.39721e-08
-2.25888e-06
-3.5401e-08
-2.22208e-06
-3.68007e-08
-2.18391e-06
-3.81702e-08
-2.14441e-06
-3.95067e-08
-2.1036e-06
-4.08094e-08
-2.06152e-06
-4.2076e-08
-2.01822e-06
-4.33064e-08
-1.97372e-06
-4.44996e-08
-1.92806e-06
-4.56564e-08
-1.88128e-06
-4.67738e-08
-1.83343e-06
-4.78536e-08
-1.78454e-06
-4.8894e-08
-1.73465e-06
-4.98859e-08
-1.68382e-06
-5.08303e-08
-1.63208e-06
-5.17354e-08
-1.57948e-06
-5.25969e-08
-1.52607e-06
-5.3412e-08
-1.47189e-06
-5.418e-08
-1.41699e-06
-5.49017e-08
-1.36141e-06
-5.55761e-08
-1.3052e-06
-5.62045e-08
-1.24841e-06
-5.67867e-08
-1.19107e-06
-5.73242e-08
-1.13325e-06
-5.7817e-08
-1.07497e-06
-5.82665e-08
-1.01628e-06
-5.86727e-08
-9.57238e-07
-5.90364e-08
-8.97872e-07
-5.93582e-08
-8.38225e-07
-5.96388e-08
-7.7834e-07
-5.9879e-08
-7.18254e-07
-6.00796e-08
-6.58008e-07
-6.02419e-08
-5.97636e-07
-6.03669e-08
-5.37177e-07
-6.04561e-08
-4.76664e-07
-6.05105e-08
-4.16131e-07
-6.05319e-08
-3.55609e-07
-6.05209e-08
-2.9513e-07
-6.04787e-08
-2.34726e-07
-6.04053e-08
-1.74424e-07
-6.03029e-08
-1.1425e-07
-6.01754e-08
-5.42423e-08
-6.0011e-08
5.48899e-09
-5.97341e-08
6.49803e-08
-5.94954e-08
1.24255e-07
-5.92787e-08
1.83205e-07
-5.89546e-08
2.41824e-07
-5.86237e-08
3.00097e-07
-5.82802e-08
3.5799e-07
-5.78987e-08
4.1542e-07
-5.74381e-08
4.72238e-07
-5.68248e-08
5.28155e-07
-5.5926e-08
5.82604e-07
-5.44566e-08
6.34392e-07
-5.17979e-08
6.80598e-07
-4.62144e-08
7.14368e-07
-3.37776e-08
8.09184e-09
7.06273e-07
1.11116e-08
-1.65022e-08
2.31449e-08
-2.3405e-08
3.21569e-08
-2.25084e-08
3.8189e-08
-1.93208e-08
4.17598e-08
-1.52681e-08
4.32284e-08
-1.08675e-08
4.28087e-08
-6.41511e-09
4.06446e-08
-2.10256e-09
3.68566e-08
1.95176e-09
3.15389e-08
5.6836e-09
2.47218e-08
9.06859e-09
1.63754e-08
1.21169e-08
6.4702e-09
1.48816e-08
-5.023e-09
1.74537e-08
-1.81391e-08
1.99425e-08
-3.29307e-08
2.24543e-08
-4.94665e-08
2.50778e-08
-6.78391e-08
2.78783e-08
-8.81539e-08
3.08941e-08
-1.1055e-07
3.41437e-08
-1.35115e-07
3.76406e-08
-1.6186e-07
4.13886e-08
-1.9084e-07
4.53674e-08
-2.22106e-07
4.95426e-08
-2.55638e-07
5.38652e-08
-2.91364e-07
5.82679e-08
-3.29154e-07
6.26689e-08
-3.68829e-07
6.69782e-08
-4.10164e-07
7.11053e-08
-4.5291e-07
7.49704e-08
-4.96816e-07
7.85149e-08
-5.4165e-07
8.16934e-08
-5.87181e-07
8.44672e-08
-6.33186e-07
8.68151e-08
-6.79456e-07
8.87331e-08
-7.25807e-07
9.02286e-08
-7.72072e-07
9.1319e-08
-8.18121e-07
9.20366e-08
-8.63847e-07
9.24219e-08
-9.09175e-07
9.25187e-08
-9.54048e-07
9.23715e-08
-9.98438e-07
9.2024e-08
-1.04233e-06
9.15179e-08
-1.08572e-06
9.08914e-08
-1.12863e-06
9.01797e-08
-1.17108e-06
8.94151e-08
-1.21309e-06
8.86286e-08
-1.25468e-06
8.78469e-08
-1.29585e-06
8.70861e-08
-1.33661e-06
8.63506e-08
-1.37698e-06
8.56399e-08
-1.41696e-06
8.49525e-08
-1.45656e-06
8.42854e-08
-1.4958e-06
8.36348e-08
-1.53467e-06
8.29963e-08
-1.57319e-06
8.23649e-08
-1.61134e-06
8.17352e-08
-1.64913e-06
8.11015e-08
-1.68655e-06
8.04582e-08
-1.72359e-06
7.97994e-08
-1.76024e-06
7.91193e-08
-1.79648e-06
7.84121e-08
-1.83229e-06
7.76725e-08
-1.86767e-06
7.68948e-08
-1.90258e-06
7.60741e-08
-1.937e-06
7.52055e-08
-1.97091e-06
7.42845e-08
-2.00427e-06
7.33067e-08
-2.03707e-06
7.22683e-08
-2.06927e-06
7.11656e-08
-2.10083e-06
6.99955e-08
-2.13173e-06
6.87549e-08
-2.16194e-06
6.74415e-08
-2.19141e-06
6.60529e-08
-2.22011e-06
6.45873e-08
-2.24802e-06
6.30432e-08
-2.27509e-06
6.14194e-08
-2.30129e-06
5.9715e-08
-2.32657e-06
5.79296e-08
-2.35091e-06
5.60626e-08
-2.37428e-06
5.41142e-08
-2.39662e-06
5.20846e-08
-2.41792e-06
4.99743e-08
-2.43812e-06
4.77838e-08
-2.45721e-06
4.55143e-08
-2.47514e-06
4.31665e-08
-2.49188e-06
4.07419e-08
-2.50741e-06
3.82417e-08
-2.52167e-06
3.56675e-08
-2.53466e-06
3.30205e-08
-2.54633e-06
3.03016e-08
-2.55667e-06
2.75118e-08
-2.56563e-06
2.46521e-08
-2.57321e-06
2.17235e-08
-2.57937e-06
1.87264e-08
-2.58411e-06
1.56624e-08
-2.58743e-06
1.25339e-08
-2.58932e-06
9.34512e-09
-2.58984e-06
6.10448e-09
-2.58905e-06
2.83396e-09
-2.58705e-06
-4.21419e-10
-2.58389e-06
-3.62067e-09
-2.57938e-06
-6.78615e-09
-2.57336e-06
-9.95852e-09
-2.56578e-06
-1.31419e-08
-2.55663e-06
-1.63357e-08
-2.54588e-06
-1.95408e-08
-2.53355e-06
-2.27548e-08
-2.51962e-06
-2.59748e-08
-2.50409e-06
-2.91969e-08
-2.48696e-06
-3.24173e-08
-2.46824e-06
-3.56319e-08
-2.44794e-06
-3.88366e-08
-2.42605e-06
-4.20274e-08
-2.40259e-06
-4.52002e-08
-2.37757e-06
-4.83511e-08
-2.35099e-06
-5.14759e-08
-2.32289e-06
-5.45709e-08
-2.29327e-06
-5.76319e-08
-2.26214e-06
-6.06551e-08
-2.22955e-06
-6.36367e-08
-2.19549e-06
-6.65728e-08
-2.16001e-06
-6.94595e-08
-2.12311e-06
-7.22932e-08
-2.08485e-06
-7.50699e-08
-2.04523e-06
-7.77864e-08
-2.0043e-06
-8.04385e-08
-1.96209e-06
-8.30232e-08
-1.91863e-06
-8.55371e-08
-1.87395e-06
-8.79782e-08
-1.82811e-06
-9.03452e-08
-1.78112e-06
-9.26379e-08
-1.73304e-06
-9.48548e-08
-1.6839e-06
-9.69958e-08
-1.63374e-06
-9.90559e-08
-1.5826e-06
-1.01023e-07
-1.53053e-06
-1.02899e-07
-1.47757e-06
-1.04694e-07
-1.42377e-06
-1.06402e-07
-1.36916e-06
-1.08017e-07
-1.3138e-06
-1.09541e-07
-1.25773e-06
-1.10971e-07
-1.201e-06
-1.12309e-07
-1.14364e-06
-1.13556e-07
-1.08571e-06
-1.14711e-07
-1.02726e-06
-1.15777e-07
-9.68315e-07
-1.16754e-07
-9.08932e-07
-1.17644e-07
-8.49151e-07
-1.18448e-07
-7.89016e-07
-1.19166e-07
-7.28569e-07
-1.19801e-07
-6.6785e-07
-1.20354e-07
-6.069e-07
-1.20826e-07
-5.45758e-07
-1.21219e-07
-4.84463e-07
-1.21535e-07
-4.23052e-07
-1.21776e-07
-3.61561e-07
-1.21946e-07
-3.00024e-07
-1.22047e-07
-2.38473e-07
-1.22081e-07
-1.76942e-07
-1.22052e-07
-1.1546e-07
-1.21961e-07
-5.4054e-08
-1.21812e-07
7.24805e-09
-1.21606e-07
6.84249e-08
-1.21354e-07
1.29457e-07
-1.21044e-07
1.90358e-07
-1.20637e-07
2.51021e-07
-1.20161e-07
3.11365e-07
-1.19626e-07
3.71432e-07
-1.19024e-07
4.31201e-07
-1.18397e-07
4.90644e-07
-1.17727e-07
5.49708e-07
-1.16968e-07
6.08305e-07
-1.16039e-07
6.66276e-07
-1.14801e-07
7.23336e-07
-1.12992e-07
7.78983e-07
-1.10109e-07
8.32212e-07
-1.05033e-07
8.81466e-07
-9.54748e-08
9.23149e-07
-7.54654e-08
-2.7277e-08
9.58514e-07
9.37275e-09
-2.58767e-08
1.58192e-08
-2.98539e-08
1.85795e-08
-2.527e-08
1.85952e-08
-1.93378e-08
1.65335e-08
-1.32072e-08
1.2789e-08
-7.12402e-09
7.56845e-09
-1.19524e-09
9.59342e-10
4.5056e-09
-7.02058e-09
9.93109e-09
-1.64003e-08
1.50624e-08
-2.72409e-08
1.99086e-08
-3.96295e-08
2.45046e-08
-5.36608e-08
2.89124e-08
-6.94246e-08
3.32167e-08
-8.69958e-08
3.75133e-08
-1.06437e-07
4.18946e-08
-1.27797e-07
4.64374e-08
-1.51116e-07
5.11957e-08
-1.76419e-07
5.61968e-08
-2.03718e-07
6.14416e-08
-2.32985e-07
6.69076e-08
-2.64151e-07
7.25537e-08
-2.97106e-07
7.83215e-08
-3.31701e-07
8.41365e-08
-3.67748e-07
8.99116e-08
-4.05033e-07
9.55515e-08
-4.43324e-07
1.0096e-07
-4.82393e-07
1.06046e-07
-5.22021e-07
1.10733e-07
-5.62013e-07
1.14961e-07
-6.02189e-07
1.1869e-07
-6.42391e-07
1.21895e-07
-6.82491e-07
1.24566e-07
-7.22385e-07
1.26708e-07
-7.6199e-07
1.28338e-07
-8.01255e-07
1.29493e-07
-8.40157e-07
1.3022e-07
-8.7869e-07
1.30569e-07
-9.1686e-07
1.30592e-07
-9.54681e-07
1.30339e-07
-9.9217e-07
1.2986e-07
-1.02935e-06
1.29204e-07
-1.06625e-06
1.28411e-07
-1.10288e-06
1.27522e-07
-1.13927e-06
1.26569e-07
-1.17543e-06
1.25582e-07
-1.21139e-06
1.24583e-07
-1.24714e-06
1.23593e-07
-1.28267e-06
1.22621e-07
-1.318e-06
1.21673e-07
-1.35311e-06
1.20749e-07
-1.388e-06
1.19847e-07
-1.42268e-06
1.18965e-07
-1.45714e-06
1.18095e-07
-1.49138e-06
1.17234e-07
-1.52539e-06
1.16373e-07
-1.55916e-06
1.15506e-07
-1.59269e-06
1.14625e-07
-1.62595e-06
1.13722e-07
-1.65894e-06
1.1279e-07
-1.69164e-06
1.1182e-07
-1.72404e-06
1.10806e-07
-1.7561e-06
1.0974e-07
-1.78782e-06
1.08614e-07
-1.81917e-06
1.07422e-07
-1.85013e-06
1.06158e-07
-1.88066e-06
1.04815e-07
-1.91074e-06
1.03388e-07
-1.94034e-06
1.01871e-07
-1.96944e-06
1.0026e-07
-1.99799e-06
9.85503e-08
-2.02598e-06
9.67378e-08
-2.05335e-06
9.48192e-08
-2.08009e-06
9.27914e-08
-2.10616e-06
9.0652e-08
-2.13152e-06
8.83989e-08
-2.15613e-06
8.60304e-08
-2.17996e-06
8.35454e-08
-2.20297e-06
8.0943e-08
-2.22513e-06
7.8223e-08
-2.2464e-06
7.53853e-08
-2.26675e-06
7.24303e-08
-2.28613e-06
6.93588e-08
-2.30452e-06
6.61718e-08
-2.32188e-06
6.28707e-08
-2.33817e-06
5.94572e-08
-2.35336e-06
5.59333e-08
-2.36742e-06
5.23013e-08
-2.38032e-06
4.85637e-08
-2.39202e-06
4.47232e-08
-2.4025e-06
4.07824e-08
-2.41173e-06
3.67442e-08
-2.4197e-06
3.26122e-08
-2.42637e-06
2.83902e-08
-2.43172e-06
2.40831e-08
-2.43576e-06
1.96971e-08
-2.43847e-06
1.52403e-08
-2.43985e-06
1.07232e-08
-2.43991e-06
6.15944e-09
-2.43864e-06
1.56891e-09
-2.43604e-06
-3.02652e-09
-2.43204e-06
-7.62224e-09
-2.42658e-06
-1.22417e-08
-2.41964e-06
-1.69e-08
-2.4112e-06
-2.15915e-08
-2.40122e-06
-2.63096e-08
-2.38971e-06
-3.10489e-08
-2.37667e-06
-3.58037e-08
-2.36207e-06
-4.05683e-08
-2.34593e-06
-4.53367e-08
-2.32825e-06
-5.01029e-08
-2.30902e-06
-5.48609e-08
-2.28825e-06
-5.96046e-08
-2.26595e-06
-6.43279e-08
-2.24213e-06
-6.9025e-08
-2.21679e-06
-7.36898e-08
-2.18995e-06
-7.83164e-08
-2.16163e-06
-8.2899e-08
-2.13183e-06
-8.74317e-08
-2.10058e-06
-9.19087e-08
-2.06789e-06
-9.63245e-08
-2.03379e-06
-1.00673e-07
-1.9983e-06
-1.04949e-07
-1.96145e-06
-1.09147e-07
-1.92326e-06
-1.13262e-07
-1.88376e-06
-1.17287e-07
-1.84298e-06
-1.21218e-07
-1.80095e-06
-1.25049e-07
-1.75771e-06
-1.28776e-07
-1.71329e-06
-1.32395e-07
-1.66773e-06
-1.35904e-07
-1.62107e-06
-1.39302e-07
-1.57334e-06
-1.42587e-07
-1.52458e-06
-1.45759e-07
-1.47482e-06
-1.48809e-07
-1.42412e-06
-1.51727e-07
-1.3725e-06
-1.54513e-07
-1.32003e-06
-1.57172e-07
-1.26672e-06
-1.59703e-07
-1.21264e-06
-1.62098e-07
-1.15783e-06
-1.64357e-07
-1.10232e-06
-1.66478e-07
-1.04617e-06
-1.68462e-07
-9.89409e-07
-1.70311e-07
-9.32093e-07
-1.72025e-07
-8.74261e-07
-1.73605e-07
-8.15958e-07
-1.75053e-07
-7.57227e-07
-1.76372e-07
-6.9811e-07
-1.77561e-07
-6.38649e-07
-1.78624e-07
-5.78885e-07
-1.79562e-07
-5.1886e-07
-1.80378e-07
-4.58611e-07
-1.81072e-07
-3.98179e-07
-1.81649e-07
-3.37602e-07
-1.82111e-07
-2.76915e-07
-1.82462e-07
-2.16153e-07
-1.82706e-07
-1.55352e-07
-1.82847e-07
-9.45428e-08
-1.8289e-07
-3.37545e-08
-1.8284e-07
2.69845e-08
-1.827e-07
8.76456e-08
-1.82473e-07
1.48202e-07
-1.82162e-07
2.08625e-07
-1.81777e-07
2.68894e-07
-1.81313e-07
3.29009e-07
-1.80752e-07
3.88941e-07
-1.80093e-07
4.48653e-07
-1.79338e-07
5.08131e-07
-1.78502e-07
5.67339e-07
-1.77606e-07
6.26238e-07
-1.76626e-07
6.84767e-07
-1.75498e-07
7.42837e-07
-1.7411e-07
8.00297e-07
-1.72262e-07
8.56898e-07
-1.69594e-07
9.1223e-07
-1.65442e-07
9.65647e-07
-1.58452e-07
1.01627e-06
-1.46101e-07
1.06351e-06
-1.22706e-07
-7.56861e-08
1.11192e-06
4.25017e-09
-3.01285e-08
3.95303e-09
-2.95588e-08
9.95749e-10
-2.23138e-08
-3.76757e-09
-1.45755e-08
-9.98323e-09
-6.99225e-09
-1.74779e-08
3.6989e-10
-2.61794e-08
7.50565e-09
-3.60843e-08
1.44098e-08
-4.72347e-08
2.10811e-08
-5.97025e-08
2.75296e-08
-7.35752e-08
3.37809e-08
-8.89485e-08
3.98773e-08
-1.05913e-07
4.58768e-08
-1.24546e-07
5.18485e-08
-1.44897e-07
5.78642e-08
-1.66991e-07
6.39882e-08
-1.90822e-07
7.02678e-08
-2.16354e-07
7.67273e-08
-2.43522e-07
8.33643e-08
-2.72231e-07
9.01495e-08
-3.02353e-07
9.70295e-08
-3.33733e-07
1.03933e-07
-3.66186e-07
1.10775e-07
-3.99516e-07
1.17465e-07
-4.33513e-07
1.23909e-07
-4.67979e-07
1.30016e-07
-5.02726e-07
1.35706e-07
-5.37592e-07
1.40912e-07
-5.72444e-07
1.45584e-07
-6.07172e-07
1.4969e-07
-6.41696e-07
1.53213e-07
-6.75955e-07
1.56154e-07
-7.09915e-07
1.58525e-07
-7.43563e-07
1.60355e-07
-7.76908e-07
1.61683e-07
-8.09974e-07
1.62558e-07
-8.42788e-07
1.63033e-07
-8.7538e-07
1.63161e-07
-9.07781e-07
1.62993e-07
-9.40023e-07
1.6258e-07
-9.72133e-07
1.6197e-07
-1.00413e-06
1.61204e-07
-1.03605e-06
1.60323e-07
-1.06788e-06
1.59359e-07
-1.09966e-06
1.58342e-07
-1.13137e-06
1.57294e-07
-1.16302e-06
1.56235e-07
-1.19461e-06
1.55179e-07
-1.22612e-06
1.54134e-07
-1.25756e-06
1.53105e-07
-1.2889e-06
1.52092e-07
-1.32015e-06
1.51092e-07
-1.35128e-06
1.50102e-07
-1.38231e-06
1.49116e-07
-1.4132e-06
1.48127e-07
-1.44395e-06
1.47126e-07
-1.47455e-06
1.46106e-07
-1.50499e-06
1.45057e-07
-1.53523e-06
1.43971e-07
-1.56528e-06
1.42838e-07
-1.59511e-06
1.41649e-07
-1.6247e-06
1.40396e-07
-1.65403e-06
1.39068e-07
-1.68308e-06
1.37659e-07
-1.71182e-06
1.36158e-07
-1.74022e-06
1.3456e-07
-1.76826e-06
1.32856e-07
-1.79591e-06
1.31039e-07
-1.82314e-06
1.29103e-07
-1.84992e-06
1.27042e-07
-1.87622e-06
1.2485e-07
-1.90201e-06
1.22523e-07
-1.92725e-06
1.20056e-07
-1.9519e-06
1.17446e-07
-1.97594e-06
1.14689e-07
-1.99933e-06
1.11784e-07
-2.02202e-06
1.08727e-07
-2.044e-06
1.05518e-07
-2.06521e-06
1.02155e-07
-2.08562e-06
9.86377e-08
-2.10521e-06
9.49669e-08
-2.12392e-06
9.11429e-08
-2.14173e-06
8.71666e-08
-2.15859e-06
8.30396e-08
-2.17449e-06
7.87638e-08
-2.18937e-06
7.43416e-08
-2.20322e-06
6.97759e-08
-2.21598e-06
6.50699e-08
-2.22765e-06
6.02274e-08
-2.23818e-06
5.52523e-08
-2.24754e-06
5.0149e-08
-2.25572e-06
4.49222e-08
-2.26269e-06
3.95774e-08
-2.26842e-06
3.41211e-08
-2.2729e-06
2.85606e-08
-2.27611e-06
2.29045e-08
-2.27803e-06
1.71629e-08
-2.27866e-06
1.13474e-08
-2.27797e-06
5.47064e-09
-2.27595e-06
-4.53603e-10
-2.27256e-06
-6.41512e-09
-2.26777e-06
-1.2415e-08
-2.26155e-06
-1.84648e-08
-2.25388e-06
-2.45685e-08
-2.24475e-06
-3.07193e-08
-2.23416e-06
-3.69084e-08
-2.22208e-06
-4.31276e-08
-2.20851e-06
-4.93684e-08
-2.19346e-06
-5.56229e-08
-2.17691e-06