/*--------------------------------*- C++ -*----------------------------------*\
| =========                 |                                                 |
| \\      /  F ield         | OpenFOAM: The Open Source CFD Toolbox           |
|  \\    /   O peration     | Version:  4.1                                   |
|   \\  /    A nd           | Web:      www.OpenFOAM.org                      |
|    \\/     M anipulation  |                                                 |
\*---------------------------------------------------------------------------*/
FoamFile
{
    version     2.0;
    format      ascii;
    class       volVectorField;
    location    "298";
    object      U;
}
// * * * * * * * * * * * * * * * * * * * * * * * * * * * * * * * * * * * * * //

dimensions      [0 1 -1 0 0 0 0];

internalField   nonuniform List<vector> 
12225
(
(9.83552 -0.969412 0)
(9.5766 -0.895705 0)
(9.29089 -0.596664 0)
(8.97667 -0.369332 0)
(8.67813 -0.224378 0)
(8.41188 -0.136335 0)
(8.17884 -0.0831773 0)
(7.97625 -0.050746 0)
(7.8009 -0.0308434 0)
(7.64953 -0.0184406 0)
(7.5187 -0.0107254 0)
(7.40532 -0.00594911 0)
(7.30695 -0.00307257 0)
(7.22171 -0.00145646 0)
(7.1477 -0.000650849 0)
(7.0862 -0.00116665 0)
(7.0272 0.0021839 0)
(7.0003 -0.0204062 0)
(10.0744 0.265645 0)
(10.1924 0.434366 0)
(10.2331 0.398403 0)
(10.232 0.321259 0)
(10.2109 0.253708 0)
(10.176 0.201356 0)
(10.127 0.162047 0)
(10.0664 0.132983 0)
(9.99819 0.111432 0)
(9.92591 0.0951362 0)
(9.85187 0.0825529 0)
(9.77782 0.0726119 0)
(9.70489 0.0645485 0)
(9.63416 0.057858 0)
(9.5661 0.051873 0)
(9.50158 0.0470438 0)
(9.44132 0.0402181 0)
(9.38763 0.0399797 0)
(10.0026 0.0614283 0)
(10.0298 0.047487 0)
(10.0597 0.005744 0)
(10.0887 -0.00527933 0)
(10.1149 0.0035043 0)
(10.1381 0.0157562 0)
(10.1557 0.0262865 0)
(10.1671 0.0345687 0)
(10.1732 0.0407527 0)
(10.1749 0.0450753 0)
(10.1732 0.0478692 0)
(10.1685 0.0494705 0)
(10.1616 0.050131 0)
(10.1529 0.0500115 0)
(10.1429 0.0491479 0)
(10.1323 0.0475243 0)
(10.1217 0.0448487 0)
(10.1101 0.0395633 0)
(9.99667 0.00936684 0)
(10.0076 0.0255355 0)
(10.033 0.038552 0)
(10.0549 0.0550839 0)
(10.0719 0.0676218 0)
(10.0873 0.0732802 0)
(10.1012 0.0743404 0)
(10.1132 0.0733233 0)
(10.1235 0.0714304 0)
(10.1326 0.0691414 0)
(10.1406 0.066675 0)
(10.1477 0.0641595 0)
(10.154 0.0616119 0)
(10.1595 0.0589967 0)
(10.1646 0.0561608 0)
(10.1692 0.052934 0)
(10.1734 0.048787 0)
(10.1766 0.0425896 0)
(9.99899 0.00656277 0)
(10.0076 0.0347121 0)
(10.0275 0.0494644 0)
(10.0434 0.0560771 0)
(10.0555 0.0592181 0)
(10.0672 0.0600286 0)
(10.0787 0.0595285 0)
(10.0891 0.058619 0)
(10.0984 0.0576284 0)
(10.107 0.0565618 0)
(10.1151 0.0553862 0)
(10.1227 0.0540814 0)
(10.1298 0.0526116 0)
(10.1366 0.0509076 0)
(10.1432 0.0488383 0)
(10.1495 0.0462309 0)
(10.1554 0.0427558 0)
(10.1605 0.0381517 0)
(10.0002 0.00923434 0)
(10.0077 0.033443 0)
(10.0232 0.0443704 0)
(10.0364 0.0485812 0)
(10.0473 0.0518786 0)
(10.0579 0.0542805 0)
(10.0683 0.0553849 0)
(10.0778 0.0555946 0)
(10.0863 0.0552889 0)
(10.0943 0.0546072 0)
(10.1018 0.0536063 0)
(10.1089 0.0523302 0)
(10.1157 0.0507903 0)
(10.1222 0.0489551 0)
(10.1285 0.0467381 0)
(10.1345 0.0440201 0)
(10.1401 0.0406494 0)
(10.145 0.0365428 0)
(10.0004 0.00903062 0)
(10.0067 0.028078 0)
(10.0193 0.0384054 0)
(10.0314 0.0436701 0)
(10.0417 0.0477684 0)
(10.0516 0.0506178 0)
(10.0612 0.051909 0)
(10.0701 0.052133 0)
(10.0781 0.0517702 0)
(10.0857 0.0510186 0)
(10.0928 0.049952 0)
(10.0996 0.048613 0)
(10.1061 0.0470159 0)
(10.1122 0.0451339 0)
(10.1182 0.0429069 0)
(10.1238 0.0402561 0)
(10.1289 0.0371152 0)
(10.1334 0.0334766 0)
(10.0004 0.0080276 0)
(10.0058 0.0241691 0)
(10.0166 0.0345211 0)
(10.0277 0.0402788 0)
(10.0375 0.0443021 0)
(10.0469 0.0469936 0)
(10.056 0.0482806 0)
(10.0645 0.0485818 0)
(10.0723 0.0483097 0)
(10.0797 0.0476408 0)
(10.0866 0.0466428 0)
(10.0932 0.0453554 0)
(10.0994 0.0437968 0)
(10.1054 0.0419518 0)
(10.111 0.0397846 0)
(10.1163 0.0372511 0)
(10.1211 0.0343327 0)
(10.1254 0.0310642 0)
(10.0004 0.00717549 0)
(10.0051 0.021392 0)
(10.0144 0.0312982 0)
(10.0246 0.0370691 0)
(10.034 0.0409568 0)
(10.0429 0.0435758 0)
(10.0516 0.0449316 0)
(10.0598 0.0453442 0)
(10.0675 0.045165 0)
(10.0746 0.0445658 0)
(10.0814 0.0436196 0)
(10.0878 0.0423704 0)
(10.0939 0.0408432 0)
(10.0997 0.039035 0)
(10.1051 0.0369295 0)
(10.1102 0.0345087 0)
(10.1148 0.0317807 0)
(10.1189 0.0288006 0)
(10.0004 0.00636148 0)
(10.0045 0.0187493 0)
(10.0124 0.0278676 0)
(10.0216 0.0334832 0)
(10.0303 0.0372462 0)
(10.0388 0.0397995 0)
(10.047 0.0412051 0)
(10.055 0.0417069 0)
(10.0624 0.0416041 0)
(10.0694 0.0410664 0)
(10.076 0.0401723 0)
(10.0822 0.0389699 0)
(10.0882 0.0374898 0)
(10.0938 0.0357417 0)
(10.099 0.0337262 0)
(10.1039 0.0314466 0)
(10.1082 0.0289281 0)
(10.1122 0.0262353 0)
(10.0004 0.00553582 0)
(10.0038 0.0161421 0)
(10.0106 0.0243111 0)
(10.0187 0.0296518 0)
(10.0268 0.0332443 0)
(10.0347 0.035676 0)
(10.0425 0.0370713 0)
(10.05 0.0376224 0)
(10.0571 0.0375757 0)
(10.0639 0.0370916 0)
(10.0703 0.0362522 0)
(10.0764 0.0351078 0)
(10.0821 0.0336937 0)
(10.0875 0.0320306 0)
(10.0925 0.0301335 0)
(10.0972 0.0280213 0)
(10.1014 0.0257282 0)
(10.1052 0.02332 0)
(10.0003 0.00469351 0)
(10.0033 0.0135964 0)
(10.0089 0.0207114 0)
(10.016 0.0256202 0)
(10.0234 0.0289547 0)
(10.0307 0.0312002 0)
(10.038 0.0325245 0)
(10.0451 0.0330832 0)
(10.0519 0.03307 0)
(10.0583 0.0326289 0)
(10.0645 0.0318427 0)
(10.0703 0.0307636 0)
(10.0758 0.029431 0)
(10.081 0.0278741 0)
(10.0858 0.0261184 0)
(10.0902 0.0241924 0)
(10.0943 0.0221331 0)
(10.0979 0.0200024 0)
(10.0003 0.00385274 0)
(10.0027 0.01113 0)
(10.0075 0.0171089 0)
(10.0136 0.0214203 0)
(10.0203 0.0243928 0)
(10.027 0.0263862 0)
(10.0337 0.0275762 0)
(10.0403 0.0280927 0)
(10.0467 0.0280826 0)
(10.0528 0.0276686 0)
(10.0587 0.0269303 0)
(10.0642 0.0259211 0)
(10.0695 0.0246825 0)
(10.0744 0.0232489 0)
(10.079 0.0216517 0)
(10.0832 0.0199235 0)
(10.0871 0.0180999 0)
(10.0906 0.016236 0)
(10.0002 0.00302636 0)
(10.0023 0.00873796 0)
(10.0063 0.0135231 0)
(10.0116 0.0170904 0)
(10.0175 0.0195872 0)
(10.0236 0.0212513 0)
(10.0297 0.0222365 0)
(10.0359 0.022651 0)
(10.0419 0.0226047 0)
(10.0476 0.022196 0)
(10.0532 0.021497 0)
(10.0584 0.0205589 0)
(10.0634 0.019423 0)
(10.0681 0.0181248 0)
(10.0724 0.0166969 0)
(10.0765 0.015172 0)
(10.0802 0.0135813 0)
(10.0836 0.0119719 0)
(10.0002 0.00221796 0)
(10.0019 0.00640518 0)
(10.0053 0.00995562 0)
(10.0099 0.0126569 0)
(10.0151 0.01456 0)
(10.0206 0.0158054 0)
(10.0262 0.0165086 0)
(10.0319 0.0167549 0)
(10.0375 0.0166246 0)
(10.0429 0.0161922 0)
(10.0481 0.0155171 0)
(10.0531 0.014645 0)
(10.0578 0.0136133 0)
(10.0622 0.0124549 0)
(10.0664 0.0111999 0)
(10.0702 0.00987721 0)
(10.0738 0.00851231 0)
(10.0771 0.00714413 0)
(10.0002 0.00142218 0)
(10.0016 0.00410347 0)
(10.0045 0.00638066 0)
(10.0085 0.00811149 0)
(10.0132 0.00930485 0)
(10.0182 0.0100338 0)
(10.0233 0.0103725 0)
(10.0286 0.0103802 0)
(10.0338 0.0101117 0)
(10.0388 0.00961829 0)
(10.0438 0.00894396 0)
(10.0484 0.00812455 0)
(10.0529 0.00719019 0)
(10.0571 0.00616765 0)
(10.0611 0.00508124 0)
(10.0648 0.00395378 0)
(10.0682 0.00280432 0)
(10.0714 0.00166346 0)
(10.0002 0.000623084 0)
(10.0014 0.00178383 0)
(10.004 0.00273677 0)
(10.0075 0.00340104 0)
(10.0118 0.00377354 0)
(10.0163 0.00388529 0)
(10.0212 0.00377283 0)
(10.026 0.00346835 0)
(10.0309 0.00300232 0)
(10.0357 0.00240395 0)
(10.0404 0.00169936 0)
(10.0449 0.000911 0)
(10.0491 5.84329e-05 0)
(10.0532 -0.000840608 0)
(10.057 -0.00176999 0)
(10.0605 -0.00271456 0)
(10.0639 -0.00366243 0)
(10.067 -0.0045913 0)
(10.0001 -0.000158965 0)
(10.0013 -0.000491089 0)
(10.0037 -0.000860175 0)
(10.0071 -0.00129187 0)
(10.0111 -0.00178589 0)
(10.0154 -0.00233901 0)
(10.02 -0.00294786 0)
(10.0247 -0.00360664 0)
(10.0294 -0.00430714 0)
(10.0341 -0.00504119 0)
(10.0386 -0.00580142 0)
(10.0429 -0.00658079 0)
(10.0471 -0.00737214 0)
(10.051 -0.00816833 0)
(10.0547 -0.00896238 0)
(10.0582 -0.00974738 0)
(10.0615 -0.0105183 0)
(10.0646 -0.0112606 0)
(10.0001 -0.000875541 0)
(10.0013 -0.00258215 0)
(10.0037 -0.0041819 0)
(10.0071 -0.00564151 0)
(10.0111 -0.00694804 0)
(10.0154 -0.00812463 0)
(10.02 -0.00920135 0)
(10.0247 -0.0101965 0)
(10.0294 -0.0111215 0)
(10.034 -0.0119882 0)
(10.0385 -0.0128071 0)
(10.0428 -0.013586 0)
(10.0469 -0.0143298 0)
(10.0508 -0.0150417 0)
(10.0545 -0.0157236 0)
(10.058 -0.016376 0)
(10.0613 -0.0169999 0)
(10.0644 -0.0175873 0)
(10.0001 -0.00152597 0)
(10.0014 -0.00449544 0)
(10.0039 -0.00723603 0)
(10.0074 -0.00962975 0)
(10.0116 -0.0116531 0)
(10.0162 -0.0133738 0)
(10.0209 -0.0148569 0)
(10.0257 -0.0161378 0)
(10.0304 -0.0172464 0)
(10.0351 -0.0182164 0)
(10.0396 -0.0190768 0)
(10.044 -0.0198484 0)
(10.0482 -0.0205463 0)
(10.0521 -0.0211825 0)
(10.0558 -0.0217662 0)
(10.0594 -0.0223043 0)
(10.0627 -0.0228025 0)
(10.0658 -0.0232572 0)
(10.0002 -0.0021289 0)
(10.0015 -0.00631946 0)
(10.0042 -0.0101812 0)
(10.0081 -0.013431 0)
(10.0126 -0.016065 0)
(10.0174 -0.0182501 0)
(10.0223 -0.0200864 0)
(10.0273 -0.0216079 0)
(10.0323 -0.0228588 0)
(10.0371 -0.0238978 0)
(10.0418 -0.0247736 0)
(10.0462 -0.0255198 0)
(10.0504 -0.0261613 0)
(10.0544 -0.0267188 0)
(10.0582 -0.0272084 0)
(10.0618 -0.027642 0)
(10.0651 -0.0280291 0)
(10.0683 -0.0283704 0)
(10.0001 -0.00267011 0)
(10.0015 -0.00808959 0)
(10.0046 -0.0131277 0)
(10.009 -0.0171763 0)
(10.0139 -0.0203088 0)
(10.0191 -0.0228627 0)
(10.0243 -0.0249757 0)
(10.0295 -0.0266784 0)
(10.0347 -0.0280333 0)
(10.0397 -0.0291194 0)
(10.0445 -0.0299958 0)
(10.0491 -0.0307042 0)
(10.0534 -0.0312789 0)
(10.0575 -0.0317491 0)
(10.0613 -0.0321378 0)
(10.065 -0.0324617 0)
(10.0684 -0.0327334 0)
(10.0715 -0.0329558 0)
(10.0001 -0.00312011 0)
(10.0014 -0.00983069 0)
(10.0049 -0.0160631 0)
(10.01 -0.0208327 0)
(10.0155 -0.0244531 0)
(10.021 -0.0273725 0)
(10.0265 -0.0296855 0)
(10.0321 -0.031457 0)
(10.0375 -0.0328243 0)
(10.0427 -0.0339012 0)
(10.0477 -0.0347494 0)
(10.0524 -0.0354105 0)
(10.0568 -0.035924 0)
(10.061 -0.036324 0)
(10.0649 -0.0366369 0)
(10.0686 -0.0368812 0)
(10.0721 -0.0370716 0)
(10.0753 -0.0372147 0)
(9.99998 -0.00341719 0)
(10.0011 -0.0119092 0)
(10.0052 -0.0191164 0)
(10.0111 -0.0240788 0)
(10.0171 -0.0280879 0)
(10.023 -0.0315536 0)
(10.0289 -0.0342192 0)
(10.0348 -0.036108 0)
(10.0405 -0.0374637 0)
(10.0459 -0.0384656 0)
(10.0511 -0.0391976 0)
(10.0559 -0.0397172 0)
(10.0605 -0.0400783 0)
(10.0649 -0.040326 0)
(10.0689 -0.0404922 0)
(10.0727 -0.0405994 0)
(10.0762 -0.0406618 0)
(10.0796 -0.0406797 0)
(9.99968 -0.00290465 0)
(10.0004 -0.0149527 0)
(10.0055 -0.0236362 0)
(10.0121 -0.0278943 0)
(10.0183 -0.0313168 0)
(10.0246 -0.0347997 0)
(10.0311 -0.037744 0)
(10.0377 -0.0399652 0)
(10.0439 -0.0416313 0)
(10.0497 -0.0428807 0)
(10.0552 -0.0437825 0)
(10.0604 -0.0444008 0)
(10.0653 -0.0448026 0)
(10.0699 -0.0450458 0)
(10.0741 -0.0451736 0)
(10.0781 -0.0452171 0)
(10.0819 -0.0452009 0)
(10.0854 -0.0451349 0)
(9.99821 0.000592148 0)
(9.99708 -0.0155544 0)
(10.0047 -0.0287583 0)
(10.0134 -0.0348572 0)
(10.0202 -0.0379006 0)
(10.0269 -0.0398821 0)
(10.0343 -0.0412321 0)
(10.0416 -0.0422471 0)
(10.0486 -0.0431043 0)
(10.0552 -0.0438286 0)
(10.0615 -0.0444004 0)
(10.0673 -0.0448365 0)
(10.0728 -0.0451626 0)
(10.0779 -0.0454091 0)
(10.0826 -0.0455944 0)
(10.087 -0.0457352 0)
(10.0911 -0.0458384 0)
(10.0949 -0.0458773 0)
(9.99426 0.003483 0)
(9.98933 -0.00613936 0)
(10.0009 -0.0207072 0)
(10.0149 -0.0364003 0)
(10.0259 -0.0489328 0)
(10.0356 -0.0564399 0)
(10.0451 -0.0601335 0)
(10.054 -0.0617454 0)
(10.0624 -0.0622797 0)
(10.0702 -0.0621276 0)
(10.0775 -0.0615318 0)
(10.0844 -0.0606623 0)
(10.0907 -0.0596635 0)
(10.0965 -0.0586175 0)
(10.1018 -0.0575914 0)
(10.1066 -0.0566163 0)
(10.1111 -0.0557204 0)
(10.1152 -0.0548556 0)
(9.99386 -0.026739 0)
(9.99317 -0.0111623 0)
(10.0051 0.0200674 0)
(10.0223 0.0291689 0)
(10.0409 0.0216051 0)
(10.0596 0.00984884 0)
(10.0771 -0.00113349 0)
(10.0925 -0.0107607 0)
(10.1057 -0.0189936 0)
(10.1171 -0.0258255 0)
(10.1269 -0.0313189 0)
(10.135 -0.0356818 0)
(10.1417 -0.0391035 0)
(10.147 -0.0417771 0)
(10.1512 -0.0438535 0)
(10.1542 -0.0454859 0)
(10.1563 -0.046794 0)
(10.1575 -0.0478786 0)
(10.0315 -0.194356 0)
(10.095 -0.342879 0)
(10.1268 -0.333269 0)
(10.1423 -0.283864 0)
(10.1578 -0.23771 0)
(10.1738 -0.200026 0)
(10.1851 -0.169837 0)
(10.189 -0.146068 0)
(10.1858 -0.127493 0)
(10.1767 -0.112808 0)
(10.1625 -0.101042 0)
(10.1443 -0.0914878 0)
(10.1229 -0.083662 0)
(10.0991 -0.0771844 0)
(10.0735 -0.0717958 0)
(10.0468 -0.0673258 0)
(10.0193 -0.0636321 0)
(9.9918 -0.0609863 0)
(9.93978 0.728688 0)
(9.86951 0.713946 0)
(9.75687 0.510157 0)
(9.59844 0.343061 0)
(9.42179 0.22625 0)
(9.24557 0.147344 0)
(9.07613 0.0943799 0)
(8.91599 0.0585551 0)
(8.7669 0.0341425 0)
(8.62966 0.01749 0)
(8.5041 0.00619979 0)
(8.38959 -0.00137297 0)
(8.28531 -0.00633175 0)
(8.19047 -0.00952901 0)
(8.10411 -0.0114877 0)
(8.02542 -0.0126062 0)
(7.95322 -0.0132145 0)
(7.88718 -0.0138603 0)
(0.00204265 -0.00356926 0)
(0.00970698 -0.0105753 0)
(0.0205573 -0.0153865 0)
(0.0326836 -0.0171462 0)
(0.0439671 -0.0163803 0)
(0.053427 -0.014075 0)
(0.0606792 -0.0110581 -4.01865e-19)
(0.0656299 -0.00785603 3.88031e-19)
(0.0683637 -0.00476145 0)
(0.0690555 -0.00194756 3.77391e-19)
(0.0678104 0.000428977 0)
(0.0650857 0.00227438 0)
(0.0611836 0.00363045 0)
(0.0563235 0.00462953 -3.87132e-19)
(0.0506544 0.00542959 0)
(0.0442407 0.00617326 0)
(0.0370717 0.00697248 4.17476e-19)
(0.0290872 0.00790542 0)
(0.0201996 0.00901256 0)
(0.0102893 0.0102593 0)
(-0.000770688 0.0114765 -4.77126e-19)
(-0.0131201 0.0125302 0)
(-0.026938 0.0135323 -4.03845e-19)
(-0.042388 0.0146279 0)
(-0.0596191 0.0158855 0)
(-0.0787795 0.017332 -3.00438e-19)
(-0.0999991 0.0189776 0)
(-0.123379 0.0208146 2.47248e-19)
(-0.148986 0.0228126 0)
(-0.176845 0.0249127 -2.0459e-19)
(-0.206923 0.0270289 0)
(-0.239116 0.0290702 0)
(-0.273295 0.0309868 0)
(-0.309292 0.0327381 0)
(-0.346919 0.0342903 0)
(-0.385969 0.0356191 1.24315e-19)
(-0.426231 0.0367126 0)
(-0.467488 0.0375643 -2.16951e-19)
(-0.50953 0.0381793 0)
(-0.552163 0.0385699 1.92118e-19)
(-0.595207 0.0387541 0)
(-0.638501 0.0387528 0)
(-0.681902 0.0385897 -1.64156e-19)
(-0.72529 0.0382894 0)
(-0.768571 0.0378801 -1.49981e-19)
(-0.811677 0.0373955 1.43904e-19)
(-0.854551 0.036877 0)
(-0.89713 0.0363649 1.33338e-19)
(-0.939433 0.0358828 1.28702e-19)
(-0.981515 0.0354245 0)
(-1.02337 0.0349821 0)
(-1.065 0.0345556 0)
(-1.10643 0.034143 0)
(-1.14766 0.0337432 0)
(-1.1887 0.033355 -1.07427e-19)
(-1.22955 0.0329765 0)
(-1.27022 0.0326062 1.02098e-19)
(-1.31071 0.0322417 0)
(-1.35101 0.031881 0)
(-1.39113 0.0315215 -9.52145e-20)
(-1.43106 0.0311611 0)
(-1.47078 0.0307971 9.12182e-20)
(-1.51029 0.0304276 0)
(-1.54957 0.0300499 0)
(-1.5886 0.0296623 0)
(-1.62737 0.0292625 -8.43187e-20)
(-1.66584 0.0288489 0)
(-1.70399 0.0284195 0)
(-1.7418 0.0279732 -7.98898e-20)
(-1.77922 0.0275083 0)
(-1.81624 0.0270238 -7.72146e-20)
(-1.85282 0.0265186 0)
(-1.88892 0.0259921 0)
(-1.92449 0.0254432 0)
(-1.95952 0.024872 7.23862e-20)
(-1.99394 0.0242775 0)
(-2.02773 0.0236602 0)
(-2.06084 0.0230194 6.91181e-20)
(-2.09322 0.0223557 6.80808e-20)
(-2.12484 0.0216689 0)
(-2.15565 0.0209596 6.60691e-20)
(-2.18561 0.0202278 0)
(-2.21467 0.0194743 1.28251e-19)
(-2.2428 0.0186993 0)
(-2.26993 0.0179036 1.24467e-19)
(-2.29604 0.0170875 0)
(-2.32109 0.0162519 -1.20751e-19)
(-2.34501 0.015397 0)
(-2.36778 0.0145233 0)
(-2.38936 0.0136305 0)
(-2.40969 0.012718 1.1341e-19)
(-2.42875 0.0117843 0)
(-2.44648 0.0108273 -1.09728e-19)
(-2.46284 0.00984342 0)
(-2.47779 0.00882755 1.06008e-19)
(-2.49127 0.00777253 1.04127e-19)
(-2.50322 0.00666932 1.02229e-19)
(-2.51358 0.00550743 0)
(-2.52226 0.00428152 0)
(-2.52919 0.0030078 0)
(-2.53428 0.00174731 0)
(-2.5374 0.00059936 0)
(-2.5386 -0.000382716 0)
(-2.53832 -0.00126939 0)
(-2.53648 -0.00213442 0)
(-2.53313 -0.00298867 -8.3878e-20)
(-2.52825 -0.00383765 -8.16148e-20)
(-2.52184 -0.00468184 0)
(-2.51389 -0.00552096 0)
(-2.50439 -0.00635446 0)
(-2.49334 -0.00718146 -7.1988e-20)
(-2.48074 -0.00800134 0)
(-2.46657 -0.00881317 0)
(-2.45085 -0.00961638 0)
(-2.43358 -0.0104101 0)
(-2.41475 -0.0111937 5.84746e-20)
(-2.39438 -0.0119664 0)
(-2.37247 -0.0127278 0)
(-2.34903 -0.013477 -4.94507e-20)
(-2.32408 -0.0142136 4.62729e-20)
(-2.29762 -0.0149368 0)
(-2.26967 -0.0156464 3.96438e-20)
(-2.24026 -0.0163414 0)
(-2.20939 -0.0170218 -3.26272e-20)
(-2.1771 -0.0176867 0)
(-2.14339 -0.0183359 0)
(-2.1083 -0.0189687 0)
(-2.07186 -0.0195854 0)
(-2.03408 -0.0201854 0)
(-1.99501 -0.0207694 1.78681e-20)
(-1.95466 -0.0213377 9.10113e-21)
(-1.91307 -0.0218914 0)
(-1.87028 -0.0224272 0)
(-1.82631 -0.022947 0)
(-1.78119 -0.0234503 2.88752e-20)
(-1.73497 -0.0239358 0)
(-1.68768 -0.0244073 0)
(-1.63935 -0.0248636 0)
(-1.59003 -0.0253033 7.22387e-20)
(-1.53976 -0.0257279 -8.40588e-20)
(-1.48857 -0.0261372 0)
(-1.43652 -0.0265323 0)
(-1.38362 -0.0269134 -1.22247e-19)
(-1.32993 -0.0272818 -1.3598e-19)
(-1.27549 -0.027638 0)
(-1.22034 -0.0279835 0)
(-1.16451 -0.028319 1.80669e-19)
(-1.10805 -0.0286457 -1.96865e-19)
(-1.051 -0.0289641 0)
(-0.993391 -0.0292752 0)
(-0.935269 -0.0295799 -2.50042e-19)
(-0.876668 -0.0298792 0)
(-0.817625 -0.0301738 0)
(-0.758177 -0.0304648 -3.11443e-19)
(-0.698359 -0.0307533 0)
(-0.638204 -0.0310404 -3.58023e-19)
(-0.577748 -0.0313274 0)
(-0.51702 -0.0316157 0)
(-0.456054 -0.0319066 0)
(-0.394877 -0.0322008 4.68833e-19)
(-0.333519 -0.0324993 0)
(-0.272009 -0.0328041 0)
(-0.210375 -0.0331219 0)
(-0.148644 -0.0334711 0)
(-0.0868412 -0.0338282 0)
(-0.0250394 -0.0340245 0)
(0.0366774 -0.0336249 7.06152e-19)
(0.0984019 -0.0327665 6.87922e-19)
(0.160095 -0.031901 0)
(0.221699 -0.0310823 0)
(0.283196 -0.030302 0)
(0.344561 -0.0295447 -6.28451e-19)
(0.405742 -0.0287893 0)
(0.466617 -0.0280029 1.20902e-18)
(0.527004 -0.0271282 -1.18762e-18)
(0.586335 -0.0260551 -1.16818e-18)
(0.644323 -0.0245265 1.15147e-18)
(0.696498 -0.0219228 -1.13929e-18)
(0.748176 -0.0169167 1.13753e-18)
(0.750861 -0.000274076 0)
(0.00500767 -0.0208849 0)
(0.0161414 -0.0347936 0)
(0.0250726 -0.036672 5.58946e-19)
(0.0314919 -0.0335142 0)
(0.0357395 -0.0280296 -3.53793e-19)
(0.0379889 -0.0214976 -3.20013e-19)
(0.0384541 -0.014694 -1.50708e-19)
(0.0373068 -0.00809681 -1.45566e-19)
(0.0346623 -0.00198319 0)
(0.0306243 0.00349161 -1.40706e-19)
(0.0252843 0.00822564 0)
(0.0185756 0.012208 0)
(0.0104845 0.0155592 2.80181e-19)
(0.000989258 0.0184683 1.39452e-19)
(-0.00993775 0.0211432 -2.71896e-19)
(-0.0223354 0.0237761 -2.61978e-19)
(-0.0362582 0.0265182 -1.26147e-19)
(-0.0517814 0.0294708 0)
(-0.0690042 0.0326915 0)
(-0.0880445 0.0362086 0)
(-0.108997 0.0400238 -1.07181e-19)
(-0.131909 0.0441176 0)
(-0.156823 0.0484845 2.96127e-19)
(-0.183791 0.0531201 0)
(-0.212832 0.0579878 0)
(-0.24391 0.0630125 8.63789e-20)
(-0.276938 0.0680895 0)
(-0.31178 0.0730958 -7.84765e-20)
(-0.348259 0.0779071 -1.49161e-19)
(-0.386158 0.082419 7.1025e-20)
(-0.425246 0.0865595 0)
(-0.465314 0.0902591 0)
(-0.506159 0.0934524 0)
(-0.547575 0.0961097 -1.16384e-19)
(-0.589368 0.0982246 -1.11099e-19)
(-0.631364 0.0997985 -5.31847e-20)
(-0.673401 0.100844 0)
(-0.715349 0.101404 9.77281e-20)
(-0.757099 0.101528 0)
(-0.798572 0.101274 -9.04217e-20)
(-0.83971 0.100697 0)
(-0.880475 0.0998561 0)
(-0.920847 0.0988038 8.15093e-20)
(-0.96082 0.0975898 0)
(-1.0004 0.0962595 2.29733e-19)
(-1.03961 0.0948556 -7.45045e-20)
(-1.07847 0.0934229 0)
(-1.117 0.0920041 -7.06383e-20)
(-1.1552 0.090628 -6.88941e-20)
(-1.19309 0.0892987 0)
(-1.23067 0.0880118 0)
(-1.26795 0.0867643 0)
(-1.30494 0.0855525 0)
(-1.34164 0.0843719 0)
(-1.37808 0.0832182 6.03696e-20)
(-1.41424 0.0820863 1.18119e-19)
(-1.45014 0.080971 -5.80835e-20)
(-1.48576 0.0798668 0)
(-1.52111 0.0787684 1.11722e-19)
(-1.55618 0.0776702 -5.47468e-20)
(-1.59095 0.0765671 0)
(-1.62542 0.0754537 -5.31885e-20)
(-1.65957 0.0743253 0)
(-1.69338 0.0731772 0)
(-1.72684 0.0720054 -1.01085e-19)
(-1.75992 0.0708057 4.98951e-20)
(-1.79261 0.069575 -9.80107e-20)
(-1.82486 0.0683097 9.65422e-20)
(-1.85667 0.0670075 4.76852e-20)
(-1.88801 0.0656658 0)
(-1.91883 0.0642828 4.63074e-20)
(-1.94912 0.0628568 0)
(-1.97885 0.0613867 0)
(-2.00797 0.0598714 0)
(-2.03647 0.0583107 4.35006e-20)
(-2.0643 0.056704 0)
(-2.09143 0.0550519 8.47866e-20)
(-2.11783 0.0533543 -1.25489e-19)
(-2.14346 0.0516123 -4.1303e-20)
(-2.16829 0.0498263 0)
(-2.19228 0.0479977 -4.01282e-20)
(-2.21541 0.0461276 0)
(-2.23762 0.0442176 -7.79325e-20)
(-2.2589 0.0422691 0)
(-2.2792 0.040284 -7.56186e-20)
(-2.29849 0.0382636 1.48651e-19)
(-2.31674 0.0362102 7.33e-20)
(-2.33391 0.0341256 0)
(-2.34998 0.0320118 0)
(-2.3649 0.0298705 0)
(-2.37866 0.0277028 -6.8594e-20)
(-2.39121 0.0255097 0)
(-2.40254 0.0232922 6.61815e-20)
(-2.41261 0.0210503 0)
(-2.4214 0.0187836 -1.91074e-19)
(-2.42889 0.0164912 -6.24569e-20)
(-2.43507 0.0141719 -6.11826e-20)
(-2.43994 0.0118224 0)
(-2.44351 0.00943677 0)
(-2.44582 0.0070163 0)
(-2.44696 0.00459363 0)
(-2.44702 0.00224786 0)
(-2.44602 4.56756e-05 -1.06314e-19)
(-2.44359 -0.00205443 -1.03453e-19)
(-2.43972 -0.00411492 0)
(-2.43437 -0.00614719 4.86931e-20)
(-2.42751 -0.00815742 4.71766e-20)
(-2.41915 -0.0101458 0)
(-2.40927 -0.0121109 8.84189e-20)
(-2.39787 -0.0140512 0)
(-2.38493 -0.0159642 -4.11904e-20)
(-2.37046 -0.0178483 0)
(-2.35446 -0.019701 0)
(-2.33691 -0.0215207 7.20549e-20)
(-2.31784 -0.0233052 0)
(-2.29723 -0.0250529 -3.23186e-20)
(-2.2751 -0.0267618 0)
(-2.25146 -0.0284306 0)
(-2.2263 -0.0300573 -2.74091e-20)
(-2.19965 -0.0316407 -2.49749e-20)
(-2.17152 -0.0331791 0)
(-2.14192 -0.0346713 2.17559e-20)
(-2.11086 -0.0361158 0)
(-2.07838 -0.0375116 -1.78372e-20)
(-2.04448 -0.0388573 -3.09653e-20)
(-2.00919 -0.040152 0)
(-1.97253 -0.0413944 0)
(-1.93453 -0.042584 0)
(-1.89521 -0.0437199 0)
(-1.85461 -0.0448023 -9.10401e-21)
(-1.81275 -0.0458316 -1.57425e-20)
(-1.76966 -0.0468091 0)
(-1.72538 -0.0477348 0)
(-1.67994 -0.0486104 0)
(-1.63336 -0.0494344 -1.35212e-20)
(-1.58569 -0.0501983 0)
(-1.53696 -0.0509056 0)
(-1.4872 -0.0515654 5.36942e-20)
(-1.43647 -0.0521747 3.07417e-20)
(-1.38478 -0.0527314 3.76017e-20)
(-1.3322 -0.0532361 0)
(-1.27874 -0.0536907 0)
(-1.22445 -0.0540958 5.27453e-20)
(-1.16938 -0.0544533 -5.58543e-20)
(-1.11356 -0.0547645 0)
(-1.05703 -0.0550313 0)
(-0.999827 -0.0552554 -7.37578e-20)
(-0.941998 -0.0554385 2.35343e-19)
(-0.883578 -0.0555821 0)
(-0.824606 -0.0556878 0)
(-0.76512 -0.0557572 9.57269e-20)
(-0.705158 -0.055792 0)
(-0.644756 -0.0557939 2.11947e-19)
(-0.58395 -0.0557648 -1.10625e-19)
(-0.522775 -0.0557065 0)
(-0.461266 -0.0556212 1.24573e-19)
(-0.399455 -0.0555109 2.58811e-19)
(-0.337376 -0.0553775 0)
(-0.275058 -0.0552233 0)
(-0.212531 -0.0550502 -1.48784e-19)
(-0.149822 -0.0548591 0)
(-0.0869597 -0.0546508 3.20259e-19)
(-0.0239714 -0.0544254 0)
(0.0391266 -0.0541784 0)
(0.102321 -0.0539058 0)
(0.165614 -0.053575 0)
(0.228948 -0.0530502 -1.76538e-19)
(0.292226 -0.0523488 -1.78475e-19)
(0.355434 -0.0516157 0)
(0.418593 -0.0508904 0)
(0.481682 -0.0501691 0)
(0.544661 -0.0494323 1.85442e-19)
(0.607465 -0.0486461 0)
(0.669968 -0.0477539 -3.76736e-19)
(0.731976 -0.046649 3.79473e-19)
(0.793014 -0.0451313 3.82193e-19)
(0.852693 -0.0427107 3.81906e-19)
(0.908254 -0.0384654 3.88634e-19)
(0.962681 -0.0294054 3.91578e-19)
(0.994265 -0.00726738 0)
(0.00484123 -0.0421665 0)
(0.0121981 -0.0534165 0)
(0.0157941 -0.0474461 -4.10267e-19)
(0.0167976 -0.038118 -2.96096e-19)
(0.0158661 -0.0281224 2.42465e-19)
(0.0132904 -0.0181417 2.14171e-19)
(0.00931421 -0.00849205 2.87158e-23)
(0.0040728 0.000626204 0)
(-0.00238473 0.00909123 0)
(-0.0100681 0.0168553 0)
(-0.0190212 0.023936 0)
(-0.0293161 0.0303981 0)
(-0.0410372 0.0363553 -4.73954e-19)
(-0.0542702 0.0419678 0)
(-0.0690912 0.0474177 1.49107e-19)
(-0.0855639 0.0528809 1.44661e-19)
(-0.10374 0.0585037 0)
(-0.123661 0.06439 0)
(-0.145359 0.0705979 0)
(-0.168858 0.0771432 0)
(-0.194161 0.0840169 1.23199e-19)
(-0.221224 0.0911891 0)
(-0.249969 0.0985908 -1.14859e-19)
(-0.280284 0.106119 0)
(-0.31202 0.113647 0)
(-0.344998 0.121034 0)
(-0.379019 0.128129 -1.9641e-19)
(-0.413876 0.134786 0)
(-0.449366 0.140874 9.05172e-20)
(-0.485303 0.146289 -1.73627e-19)
(-0.521524 0.150957 0)
(-0.557879 0.154841 0)
(-0.594235 0.157924 0)
(-0.630491 0.160211 7.42035e-20)
(-0.666568 0.161728 7.14561e-20)
(-0.702397 0.16253 0)
(-0.737947 0.162687 0)
(-0.773213 0.162274 -1.28264e-19)
(-0.808193 0.161374 -1.24046e-19)
(-0.842896 0.160068 1.20117e-19)
(-0.877338 0.158436 0)
(-0.911536 0.156553 0)
(-0.945513 0.154487 0)
(-0.979289 0.152297 0)
(-1.01289 0.150035 -1.04171e-19)
(-1.04632 0.147745 -1.01464e-19)
(-1.07961 0.145465 9.90051e-20)
(-1.11276 0.143222 0)
(-1.14576 0.141033 0)
(-1.17863 0.138904 0)
(-1.21135 0.136835 0)
(-1.24392 0.134822 -8.86097e-20)
(-1.27636 0.132861 0)
(-1.30864 0.130944 0)
(-1.34078 0.129063 -8.35355e-20)
(-1.37276 0.127211 -8.21426e-20)
(-1.40458 0.12538 0)
(-1.43624 0.123561 1.5819e-19)
(-1.46771 0.121745 -7.78866e-20)
(-1.499 0.119924 7.65738e-20)
(-1.53008 0.118091 0)
(-1.56094 0.116238 0)
(-1.59157 0.114358 0)
(-1.62195 0.112445 0)
(-1.65205 0.110492 7.06343e-20)
(-1.68185 0.108495 1.38786e-19)
(-1.71134 0.106448 6.84944e-20)
(-1.74047 0.104348 -6.74648e-20)
(-1.76924 0.10219 0)
(-1.79761 0.0999715 1.30651e-19)
(-1.82556 0.0976901 1.28729e-19)
(-1.85305 0.0953435 1.26843e-19)
(-1.88005 0.0929306 -1.24991e-19)
(-1.90653 0.0904502 0)
(-1.93246 0.0879019 -1.82193e-19)
(-1.95781 0.0852857 0)
(-1.98254 0.082602 5.8797e-20)
(-2.00661 0.0798517 5.81784e-20)
(-2.03 0.077036 0)
(-2.05267 0.0741563 0)
(-2.07459 0.0712146 1.10985e-19)
(-2.09571 0.0682129 0)
(-2.116 0.0651538 1.07605e-19)
(-2.13544 0.0620397 0)
(-2.15398 0.0588735 -1.04232e-19)
(-2.17159 0.055658 -2.05243e-19)
(-2.18824 0.0523965 0)
(-2.20389 0.0490921 0)
(-2.21851 0.0457481 0)
(-2.23207 0.0423679 -9.57182e-20)
(-2.24454 0.0389542 0)
(-2.2559 0.0355103 -9.22381e-20)
(-2.26611 0.0320396 0)
(-2.27515 0.0285456 0)
(-2.283 0.0250323 1.73822e-19)
(-2.28965 0.0215052 0)
(-2.29507 0.0179716 8.32386e-20)
(-2.29928 0.0144421 0)
(-2.30225 0.0109312 7.94969e-20)
(-2.30401 0.00745933 0)
(-2.30453 0.00404807 0)
(-2.30378 0.000700199 0)
(-2.30171 -0.0026125 2.14702e-19)
(-2.29824 -0.00590543 6.94284e-20)
(-2.29337 -0.00917065 0)
(-2.28705 -0.0124047 0)
(-2.27929 -0.0156053 0)
(-2.27007 -0.0187693 0)
(-2.25937 -0.0218935 -5.86704e-20)
(-2.24719 -0.0249744 1.13311e-19)
(-2.23353 -0.0280084 5.41735e-20)
(-2.21838 -0.0309922 -1.04272e-19)
(-2.20174 -0.0339225 -9.96684e-20)
(-2.1836 -0.0367959 -4.72178e-20)
(-2.16398 -0.0396095 0)
(-2.14287 -0.0423603 -8.55207e-20)
(-2.12028 -0.0450454 0)
(-2.09621 -0.0476622 7.58136e-20)
(-2.07068 -0.0502081 3.5074e-20)
(-2.0437 -0.0526806 0)
(-2.01527 -0.0550775 -6.08548e-20)
(-1.98541 -0.0573966 -2.74728e-20)
(-1.95414 -0.0596358 0)
(-1.92148 -0.0617931 -2.31599e-20)
(-1.88744 -0.0638667 5.98639e-20)
(-1.85204 -0.0658548 0)
(-1.81531 -0.067756 0)
(-1.77727 -0.0695688 0)
(-1.73795 -0.0712922 0)
(-1.69737 -0.0729257 1.34019e-20)
(-1.65557 -0.0744699 6.87093e-21)
(-1.61257 -0.0759266 0)
(-1.5684 -0.0772966 0)
(-1.5231 -0.0785801 0)
(-1.4767 -0.0797759 0)
(-1.42922 -0.0808783 0)
(-1.38071 -0.0818878 0)
(-1.3312 -0.0828127 -3.25264e-20)
(-1.28073 -0.0836528 -1.19958e-21)
(-1.22933 -0.0844053 0)
(-1.17704 -0.0850715 0)
(-1.12391 -0.0856533 -5.43356e-20)
(-1.06996 -0.0861525 0)
(-1.01524 -0.0865715 6.72047e-20)
(-0.959793 -0.0869126 7.17639e-20)
(-0.903647 -0.0871782 0)
(-0.846845 -0.087371 0)
(-0.789426 -0.0874936 -9.06045e-20)
(-0.731428 -0.0875481 -1.9033e-19)
(-0.672888 -0.087537 0)
(-0.613844 -0.0874628 0)
(-0.554333 -0.087328 0)
(-0.49439 -0.087135 -1.2e-19)
(-0.434052 -0.0868865 1.25884e-19)
(-0.373352 -0.0865855 0)
(-0.312325 -0.0862347 2.72588e-19)
(-0.251003 -0.0858372 1.4081e-19)
(-0.189418 -0.0853961 -2.96048e-19)
(-0.127599 -0.0849139 0)
(-0.0655753 -0.0843936 0)
(-0.00337224 -0.0838383 -3.29965e-19)
(0.0589864 -0.0832504 -1.70392e-19)
(0.121475 -0.0826312 0)
(0.184065 -0.0819773 0)
(0.246737 -0.081288 0)
(0.309483 -0.0805581 0)
(0.372297 -0.0797914 -3.69793e-19)
(0.435141 -0.0789925 0)
(0.49799 -0.0781675 0)
(0.560827 -0.0773312 0)
(0.623616 -0.0764734 0)
(0.686309 -0.075567 0)
(0.748835 -0.0745636 0)
(0.811074 -0.0733804 -4.08973e-19)
(0.872843 -0.0718655 0)
(0.933747 -0.069734 0)
(0.993493 -0.0663877 -8.49517e-19)
(1.05023 -0.0606643 4.29233e-19)
(1.10686 -0.0498134 -4.38639e-19)
(1.15104 -0.026927 4.47677e-19)
(0.00250868 -0.0554989 0)
(0.004177 -0.0585887 1.14071e-18)
(0.00250867 -0.0466729 0)
(-0.000951647 -0.0333255 2.39004e-19)
(-0.00581171 -0.02023 0)
(-0.0118853 -0.00764766 0)
(-0.0190609 0.00435094 -1.51906e-19)
(-0.0273012 0.0157225 0)
(-0.0366274 0.0264485 0)
(-0.0470935 0.0365433 0)
(-0.0587744 0.0460576 0)
(-0.0717556 0.0550782 0)
(-0.0861243 0.0637247 4.67554e-19)
(-0.101959 0.0721413 2.27252e-19)
(-0.119319 0.0804786 -2.20863e-19)
(-0.138241 0.088873 0)
(-0.158735 0.0974302 0)
(-0.180787 0.106213 0)
(-0.204352 0.115238 0)
(-0.229364 0.124475 0)
(-0.255727 0.133852 1.8286e-19)
(-0.283315 0.143263 1.76639e-19)
(-0.311978 0.152583 -1.70468e-19)
(-0.341545 0.161669 1.6437e-19)
(-0.371834 0.170372 0)
(-0.402662 0.178544 0)
(-0.433855 0.186054 1.46851e-19)
(-0.465258 0.19279 0)
(-0.496737 0.198673 0)
(-0.528185 0.203652 1.31013e-19)
(-0.559519 0.207706 1.26227e-19)
(-0.590674 0.210835 1.21671e-19)
(-0.621609 0.213064 0)
(-0.652304 0.21444 0)
(-0.682754 0.215026 -1.09388e-19)
(-0.712981 0.214904 0)
(-0.743007 0.214171 0)
(-0.772859 0.212917 9.92068e-20)
(-0.802564 0.21123 -9.62888e-20)
(-0.832151 0.209194 9.34957e-20)
(-0.861648 0.206885 0)
(-0.891078 0.204374 0)
(-0.92046 0.201721 1.72169e-19)
(-0.94981 0.198981 0)
(-0.97914 0.196196 1.637e-19)
(-1.00846 0.193405 2.39735e-19)
(-1.03776 0.190634 -2.3422e-19)
(-1.06706 0.187905 1.52641e-19)
(-1.09633 0.185228 0)
(-1.12558 0.182611 0)
(-1.15479 0.180052 1.43179e-19)
(-1.18397 0.177549 7.02086e-20)
(-1.2131 0.175095 0)
(-1.24217 0.172682 0)
(-1.27117 0.170301 6.63015e-20)
(-1.30011 0.167944 1.30089e-19)
(-1.32895 0.165599 0)
(-1.3577 0.163257 -1.25699e-19)
(-1.38634 0.160908 1.23432e-19)
(-1.41485 0.158542 -1.2137e-19)
(-1.44322 0.156149 0)