/*--------------------------------*- C++ -*----------------------------------*\
| =========                 |                                                 |
| \\      /  F ield         | OpenFOAM: The Open Source CFD Toolbox           |
|  \\    /   O peration     | Version:  4.1                                   |
|   \\  /    A nd           | Web:      www.OpenFOAM.org                      |
|    \\/     M anipulation  |                                                 |
\*---------------------------------------------------------------------------*/
FoamFile
{
    version     2.0;
    format      ascii;
    class       volScalarField;
    location    "18";
    object      p;
}
// * * * * * * * * * * * * * * * * * * * * * * * * * * * * * * * * * * * * * //

dimensions      [0 2 -2 0 0 0 0];

internalField   nonuniform List<scalar> 
26785
(
3.74528
3.35839
3.2893
3.25986
3.28929
3.42276
3.64354
4.14486
4.90436
6.52247
9.00296
13.4032
18.8843
24.3228
27.7279
30.3888
31.6534
30.7417
28.3551
25.56
23.679
22.5184
22.1089
22.0068
22.0396
22.4047
23.3679
24.6817
25.9593
27.2156
28.4448
29.5203
30.3014
30.7142
30.729
30.3584
29.6128
28.5257
27.1598
25.5921
23.9086
22.1662
20.4305
18.7434
17.1528
15.6792
14.3632
13.2294
12.1338
11.202
10.3637
9.67304
9.05519
8.54506
8.0999
7.73918
7.43212
7.18764
6.98445
6.82161
6.68641
6.57309
6.47591
6.38889
6.31389
6.24447
6.18396
6.12587
6.07679
6.03194
5.99778
5.9651
5.93505
5.89654
5.85264
5.79769
5.73697
5.66692
5.59111
5.50518
5.4097
5.2997
5.17446
5.03027
4.86681
4.68285
4.47892
4.25548
4.01262
3.75113
3.47025
3.17117
2.85321
2.51842
2.1666
1.80011
1.42003
1.0275
0.620264
0.211189
3.72847
3.35777
3.29046
3.25803
3.28802
3.42292
3.64193
4.13909
4.89118
6.50157
8.97757
13.3851
18.8961
24.3372
27.7397
30.417
31.6958
30.7703
28.3533
25.535
23.6506
22.4909
22.091
21.9929
22.0139
22.3786
23.3578
24.681
25.9554
27.2171
28.4542
29.5353
30.3187
30.7318
30.7459
30.3742
29.626
28.5353
27.1655
25.5941
23.9069
22.1612
20.4229
18.7341
17.1428
15.6691
14.3535
13.2208
12.125
11.1948
10.3571
9.66758
9.04982
8.54049
8.09562
7.73552
7.4285
7.1844
6.98132
6.81892
6.68391
6.57091
6.47379
6.38699
6.31219
6.2431
6.18273
6.12484
6.07594
6.03153
5.99784
5.96562
5.93586
5.8975
5.85365
5.79879
5.73826
5.66856
5.59316
5.50767
5.4126
5.30296
5.17798
5.03397
4.87061
4.68674
4.48289
4.25955
4.01679
3.75538
3.47456
3.17552
2.85758
2.52276
2.17087
1.80405
1.42428
1.02973
0.643494
0.19606
3.69761
3.35714
3.29255
3.25377
3.28459
3.42211
3.6402
4.13021
4.86735
6.46091
8.92733
13.3498
18.923
24.3703
27.7663
30.4786
31.7879
30.8339
28.3496
25.4835
23.5913
22.4358
22.0566
21.9671
21.9593
22.3194
23.3332
24.678
25.9468
27.2191
28.4735
29.5679
30.3582
30.7735
30.7881
30.4148
29.6617
28.5637
27.1856
25.6059
23.9105
22.157
20.4122
18.7186
17.1244
15.6491
14.3329
13.2007
12.1038
11.1757
10.3389
9.65118
9.034
8.52646
8.08289
7.72461
7.41863
7.17603
6.97403
6.8131
6.679
6.56708
6.47041
6.38438
6.31002
6.24166
6.1814
6.12389
6.07519
6.03152
5.99839
5.96682
5.93717
5.89883
5.8547
5.79979
5.73934
5.67005
5.59512
5.51018
5.41553
5.30624
5.18139
5.03742
4.87395
4.69001
4.48608
4.26275
4.01999
3.75862
3.47776
3.17868
2.86067
2.52574
2.17369
1.80648
1.42634
1.03052
0.645638
0.203413
3.65653
3.35823
3.29414
3.2458
3.27884
3.42149
3.63861
4.11563
4.82648
6.39145
8.8406
13.2922
18.9711
24.4286
27.8117
30.5825
31.9408
30.9378
28.3458
25.4047
23.5026
22.3541
22.0085
21.9358
21.8845
22.2373
23.304
24.6799
25.9375
27.2244
28.5018
29.6128
30.4109
30.8272
30.841
30.4643
29.7036
28.5952
27.2065
25.617
23.9122
22.1504
20.399
18.7011
17.1046
15.6289
14.3132
13.1808
12.0849
11.1587
10.3242
9.63801
9.02247
8.51654
8.07498
7.71832
7.41382
7.17251
6.97165
6.81177
6.67823
6.56677
6.47001
6.38418
6.30968
6.24141
6.18055
6.12286
6.07387
6.03068
5.99771
5.96639
5.93624
5.89738
5.85241
5.79712
5.7365
5.66754
5.59299
5.50857
5.41427
5.30523
5.18038
5.03629
4.87262
4.68855
4.4846
4.26137
4.01882
3.75764
3.47701
3.17811
2.86035
2.52559
2.17372
1.80663
1.42565
1.03058
0.631017
0.217845
3.60836
3.36329
3.29509
3.23456
3.27137
3.42118
3.63784
4.09703
4.77281
6.29929
8.72604
13.216
19.0392
24.5042
27.868
30.7139
32.1406
31.0804
28.3534
25.3241
23.4114
22.2747
21.9677
21.922
21.8262
22.1762
23.3029
24.705
25.9405
27.239
28.5354
29.6559
30.4552
30.8661
30.8736
30.4892
29.7193
28.6016
27.2055
25.6109
23.9016
22.1362
20.3817
18.682
17.0848
15.6096
14.2945
13.1606
12.0669
11.1414
10.3097
9.62409
9.0106
8.50586
8.06668
7.71138
7.40883
7.16876
6.96942
6.81045
6.67768
6.56648
6.46982
6.38413
6.30973
6.24148
6.18028
6.12251
6.07369
6.03122
5.99881
5.96785
5.93738
5.89803
5.85246
5.79703
5.73664
5.66838
5.59462
5.51102
5.41731
5.30865
5.18388
5.03967
4.87582
4.69161
4.48768
4.26454
4.0222
3.76118
3.48072
3.18191
2.86428
2.52957
2.17773
1.81058
1.4285
1.03338
0.623785
0.226932
3.55757
3.37314
3.29458
3.22064
3.26328
3.42214
3.63734
4.07304
4.70616
6.18595
8.58277
13.1152
19.1154
24.5815
27.9186
30.844
32.3472
31.2302
28.3711
25.2622
23.3408
22.2135
21.9354
21.9145
21.7877
22.1459
23.3309
24.7483
25.9508
27.2521
28.5552
29.672
30.4644
30.8657
30.8685
30.4763
29.6956
28.5714
27.1733
25.5803
23.8735
22.1108
20.3585
18.661
17.0656
15.5922
14.2776
13.1415
12.0494
11.1236
10.2938
9.60794
8.99623
8.49238
8.05558
7.70164
7.40141
7.1628
6.96531
6.80727
6.67541
6.5643
6.46779
6.38206
6.30787
6.23944
6.178
6.12011
6.07177
6.03012
5.99852
5.96787
5.93714
5.89724
5.85119
5.7958
5.73598
5.66872
5.59607
5.51352
5.42059
5.31239
5.1877
5.04334
4.87927
4.69493
4.49099
4.26793
4.02574
3.76483
3.48445
3.18564
2.86797
2.5332
2.1812
1.81382
1.43057
1.03505
0.619151
0.230051
3.50499
3.38365
3.2901
3.20401
3.25423
3.42292
3.63701
4.04757
4.63712
6.0685
8.43011
12.9948
19.1781
24.6361
27.946
30.9284
32.4767
31.3006
28.3498
25.1995
23.2803
22.165
21.9071
21.9112
21.7677
22.1388
23.3583
24.7703
25.9382
27.2352
28.5409
29.6533
30.4434
30.8393
30.8417
30.4512
29.6685
28.542
27.143
25.5497
23.8421
22.0787
20.3258
18.6282
17.0329
15.5601
14.2452
13.1067
12.0157
11.0904
10.2629
9.57829
8.96945
8.4683
8.03517
7.68423
7.38755
7.15182
6.95706
6.80086
6.67037
6.55986
6.46377
6.37837
6.30461
6.23625
6.17477
6.11704
6.0695
6.029
5.99844
5.96825
5.93734
5.89699
5.8507
5.79565
5.73677
5.67086
5.59964
5.51838
5.42642
5.31879
5.19424
5.04978
4.88555
4.70116
4.4973
4.27442
4.03241
3.77159
3.49125
3.19239
2.87461
2.5397
2.18742
1.8196
1.4352
1.03881
0.618676
0.232432
3.46123
3.39731
3.28415
3.18787
3.24668
3.42445
3.63635
4.02036
4.56833
5.95106
8.26522
12.8417
19.2064
24.6483
27.9269
30.9323
32.4927
31.2798
28.2913
25.1323
23.2251
22.1269
21.8801
21.9221
21.7486
22.0835
23.303
24.7055
25.8951
27.214
28.5271
29.6346
30.4164
30.801
30.7976
30.4053
29.6189
28.4888
27.0881
25.4946
23.787
22.024
20.2722
18.5763
16.9831
15.5127
14.1992
13.0601
11.9715
11.0484
10.2244
9.54256
8.93783
8.44079
8.01224
7.66534
7.37291
7.14079
6.94906
6.79496
6.66582
6.55592
6.46015
6.3751
6.30171
6.2333
6.17162
6.11403
6.06737
6.02814
5.99866
5.96887
5.93768
5.89684
5.85036
5.79582
5.7381
5.67376
5.60415
5.52435
5.43348
5.32649
5.20215
5.05765
4.89336
4.70905
4.50535
4.28272
4.04092
3.78017
3.49979
3.20077
2.88278
2.54762
2.19489
1.82643
1.44079
1.04313
0.620316
0.23336
3.4298
3.41245
3.27852
3.17476
3.24171
3.42637
3.6362
3.99653
4.50978
5.84544
8.09954
12.6639
19.1934
24.6391
27.861
30.8725
32.4716
31.2368
28.2428
25.0872
23.1921
22.1201
21.8551
21.8852
21.6713
21.9875
23.2098
24.6105
25.8444
27.1791
28.4971
29.5963
30.3705
30.7476
30.7367
30.338
29.5473
28.4152
27.0145
25.4221
23.7157
21.9546
20.2051
18.5123
16.9222
15.4549
14.1434
13.0048
11.9192
10.9995
10.1794
9.50105
8.901
8.40888
7.98542
7.64321
7.35557
7.12757
6.93916
6.78743
6.65975
6.55057
6.45525
6.37075
6.29779
6.22934
6.16745
6.11016
6.0646
6.02687
5.99857
5.9692
5.93773
5.89643
5.84991
5.79613
5.73982
5.67726
5.60945
5.53129
5.44166
5.33544
5.21143
5.06704
4.90286
4.71879
4.51538
4.29304
4.05143
3.79074
3.51025
3.21097
2.8927
2.55715
2.20385
1.83454
1.44761
1.04838
0.623865
0.233857
3.41193
3.42321
3.27296
3.16665
3.2416
3.43034
3.63684
3.97494
4.45744
5.74181
7.90938
12.4116
19.0925
24.615
27.7838
30.781
32.4319
31.2189
28.2645
25.1138
23.1947
22.1246
21.8377
21.7734
21.53
21.8935
23.1385
24.5213
25.7788
27.1224
28.4455
29.5363
30.3053
30.6778
30.6581
30.2506
29.4548
28.32
26.9192
25.3278
23.6232
21.8648
20.1188
18.4303
16.8445
15.3814
14.0729
12.9363
11.8553
10.9404
10.1254
9.45184
8.85763
8.3714
7.95384
7.61721
7.33517
7.11193
6.92729
6.7783
6.65234
6.54411
6.44956
6.36595
6.29358
6.22507
6.16299
6.10612
6.06189
6.02581
5.99873
5.96972
5.93791
5.89621
5.84982
5.79701
5.74231
5.68166
5.61583
5.53944
5.45114
5.34575
5.2222
5.0781
4.91421
4.73052
4.52751
4.30545
4.06389
3.80316
3.52241
3.22279
2.9041
2.56803
2.21395
1.84357
1.45517
1.05418
0.628274
0.233949
3.40723
3.42304
3.26602
3.16287
3.24481
3.4354
3.63838
3.95741
4.41213
5.64221
7.70122
12.0555
18.8681
24.5677
27.746
30.7136
32.3887
31.2382
28.3807
25.1994
23.2241
22.1205
21.7829
21.6141
21.3761
21.7965
23.0626
24.4197
25.6865
27.0416
28.3717
29.4596
30.225
30.592
30.5636
30.1483
29.3473
28.2099
26.8087
25.2182
23.5156
21.7606
20.0191
18.336
16.7552
15.2965
13.9918
12.8585
11.7834
10.8746
10.0656
9.39768
8.81006
8.3303
7.91915
7.58871
7.31282
7.0947
6.91408
6.76806
6.64405
6.53695
6.44343
6.36096
6.28925
6.2206
6.15829
6.10193
6.05912
6.02468
5.99873
5.96999
5.93785
5.89588
5.84988
5.79828
5.74536
5.6867
5.6229
5.54831
5.46137
5.35683
5.23387
5.09027
4.92689
4.74371
4.54118
4.31939
4.07782
3.81691
3.53576
3.23577
2.91657
2.57992
2.22492
1.85331
1.46332
1.06046
0.633234
0.234141
3.43546
3.42577
3.26335
3.16433
3.2506
3.44088
3.63936
3.94013
4.36667
5.53746
7.46837
11.5773
18.4027
24.4545
27.7391
30.6923
32.3392
31.262
28.5267
25.3199
23.2634
22.0991
21.6946
21.4586
21.2313
21.6846
22.9654
24.3106
25.5794
26.9443
28.2771
29.3634
30.124
30.4849
30.451
30.0284
29.2223
28.0818
26.6792
25.0892
23.3887
21.6377
19.9015
18.2245
16.6498
15.1966
13.8967
12.7679
11.7001
10.7986
9.99688
9.33611
8.75623
8.28381
7.87992
7.55652
7.2875
7.07497
6.89881
6.75609
6.63434
6.52868
6.43663
6.35562
6.28473
6.21589
6.15346
6.0977
6.05635
6.02345
5.99848
5.96996
5.93767
5.89572
5.85048
5.80034
5.74933
5.69273
5.63101
5.55821
5.47261
5.36899
5.24681
5.10394
4.94129
4.75874
4.5567
4.3351
4.09347
3.83219
3.55054
3.25001
2.9302
2.59275
2.23666
1.86359
1.47186
1.067
0.638213
0.234603
3.47621
3.42368
3.25936
3.16613
3.25555
3.44481
3.63954
3.92457
4.32544
5.43789
7.24205
11.0622
17.7157
24.2151
27.737
30.7227
32.2758
31.2667
28.6441
25.4337
23.2912
22.06
21.591
21.3082
21.095
21.5619
22.8439
24.1751
25.453
26.8275
28.1661
29.2503
30.0052
30.3649
30.3272
29.8967
29.0853
27.9407
26.5365
24.947
23.2491
21.5025
19.7723
18.1019
16.5339
15.087
13.7926
12.6695
11.6095
10.7163
9.92281
9.27013
8.69864
8.23415
7.83807
7.5223
7.26053
7.0538
6.88237
6.7432
6.62388
6.51986
6.42954
6.35015
6.28011
6.21114
6.14874
6.09364
6.05362
6.02193
5.9977
5.96932
5.93707
5.89549
5.85135
5.80283
5.75377
5.69922
5.63954
5.56844
5.48412
5.3815
5.26029
5.11839
4.95665
4.7748
4.57326
4.35176
4.11003
3.84821
3.56603
3.26481
2.94433
2.60593
2.24867
1.87404
1.48047
1.07366
0.642902
0.235638
3.51809
3.41941
3.25657
3.16993
3.26147
3.44899
3.63898
3.90865
4.28455
5.33811
7.01863
10.5396
16.8871
23.7912
27.7127
30.7826
32.2052
31.2456
28.722
25.5144
23.2965
21.9992
21.4727
21.1548
20.9518
21.4168
22.6913
24.0118
25.3061
26.6866
28.0325
29.1144
29.866
30.226
30.1834
29.7445
28.928
27.7797
26.3744
24.7859
23.0909
21.3495
19.626
17.9632
16.4027
14.9631
13.6755
12.5592
11.508
10.6241
9.84034
9.19697
8.63505
8.17947
7.79214
7.48482
7.23091
7.03033
6.86405
6.72879
6.61219
6.51001
6.42172
6.34402
6.27494
6.20611
6.14408
6.08978
6.05093
6.02016
5.99649
5.96832
5.93639
5.89562
5.85293
5.80618
5.75907
5.70659
5.64892
5.57939
5.4963
5.3948
5.2748
5.13407
4.9734
4.79231
4.59123
4.36981
4.12782
3.86541
3.58251
3.28053
2.95915
2.6197
2.26102
1.88479
1.48926
1.08048
0.647313
0.23746
3.55365
3.41319
3.25317
3.1735
3.26691
3.45264
3.63774
3.89404
4.24783
5.24591
6.81638
10.0587
16.0442
23.2284
27.6536
30.8518
32.1366
31.1972
28.7509
25.5501
23.2826
21.9265
21.3528
21.0021
20.7889
21.257
22.5212
23.836
25.1485
26.5391
27.8865
28.9652
29.7156
30.0728
30.0245
29.5795
28.7583
27.6072
26.2012
24.6137
22.9219
21.1859
19.4697
17.8151
16.2628
14.8312
13.5511
12.4423
11.4005
10.5266
9.7533
9.11997
8.56827
8.1222
7.74428
7.44596
7.20018
7.00597
6.84501
6.71383
6.60016
6.49999
6.41372
6.33753
6.26925
6.20077
6.13938
6.08593
6.04803
6.01784
5.99458
5.96673
5.93536
5.89578
5.85482
5.80994
5.76479
5.71434
5.65851
5.59033
5.50838
5.40811
5.28947
5.15006
4.99053
4.81027
4.60962
4.38836
4.14597
3.88305
3.59932
3.29658
2.97418
2.6336
2.27343
1.8955
1.49805
1.08733
0.651295
0.240205
3.58325
3.40638
3.24959
3.17755
3.2736
3.45755
3.63687
3.87914
4.21057
5.15365
6.62007
9.60374
15.2055
22.545
27.527
30.8991
32.0718
31.1266
28.7129
25.5399
23.2445
21.8396
21.2197
20.8294
20.5927
21.08
22.328
23.6347
24.9655
26.3771
27.7212
28.7934
29.5448
29.8989
29.8449
29.3951
28.5689
27.4157
26.0096
24.4237
22.7353
21.0053
19.297
17.6515
16.1086
14.686
13.4146
12.3143
11.2831
10.42
9.65828
9.03604
8.49573
8.06017
7.69272
7.40425
7.16722
6.97982
6.82468
6.69781
6.58742
6.48969
6.40552
6.33051
6.26292
6.19499
6.13449
6.08192
6.04475
6.01491
5.99196
5.96465
5.93424
5.89624
5.85733
5.81451
5.77149
5.72311
5.66893
5.60189
5.52104
5.42209
5.30494
5.1669
5.00851
4.82914
4.62892
4.40788
4.1651
3.90164
3.61712
3.31345
2.98999
2.64804
2.28632
1.90659
1.5071
1.09432
0.654957
0.243771
3.61097
3.40119
3.24536
3.18051
3.27988
3.46256
3.63649
3.86589
4.17646
5.06845
6.44303
9.19985
14.4311
21.8175
27.3383
30.9074
32.0408
31.0771
28.6284
25.4963
23.1886
21.7492
21.0757
20.631
20.3831
20.8907
22.1205
23.4228
24.7753
26.208
27.542
28.6094
29.3601
29.7122
29.6537
29.1994
28.3685
27.2138
25.8082
24.2242
22.5396
20.8158
19.1158
17.4799
15.9469
14.5342
13.2723
12.1813
11.1611
10.3094
9.55964
8.94899
8.42053
7.99599
7.63953
7.36134
7.1334
6.95318
6.80415
6.68162
6.5747
6.47983
6.39769
6.32353
6.25647
6.18922
6.12952
6.07764
6.04087
6.01115
5.98836
5.96163
5.93249
5.8964
5.85976
5.81924
5.7786
5.73234
5.67959
5.61349
5.53372
5.43615
5.32044
5.18371
5.02639
4.84794
4.64827
4.42744
4.18448
3.92044
3.63528
3.33064
3.00608
2.66269
2.29929
1.91777
1.5162
1.10135
0.658261
0.247837
3.6368
3.39695
3.24121
3.18328
3.28674
3.46909
3.63722
3.85266
4.1405
4.98176
6.26926
8.82106
13.699
21.0482
27.054
30.8621
32.0071
31.0151
28.5045
25.417
23.1102
21.6421
20.9055
20.3987
20.1524
20.6782
21.8908
23.198
24.5757
26.0148
27.3375
28.405
29.1539
29.5047
29.4435
28.9842
28.1491
26.9934
25.5889
24.0076
22.3277
20.6105
18.9193
17.2936
15.7715
14.3699
13.1186
12.0381
11.0302
10.1908
9.45395
8.85577
8.34012
7.92747
7.58282
7.31542
7.09722
6.92502
6.78239
6.66474
6.56181
6.47007
6.38969
6.31635
6.24995
6.18355
6.12454
6.07319
6.03662
6.00692
5.98413
5.95789
5.93026
5.89633
5.86221
5.82436
5.78652
5.74251
5.69115
5.626
5.54743
5.45126
5.33691
5.20134
5.04496
4.86737
4.66837
4.4477
4.20472
3.94015
3.65431
3.34875
3.0229
2.678
2.31278
1.92933
1.52552
1.10843
0.66145
0.252027
3.65878
3.39316
3.23641
3.18517
3.29256
3.4754
3.63885
3.84144
4.10675
4.90086
6.11184
8.4864
13.0454
20.2969
26.6988
30.7945
31.9547
30.8968
28.3502
25.3135
23.0139
21.5227
20.7205
20.1523
19.9109
20.4527
21.6504
22.9698
24.3701
25.8041
27.1199
28.1891
28.9363
29.2851
29.2232
28.7591
27.9206
26.7641
25.361
23.783
22.1083
20.3984
18.7163
17.1011
15.5903
14.2002
12.9604
11.8912
10.8961
10.0694
9.34605
8.76081
8.25826
7.85777
7.52523
7.26844
7.05974
6.89589
6.76055
6.64826
6.54941
6.46093
6.38202
6.30949
6.2436
6.17796
6.11945
6.06852
6.03197
6.00225
5.97927
5.95323
5.92706
5.89533
5.86384
5.82897
5.79424
5.75264
5.7028
5.6388
5.56167
5.46691
5.35371
5.2191
5.06355
4.88667
4.68842
4.46797
4.22495
3.96006
3.67352
3.36705
3.03991
2.6934
2.32633
1.94088
1.53474
1.11536
0.664561
0.256042
3.67811
3.39021
3.23216
3.18756
3.29878
3.48249
3.64209
3.83075
4.07189
4.81836
5.95625
8.17027
12.4379
19.5482
26.2659
30.6883
31.868
30.7112
28.1568
25.1757
22.8875
21.3809
20.5133
19.8833
19.644
20.2055
21.396
22.7301
24.1422
25.5673
26.8808
27.9518
28.6986
29.0451
28.9825
28.5143
27.6736
26.517
25.1159
23.542
21.8733
20.1716
18.4993
16.8954
15.3965
14.0189
12.7917
11.7347
10.7536
9.9408
9.23191
8.66066
8.17243
7.78488
7.46536
7.21952
7.02018
6.86437
6.73671
6.63078
6.53672
6.45233
6.37514
6.30308
6.23745
6.17236
6.11442
6.06386
6.02742
5.99771
5.97456
5.94856
5.92367
5.894
5.86509
5.83334
5.80195
5.76297
5.71499
5.65264
5.57733
5.4841
5.37194
5.23806
5.0833
4.90698
4.70931
4.48914
4.24596
3.98075
3.69352
3.38602
3.05748
2.70922
2.34014
1.95248
1.54385
1.12203
0.667646
0.259663
3.69343
3.3874
3.22766
3.18941
3.30388
3.48874
3.6459
3.82153
4.04045
4.74153
5.81512
7.89001
11.902
18.8467
25.8031
30.5498
31.7433
30.4824
27.9394
25.0151
22.7412
21.2239
20.2985
19.6064
19.3627
19.9488
21.1388
22.4839
23.8979
25.317
26.6309
27.703
28.4508
28.7961
28.731
28.2603
27.4188
26.2624
24.8637
23.2943
21.6322
19.9394
18.2773
16.685
15.1984
13.8337
12.6196
11.5754
10.6086
9.81023
9.11622
8.55937
8.08618
7.71207
7.40581
7.17114
6.9811
6.83322
6.7121
6.61201
6.52327
6.44361
6.36888
6.29697
6.23162
6.16674
6.10922
6.05886
6.02252
5.99286
5.96978
5.94401
5.92018
5.89228
5.86569
5.83691
5.80876
5.77245
5.72668
5.66652
5.59345
5.50193
5.39083
5.25756
5.10348
4.92776
4.73044
4.5105
4.26714
4.00148
3.71357
3.40495
3.07487
2.72471
2.3535
1.9635
1.55232
1.12805
0.670394
0.262611
3.70809
3.38632
3.22434
3.19236
3.30963
3.49599
3.65055
3.81258
4.00903
4.66263
5.67505
7.62274
11.4043
18.1658
25.2939
30.3497
31.5582
30.2046
27.6871
24.8173
22.5636
21.0351
20.0583
19.3076
19.0569
19.6758
20.8701
22.2175
23.6267
25.0452
26.3602
27.4327
28.1817
28.5281
28.4596
27.9877
27.146
25.9906
24.595
23.0312
21.3765
19.6933
18.0423
16.4625
14.989
13.638
12.4379
11.4074
10.456
9.67285
8.99465
8.45289
7.99585
7.63671
7.34475
7.12181
6.94157
6.80209
6.68726
6.59268
6.50963
6.43371
6.36173
6.29054
6.22588
6.16109
6.1038
6.05337
6.01704
5.98751
5.96496
5.94007
5.91748
5.89124
5.86676
5.84066
5.81545
5.78171
5.73842
5.68096
5.61062
5.52111
5.41124
5.27863
5.12512
4.95009
4.753
4.53301
4.28938
4.02306
3.73417
3.42418
3.09229
2.73998
2.36636
1.9738
1.55994
1.13318
0.672702
0.264567
3.72019
3.38559
3.22053
3.19472
3.3144
3.50222
3.65441
3.80452
3.98129
4.58833
5.54764
7.38534
10.9668
17.5398
24.7799
30.1032
31.3217
29.8982
27.4172
24.5968
22.3656
20.8325
19.8053
18.9992
18.7439
19.3967
20.5976
21.939
23.3427
24.7639
26.081
27.1535
27.9029
28.2507
28.1806
27.7082
26.8663
25.7125
24.3205
22.7626
21.1161
19.4428
17.8035
16.2368
14.7769
13.44
12.2543
11.2378
10.3021
9.53454
8.87231
8.3457
7.90465
7.5612
7.28414
7.07336
6.9033
6.77188
6.66326
6.57473
6.49751
6.42425
6.35402
6.28429
6.22019
6.15541
6.09794
6.04698
6.01019
5.9806
5.95889
5.93564
5.91482
5.89043
5.86806
5.84438
5.82166
5.79019
5.74944
5.69495
5.62763
5.54041
5.43201
5.30035
5.14745
4.97308
4.77625
4.55599
4.3118
4.04461
3.75445
3.44274
3.10874
2.75406
2.37786
1.98267
1.56621
1.13712
0.674386
0.26527
3.7309
3.38578
3.21785
3.19811
3.32014
3.50913
3.6591
3.79606
3.95349
4.51172
5.41963
7.15787
10.5594
16.9372
24.237
29.783
31.0131
29.5474
27.1124
24.3381
22.1326
20.5995
19.5205
18.6652
18.4139
19.1038
20.3092
21.638
23.0375
24.4615
25.7812
26.855
27.6046
27.9524
27.8834
27.4112
26.5696
25.4183
24.031
22.4798
20.8422
19.1796
17.5529
15.9997
14.5543
13.2325
12.0622
11.0605
10.1417
9.39054
8.74502
8.23431
7.80961
7.48223
7.22121
7.02423
6.86514
6.74175
6.63951
6.55704
6.4857
6.41584
6.34673
6.27895
6.21544
6.15058
6.09268
6.0409
6.0031
5.97282
5.95174
5.93058
5.91214
5.89013
5.87028
5.84906
5.82854
5.79909
5.76088
5.70945
5.64525
5.56048
5.45376
5.32343
5.17143
4.99758
4.80088
4.58019
4.33505
4.06656
3.77466
3.46082
3.12435
2.76701
2.38803
1.99014
1.57116
1.13989
0.675482
0.264731
3.73863
3.38553
3.2151
3.20041
3.32518
3.51461
3.66328
3.78785
3.92815
4.44133
5.30223
6.95563
10.2016
16.3857
23.7032
29.4165
30.6548
29.1751
26.7927
24.0607
21.8839
20.3528
19.2216
18.3182
18.0825
18.8088
20.013
21.3247
22.7233
24.1493
25.4714
26.5488
27.2987
27.647
27.5793
27.1074
26.2673
25.1191
23.7373
22.1933
20.5651
18.9136
17.3
15.7604
14.3299
13.0239
11.8693
10.8828
9.98142
9.24691
8.61821
8.12366
7.71539
7.40327
7.15803
6.97517
6.82794
6.71255
6.61735
6.5402
6.47284
6.40675
6.33978
6.27388
6.21114
6.14608
6.08758
6.0352
5.99627
5.96461
5.94348
5.92415
5.90834
5.88917
5.87236
5.85388
5.83553
5.80801
5.77232
5.72394
5.66268
5.58035
5.47544
5.34664
5.19582
5.02247
4.82568
4.60432
4.3579
4.08767
3.79363
3.47734
3.1382
2.77808
2.39633
1.99586
1.57461
1.14146
0.675908
0.26327
3.74509
3.38591
3.21392
3.20334
3.3312
3.52081
3.66848
3.77953
3.90173
4.3703
5.18401
6.76052
9.86605
15.8541
23.1494
28.9786
30.2279
28.762
26.4374
23.7497
21.6068
20.0758
18.893
17.9445
17.7378
18.5008
19.6943
20.9875
22.3874
23.8156
25.1391
26.2216
26.9735
27.3237
27.2572
26.7863
25.9487
24.8045
23.429
21.8934
20.2756
18.6361
17.0362
15.511
14.0958
12.8063
11.6683
10.6983
9.81555
9.09845
8.4874
8.00981
7.6192
7.32261
7.09329
6.9241
6.79056
6.68341
6.59686
6.52508
6.45969
6.39547
6.33248
6.26834
6.20637
6.14106
6.08222
6.0298
5.99031
5.95722
5.93537
5.91719
5.90383
5.88778
5.87448
5.85918
5.8433
5.81795
5.78493
5.7396
5.68104
5.60106
5.4981
5.37083
5.22121
5.04832
4.85115
4.62866
4.38051
4.10813
3.81157
3.49253
3.15054
2.78759
2.40311
2.00023
1.57691
1.14215
0.675793
0.261377
3.74987
3.38565
3.213
3.20552
3.33649
3.52604
3.67261
3.77189
3.87736
4.30531
5.07663
6.58699
9.5704
15.3683
22.6122
28.5042
29.7631
28.3322
26.0695
23.4282
21.3213
19.7881
18.553
17.5615
17.3936
18.1898
19.3631
20.6403
22.042
23.4732
24.7979
25.8854
26.6414
26.9942
26.9295
26.4606
25.6259
24.4862
23.1173
21.5909
19.9841
18.3573
16.7713
15.2609
13.8612
12.5881
11.4668
10.5138
9.65046
8.95108
8.35782
7.89725
7.52461
7.24395
7.03023
6.87404
6.75393
6.65644
6.57871
6.51236
6.449
6.38482
6.32519
6.26301
6.20068
6.13453
6.0754
6.02324
5.98383
5.94993
5.92722
5.90951
5.89818
5.88515
5.87548
5.86367
5.85067
5.82787
5.79777
5.75551
5.69948
5.62169
5.52067
5.39497
5.24647
5.07379
4.87583
4.65178
4.40149
4.12663
3.82739
3.50557
3.16077
2.79512
2.40817
2.00317
1.57811
1.1421
0.675189
0.259424
3.75454
3.38535
3.21282
3.20912
3.34286
3.53246
3.67732
3.76454
3.85197
4.24002
4.96916
6.41979
9.28972
14.8983
22.0633
27.9703
29.2407
27.8625
25.665
23.0756
21.0099
19.4731
18.1842
17.1577
17.0369
17.8625
19.0085
20.2717
21.6753
23.1098
24.4376
25.529
26.29
26.6466
26.5846
26.1187
25.2877
24.1536
22.7921
21.2759
19.6813
18.0685
16.4963
15.0017
13.6182
12.3616
11.2574
10.3219
9.47963
8.79917
8.22454
7.78183
7.42787
7.16416
6.96657
6.82384
6.71655
6.63098
6.56147
6.50057
6.44011
6.37672
6.31916
6.25906
6.19599
6.12825
6.06832
6.01624
5.977
5.94304
5.91982
5.90223
5.89246
5.88223
5.87608
5.86786
5.85809
5.83837
5.81147
5.77237
5.7189
5.64316
5.54401
5.41989
5.27226
5.09939
4.90012
4.67399
4.4212
4.14358
3.84153
3.51695
3.16947
2.80134
2.41218
2.00535
1.5788
1.14179
0.674465
0.257568
3.75758
3.38452
3.21157
3.21181
3.34842
3.53801
3.68102
3.7575
3.828
4.18048
4.87203
6.27208
9.04008
14.4664
21.5373
27.4164
28.6957
27.3834
25.2507
22.7136
20.6906
19.1492
17.8032
16.7512
16.6824
17.5279
18.6435
19.895
21.3004
22.7383
24.0714
25.1667
25.9325
26.2935
26.2351
25.7731
24.9466
23.8188
22.4651
20.9595
19.3773
17.7794
16.2216
14.7432
13.3761
12.1361
11.0488
10.13
9.30897
8.64818
8.09279
7.66831
7.33295
7.08604
6.90392
6.77504
6.67974
6.60695
6.5461
6.48908
6.43069
6.37016
6.31376
6.25467
6.19116
6.12231
6.06115
6.00868
5.96927
5.9357
5.91257
5.89503
5.88652
5.87878
5.87592
5.87113
5.86467
5.84835
5.8248
5.78897
5.73813
5.66439
5.567
5.44433
5.29723
5.1237
4.92267
4.69405
4.43851
4.15813
3.85332
3.52621
3.17639
2.80616
2.41517
2.00684
1.57913
1.14139
0.67387
0.255744
3.76055
3.38435
3.21081
3.21516
3.35498
3.54449
3.68561
3.75044
3.802
4.12044
4.77605
6.12974
8.79951
14.0469
21.007
26.8175
28.1033
26.8658
24.8
22.3214
20.3441
18.7963
17.3929
16.3284
16.3173
17.1718
18.2548
19.4981
20.9052
22.3463
23.685
24.786
25.5566
25.9228
25.8689
25.412
24.5912
23.4708
22.1259
20.6317
19.0625
17.4801
15.9386
14.4762
13.1262
11.904
10.8348
9.93268
9.1325
8.49219
7.95737
7.55211
7.23684
7.00712
6.84075
6.72599
6.64312
6.58309
6.53303
6.47969
6.42117
6.36319
6.30876
6.24941
6.18512
6.11606
6.05405
6.00065
5.96113
5.92824
5.90573
5.88842
5.88114
5.87586
5.87616
5.87462
5.87144
5.85868
5.83861
5.80611
5.75795
5.68624
5.59051
5.46896
5.32193
5.14724
4.94402
4.71269
4.45422
4.17113
3.86369
3.53426
3.1824
2.81042
2.41791
2.00838
1.57971
1.1414
0.673889
0.254014
3.76167
3.38378
3.20941
3.21734
3.36059
3.54938
3.68916
3.74354
3.77617
4.06546
4.69041
6.00432
8.58457
13.6653
20.5049
26.2117
27.4996
26.3409
24.3413
21.9234
19.989
18.4329
16.9729
15.9065
15.9539
16.8045
17.856
19.0946
20.5033
21.9485
23.2921
24.3997
25.1759
25.5483
25.4995
25.0482
24.234
23.1215
21.7863
20.3038
18.7485
17.1812
15.6571
14.2105
12.8775
11.6733
10.6227
9.73854
8.95818
8.33763
7.82351
7.43775
7.14316
6.93117
6.78051
6.67852
6.60801
6.5602
6.52167
6.47429
6.41682
6.35809
6.30368
6.24327
6.17753
6.10798
6.04542
5.9907
5.95137
5.91931
5.8978
5.88117
5.8753
5.87252
5.87598
5.87759
5.87769
5.86843
5.85188
5.82267
5.7772
5.70751
5.61326
5.49246
5.34502
5.16877
4.96309
4.72905
4.46776
4.18211
3.8724
3.54099
3.18745
2.8141
2.42042
2.00996
1.58056
1.14188
0.674597
0.252637
3.76319
3.38406
3.20866
3.22052
3.36717
3.55569
3.69268
3.7361
3.74716
4.00979
4.6067
5.88283
8.37649
13.2988
19.9987
25.5717
26.8578
25.7799
23.8476
21.4981
19.6073
18.0386
16.5278
15.4721
15.5754
16.4127
17.4364
18.6718
20.0824
21.5313
22.8802
23.995
24.7774
25.1574
25.1151
24.6701
23.8631
22.7595
21.435
19.9655
18.4252
16.8734
15.3667
13.9373
12.6213
11.4353
10.4032
9.53954
8.78074
8.17937
7.68642
7.32146
7.04771
6.85463
6.72157
6.63243
6.57506
6.53651
6.50841
6.4693
6.41847
6.35912
6.30145
6.23867
6.17119
6.10054
6.03678
5.98025
5.94066
5.90924
5.88901
5.87361
5.86945
5.86933
5.87595
5.88085
5.8844
5.8786
5.86556
5.83958
5.79669
5.72899
5.63606
5.5156
5.36732
5.1893
4.98109
4.74431
4.48048
4.19235
3.88058
3.54748
3.19253
2.81806
2.42343
2.01222
1.5822
1.14324
0.676121
0.252245
3.76291
3.38394
3.20722
3.22259
3.37221
3.56098
3.69469
3.72812
3.71705
3.95886
4.53245
5.77554
8.19053
12.9687
19.5173
24.9359
26.2156
25.2182
23.3515
21.069
19.2197
17.6341
16.078
15.0403
15.1933
16.0098
17.0113
18.2429
19.655
21.1083
22.4638
23.586
24.375
24.7635
24.7286
24.2906
23.4915
22.3974
21.0842
19.6279
18.1032
16.5677
15.0776
13.666
12.3672
11.1989
10.1839
9.34149
8.60682
8.02398
7.55169
7.20801
6.95423
6.78004
6.6651
6.58993
6.5457
6.51317
6.49195
6.46116
6.42006
6.3641
6.30284
6.23537
6.16565
6.09421
6.02884
5.9702
5.92916
5.89774
5.87873
5.86504
5.86277
5.86528
5.87498
5.88336
5.89059
5.88832
5.87867
5.85562
5.81514
5.74937
5.65754
5.53712
5.3878
5.20798
4.99753
4.75816
4.49209
4.20178
3.88818
3.5536
3.19749
2.82215
2.42679
2.01501
1.58446
1.14534
0.678096
0.25336
3.76263
3.38427
3.20678
3.2256
3.37751
3.56817
3.69806
3.71951
3.683
3.9069
4.46029
5.67131
8.00989
12.6509
19.0318
24.2761
25.5444
24.6237
22.8263
20.6148
18.8066
17.2009
15.6079
14.597
14.7933
15.5844
16.5677
17.7951
19.2088
20.6669
22.0294
23.1599
23.9563
24.3537
24.3277
23.8981
23.1075
22.0239
20.7229
19.2809
17.7721
16.254
14.781
13.3875
12.1067
10.956
9.95943
9.13633
8.42883
7.86618
7.41488
7.0934
6.86025
6.70448
6.60837
6.54901
6.52034
6.49549
6.4761
6.44913
6.41622
6.36824
6.30642
6.23384
6.16048
6.08846
6.02253
5.96227
5.91868
5.88631
5.86817
5.8565
5.85634
5.8614
5.87401
5.88603
5.89721
5.89863
5.89229
5.87183
5.83356
5.76957
5.67869
5.5582
5.4079
5.22626
5.01385
4.77228
4.50399
4.21174
3.89643
3.56046
3.20327
2.82713
2.4311
2.01878
1.58763
1.14831
0.680294
0.256259
3.76077
3.38339
3.20583
3.22771
3.38122
3.57373
3.70017
3.70988
3.64895
3.85809
4.39623
5.57964
7.84927
12.3645
18.5714
23.6289
24.8818
24.0336
22.3042
20.1601
18.3878
16.7601
15.1362
14.1585
14.3891
15.1518
16.1196
17.3429
18.7581
20.2224
21.5916
22.7305
23.536
23.9423
23.9259
23.5056
22.7243
21.6517
20.3634
18.9359
17.4433
15.9429
14.4876
13.1122
11.8494
10.7156
9.73762
8.93119
8.25181
7.71182
7.28155
6.98211
6.77049
6.63153
6.55367
6.51007
6.49763
6.48424
6.46627
6.43983
6.41033
6.36734
6.30809
6.2321
6.15436
6.08001
6.01482
5.95471
5.9086
5.87471
5.85688
5.84718
5.84929
5.85679
5.87223
5.88797
5.90319
5.90837
5.90523
5.88716
5.85089
5.78848
5.69856
5.57806
5.42704
5.24388
5.02961
4.78637
4.51605
4.22203
3.9051
3.56782
3.20963
2.83269
2.43594
2.02302
1.59119
1.15153
0.682159
0.260392
3.75935
3.38278
3.20545
3.23096
3.38621
3.57992
3.70387
3.69785
3.61328
3.80774
4.33485
5.49011
7.69353
12.0881
18.1062
22.9653
24.1994
23.4179
21.7562
19.6828
17.943
16.2923
14.6468
13.7083
13.9664
14.6992
15.6548
16.8743
18.291
19.761
21.1374
22.2848
23.1015
23.5174
23.5109
23.1009
22.3298
21.2691
19.9944
18.5822
17.1066
15.6243
14.1874
12.8302
11.5864
10.4705
9.51084
8.7206
8.06856
7.55404
7.14675
6.86994
6.68141
6.56024
6.49877
6.47285
6.47705
6.47499
6.46156
6.43695
6.40944
6.36565
6.30817
6.23098
6.14915
6.07028
6.0049
5.94616
5.89885
5.86364
5.84583
5.83792
5.8424
5.85232
5.87078
5.89035
5.90949
5.91842
5.91849
5.90286
5.86852
5.80766
5.71886
5.59862
5.44694
5.26269
5.04667
4.80181
4.52965
4.23393
3.91539
3.57675
3.21744
2.83947
2.44165
2.0278
1.59495
1.15456
0.683409
0.264598
3.75707
3.38145
3.20389
3.23307
3.39044
3.58347
3.70679
3.68366
3.57905
3.76
4.28164
5.41042
7.55558
11.8392
17.6625
22.3199
23.5333
22.8132
21.2135
19.2066
17.4931
15.8191
14.1587
13.2615
13.5387
14.2409
15.1879
16.4033
17.8214
19.2967
20.6809
21.8377
22.6667
23.0927
23.0962
22.6968
21.9368
20.8887
19.628
18.2312
16.7732
15.3089
13.8905
12.5511
11.3262
10.2298
9.28723
8.51411
7.88601
7.39794
7.01494
6.76087
6.59618
6.49366
6.44645
6.43887
6.45726
6.46645
6.46098
6.43973
6.41306
6.36679
6.30729
6.22991
6.14471
6.06099
5.99295
5.93491
5.88783
5.8518
5.83395
5.82753
5.83429
5.84669
5.86848
5.89199
5.91493
5.9275
5.93087
5.91786
5.88564
5.8266
5.73899