/*--------------------------------*- C++ -*----------------------------------*\
| =========                 |                                                 |
| \\      /  F ield         | OpenFOAM: The Open Source CFD Toolbox           |
|  \\    /   O peration     | Version:  4.1                                   |
|   \\  /    A nd           | Web:      www.OpenFOAM.org                      |
|    \\/     M anipulation  |                                                 |
\*---------------------------------------------------------------------------*/
FoamFile
{
    version     2.0;
    format      ascii;
    class       surfaceScalarField;
    location    "18";
    object      phi;
}
// * * * * * * * * * * * * * * * * * * * * * * * * * * * * * * * * * * * * * //

dimensions      [0 3 -1 0 0 0 0];

internalField   nonuniform List<scalar> 
52920
(
1772.29
-79.1364
1843.75
-74.3414
1917.03
-72.5346
1987.13
-71.9329
2063.78
-69.0162
2127.74
-68.2265
2197.82
-62.7337
2254.37
-57.822
2305.38
-42.181
2328.36
-17.9888
2296.6
40.967
2188.96
111.188
2088.12
83.8332
2110.76
6.80258
2115.83
-5.06949
2172.75
-45.2845
2325.72
-157.068
2528.88
-201.719
2708.5
-180.549
2832.96
-129.716
2931.63
-104.579
3021.74
-92.0205
3113.78
-96.0618
3217.65
-107.554
3328.87
-113.706
3429.3
-102.494
3493.48
-65.6453
3535.63
-44.4197
3581.11
-47.1507
3628.41
-48.773
3674.08
-47.1876
3721.49
-49.6935
3776.23
-56.4748
3841.65
-67.1638
3919.65
-79.1884
4008.98
-90.4566
4108.54
-100.475
4215.27
-108.039
4327.62
-113.336
4442.8
-116.691
4560.11
-118.316
4677.68
-118.647
4795.07
-117.988
4911.07
-116.675
5025.68
-114.812
5137.55
-112.564
5246.01
-110.074
5354.64
-107.532
5458.9
-104.665
5561.87
-102.107
5661.69
-99.6196
5759.76
-97.4523
5855.75
-95.4408
5949.83
-93.7148
6042.63
-92.2106
6133.67
-90.9475
6224.12
-89.879
6313.03
-88.9701
6401.63
-88.2108
6488.97
-87.5352
6576.19
-86.9525
6662.37
-86.4032
6748.42
-85.9107
6833.58
-85.4163
6918.6
-84.962
7002.85
-84.5091
7086.95
-84.098
7170.36
-83.68
7253.64
-83.3025
7336.32
-82.9424
7418.92
-82.654
7501.07
-82.4064
7583.25
-82.2392
7665.12
-82.122
7747.14
-82.0911
7829.01
-82.1254
7911.18
-82.2516
7993.38
-82.4527
8076.01
-82.7427
8158.87
-83.1008
8242.28
-83.5323
8326.07
-84.0194
8410.5
-84.5656
8495.43
-85.1555
8581.08
-85.7905
8667.34
-86.4585
8754.35
-87.1612
8842.06
-87.8869
8930.54
-88.6348
9019.79
-89.391
9109.79
-90.1538
9200.58
-90.907
9292.09
-91.6521
9384.37
-92.3603
9477.34
-93.0797
9570.89
-93.5988
9665.27
-94.4656
9759.37
-94.1068
9856.04
-96.7273
-94.316
1892.42
-165.9
1973
-157.636
2056.59
-154.919
2136.47
-153.15
2226.29
-149.753
2299.39
-145.077
2382.38
-137.172
2448.45
-124.828
2510.66
-95.3338
2537.47
-42.0749
2502.41
78.5892
2381.41
227.406
2282.81
161.679
2331.59
-7.8681
2360.47
-30.9315
2449.76
-116.872
2645.53
-348.853
2885.01
-434.036
3085.86
-381.215
3222.85
-272.904
3331.96
-220.32
3434.93
-198.106
3542.46
-208.728
3662.07
-232
3786.39
-241.28
3897.19
-215.869
3968.29
-139.324
4017.05
-96.6408
4071.7
-104.327
4129.57
-108.893
4186.09
-105.872
4244.77
-111.279
4311.38
-125.456
4389.49
-147.618
4480.97
-172.315
4583.89
-194.943
4696.65
-214.524
4815.95
-228.954
4939.93
-238.653
5065.66
-244.121
5192.12
-246.006
5317.34
-245.108
5440.75
-242.198
5561.19
-237.921
5678.6
-232.619
5791.82
-226.64
5900.34
-220.208
6007.41
-213.694
6109.1
-206.784
6208.26
-200.494
6303.35
-194.503
6395.66
-189.138
6485.03
-184.205
6571.6
-179.852
6656.08
-175.998
6737.98
-172.649
6818.49
-169.699
6896.7
-167.119
6973.82
-164.823
7048.95
-162.761
7123.23
-160.862
7195.78
-159.104
7267.52
-157.446
7337.74
-155.858
7407.21
-154.333
7475.33
-152.875
7542.72
-151.488
7608.9
-150.141
7674.41
-148.862
7738.82
-147.657
7802.64
-146.566
7865.5
-145.58
7927.88
-144.72
7989.43
-143.979
8050.6
-143.381
8111.09
-142.92
8171.33
-142.614
8231.05
-142.458
8290.62
-142.448
8349.81
-142.572
8408.96
-142.813
8467.86
-143.168
8526.77
-143.62
8585.55
-144.163
8644.41
-144.783
8703.24
-145.479
8762.18
-146.239
8821.19
-147.059
8880.35
-147.925
8939.66
-148.829
8999.13
-149.758
9058.83
-150.696
9118.69
-151.634
9178.81
-152.546
9239.07
-153.439
9299.71
-154.271
9360.01
-154.836
9422.1
-156.199
9478.36
-153.026
-157.299
2029.19
-261.003
2119.15
-250.538
2211.78
-247.19
2301.29
-244.749
2399.88
-240.99
2483.2
-232.857
2575.14
-222.112
2651.06
-202.135
2721.69
-157.372
2757.08
-71.9582
2733.85
112.776
2639.33
327.273
2578.81
208.891
2650.73
-55.8523
2704.29
-86.4528
2810.54
-215.239
3012.08
-556.686
3244.85
-666.695
3434.02
-571.728
3560.97
-404.387
3662.88
-327.519
3757.76
-294.508
3852.95
-307.751
3954.83
-337.484
4061.77
-350.872
4162.87
-319.236
4230.27
-208.104
4276.82
-145.029
4328.37
-157.069
4382.03
-163.609
4433.2
-158.167
4484.8
-164.758
4540.83
-182.89
4602.97
-211.261
4671.04
-241.383
4742.16
-267.08
4814.87
-288.128
4886.08
-301.398
4954.47
-307.923
5018.22
-309.256
5077.62
-306.299
5132.07
-300.563
5182.24
-292.895
5227.99
-284.284
5270.12
-274.892
5308.06
-265.329
5341.74
-255.873
5375.12
-245.614
5404.15
-236.336
5432.08
-227.271
5457.11
-219.283
5480.66
-211.873
5502.37
-205.195
5522.31
-199.346
5541.09
-193.986
5558.05
-189.557
5574.42
-185.291
5589.05
-181.907
5603.29
-178.531
5616.05
-175.868
5628.63
-173.08
5640.01
-170.874
5651.27
-168.533
5661.61
-166.629
5671.95
-164.599
5681.6
-162.955
5691.34
-161.238
5700.6
-159.838
5710.08
-158.391
5719.28
-157.279
5728.84
-156.218
5738.36
-155.511
5748.44
-154.899
5758.71
-154.663
5769.77
-154.566
5781.3
-154.872
5793.89
-155.342
5807.24
-156.225
5821.9
-157.285
5837.63
-158.716
5854.91
-160.305
5873.56
-162.215
5893.98
-164.278
5916.05
-166.605
5940.08
-169.071
5966.01
-171.75
5994.06
-174.564
6024.25
-177.538
6056.68
-180.632
6091.43
-183.83
6128.53
-187.12
6168.09
-190.454
6210.05
-193.832
6254.57
-197.208
6301.42
-200.484
6351.07
-204.013
6402.4
-206.303
6457.52
-211.348
6513.45
-209.025
-215.082
2163.19
-360.012
2260.72
-350.155
2360.25
-345.78
2456.61
-342.186
2560.72
-337.263
2650.09
-325.288
2746.68
-311.066
2828.27
-284.16
2905.19
-225.781
2950.03
-113.738
2939.89
124.942
2862.27
398.359
2818.3
236.466
2892.54
-101.478
2939.69
-132.643
3025.93
-288.628
3195.19
-727.471
3375.3
-845.471
3502.83
-702.019
3567.88
-475.725
3610.78
-376.899
3640.93
-328.858
3655.46
-328.592
3665.34
-354.062
3690.6
-381.967
3737.31
-371.587
3764.85
-241.513
3770.67
-156.931
3775.99
-166.804
3777
-168.823
3770.78
-155.672
3761.29
-159.245
3749.05
-173.761
3728.61
-194.308
3695.32
-211.139
3649.76
-225.066
3597.33
-239.178
3539.93
-247.984
3481.11
-252.46
3423.17
-255.294
3369.8
-255.929
3322.14
-255.858
3281.73
-254.484
3248.04
-252.551
3221.37
-249.292
3199.47
-245.479
3180.88
-240.968
3170.34
-233.345
3160.36
-227.412
3154.74
-220.167
3149.71
-213.915
3146.65
-207.579
3144.32
-201.654
3142.28
-196.434
3141.12
-191.402
3139.44
-187.457
3139
-183.431
3137.79
-180.532
3137.79
-177.496
3137.17
-175.391
3137.9
-173.082
3138.26
-171.513
3139.88
-169.773
3141.39
-168.565
3144.18
-167.228
3147.08
-166.354
3151.24
-165.431
3155.7
-164.878
3161.5
-164.337
3167.83
-164.21
3175.62
-164.248
3184.23
-164.752
3194.57
-165.507
3206.05
-166.769
3219.56
-168.361
3234.58
-170.503
3251.99
-173.029
3271.3
-176.116
3293.31
-179.581
3317.59
-183.539
3344.83
-187.816
3374.64
-192.503
3407.54
-197.454
3443.24
-202.721
3482.11
-208.195
3523.93
-213.904
3568.89
-219.775
3616.89
-225.807
3667.98
-231.946
3722.11
-238.166
3779.21
-244.428
3839.3
-250.687
3902.19
-256.904
3967.95
-263.064
4036.28
-268.959
4107.31
-275.074
4180.83
-279.926
4255.45
-285.968
4337.73
-291.345
-292.263
2273.95
-462.129
2373.46
-452.311
2472.83
-445.05
2567.55
-439.18
2668.21
-431.762
2754.02
-415.44
2846.27
-397.137
2925.27
-364.459
3003.02
-295.177
3054.9
-159.063
3054.34
138.798
2976.99
483.218
2920.34
279.75
2970.57
-132.487
2982.11
-148.728
3018.54
-318.19
3110.54
-830.097
3168.8
-906.075
3165.97
-701.631
3108.62
-425.265
3041.43
-318.953
2959.93
-249.941
2841.63
-217.162
2703.34
-222.214
2585.96
-270.438
2518.26
-311.046
2443.22
-174.669
2343.48
-72.7835
2230.55
-71.5748
2095.13
-52.1095
1950.25
-21.0413
1815.69
-34.5835
1692.51
-56.9306
1577.1
-85.5334
1465.65
-106.699
1361
-128.771
1285.93
-169.313
1245.14
-212.477
1240.67
-251.46
1267.18
-286.177
1320.59
-312.109
1392.23
-330.201
1476.42
-340.154
1566.23
-343.833
1658.38
-341.915
1747.3
-336.225
1830.26
-327.689
1914.85
-315.335
1989.95
-303.289
2062.37
-290.571
2127.76
-278.778
2189.11
-267.532
2245.82
-257.153
2298.14
-248.012
2347.72
-239.755
2393.32
-232.953
2437.76
-226.753
2478.89
-221.881
2519.5
-217.414
2557.54
-213.937
2595.51
-210.632
2631.48
-208.048
2667.38
-205.516
2701.66
-203.457
2735.89
-201.427
2768.77
-199.822
2801.54
-198.279
2833.15
-197.07
2864.69
-195.991
2895.3
-195.358
2925.96
-195.064
2956
-195.314
2986.35
-196.021
3016.4
-197.338
3047.06
-199.214
3077.8
-201.77
3109.51
-204.954
3141.7
-208.834
3175.18
-213.316
3209.5
-218.401
3245.38
-223.989
3282.43
-230.068
3321.18
-236.549
3361.37
-243.404
3403.37
-250.562
3447.01
-257.995
3492.51
-265.655
3539.8
-273.503
3588.98
-281.491
3640.04
-289.572
3692.96
-297.697
3747.81
-305.815
3804.46
-313.861
3863.01
-321.824
3923.29
-329.484
3985.26
-337.171
4049.22
-344.057
4113.74
-350.541
4180.93
-358.619
-361.741
2334.95
-553.352
2424.63
-543.816
2512.93
-532.617
2595.89
-523.396
2684.31
-512.858
2758.22
-492.41
2838.87
-470.037
2908.42
-433.908
2981.98
-358.743
3038.2
-209.68
3043.87
137.56
2950.49
567.273
2855.01
355.957
2866.68
-115.561
2831.29
-115.987
2799.74
-277.895
2754.28
-795.694
2607.9
-766.364
2447.37
-550.143
2277.97
-269.255
2133.16
-190.551
1996.39
-123.989
1837.07
-76.9592
1678.66
-87.2406
1482.7
-102.876
1308.93
-167.886
1073.83
31.8756
729.914
240.203
281.75
346.38
-130.861
329.505
-312.907
140.589
-335.123
-31.7668
-207.875
-200.278
1.00918
-309.992
176.124
-296.835
344.559
-313.473
531.837
-368.192
717.936
-408.859
899.686
-440.59
1071.47
-465.344
1234.53
-480.383
1386.37
-486.666
1527.87
-484.808
1657.95
-476.732
1777.76
-463.468
1885.57
-446.856
1981.42
-427.878
2073.75
-406.102
2154.11
-384.9
2229.32
-364.355
2296.36
-345.51
2358.27
-328.202
2415.02
-312.622
2467.01
-299.061
2515.99
-287.223
2560.95
-277.387
2604.54
-268.834
2644.9
-261.976
2684.6
-256.007
2721.83
-251.214
2758.87
-246.897
2794
-243.376
2828.95
-240.071
2862.37
-237.243
2895.65
-234.543
2927.64
-232.269
2959.43
-230.114
2990.09
-228.286
3020.59
-226.658
3050.15
-225.517
3079.64
-224.821
3108.45
-224.751
3137.41
-225.273
3165.96
-226.518
3194.94
-228.493
3223.85
-231.289
3253.52
-234.907
3283.49
-239.367
3314.51
-244.61
3346.18
-250.59
3379.17
-257.233
3413.14
-264.479
3448.61
-272.259
3485.34
-280.506
3523.72
-289.161
3563.6
-298.17
3605.24
-307.488
3648.57
-317.059
3693.74
-326.831
3740.76
-336.745
3789.64
-346.739
3840.49
-356.754
3893.2
-366.708
3947.89
-376.565
4004.43
-386.132
4062.8
-395.548
4123.07
-404.403
4184.98
-412.424
4247.45
-421.12
-427.091
2310.83
-632.493
2388.62
-624.101
2463.97
-608.184
2532.58
-594.551
2605.71
-579.777
2663.65
-554.96
2728.46
-528.385
2784.29
-491.264
2851.38
-417.071
2912.25
-263.391
2922.24
142.589
2803.15
695.317
2654.72
488.146
2634.97
-72.5593
2555.4
-44.9106
2392.95
-105.833
2135.05
-563.812
1796.26
-432.534
1612.23
-369.022
1475.23
-151.109
1341.3
-79.3027
1245.61
-30.6234
1169.68
-17.627
1183.35
-116.791
841.275
227.394
48.5817
615.242
-563.933
639.326
-768.636
438.022
-775.566
348.77
-676.08
225.647
-516.706
-24.6832
-322.363
-237.914
-135.446
-397.595
14.3883
-469.35
188.961
-477.462
389.007
-518.287
584.044
-566.357
771.919
-600.311
951.833
-622.728
1119.75
-636.327
1277.05
-639.504
1422.23
-633.66
1556.5
-619.969
1679.34
-600.464
1792.06
-576.35
1893.25
-549.434
1983.09
-520.771
2069.53
-490.151
2144.83
-460.735
2215.25
-432.934
2278.03
-407.75
2335.92
-384.866
2389
-364.611
2437.55
-347.021
2483.32
-331.947
2525.28
-319.351
2566.03
-308.666
2603.76
-300.011
2640.97
-292.681
2675.91
-286.71
2710.8
-281.479
2743.97
-277.136
2777.12
-273.138
2808.92
-269.649
2840.72
-266.365
2871.41
-263.522
2902.04
-260.833
2931.7
-258.484
2961.32
-256.384
2990.14
-254.829
3019
-253.816
3047.3
-253.519
3075.85
-253.948
3104.09
-255.224
3132.83
-257.392
3161.59
-260.533
3191.18
-264.674
3221.13
-269.808
3252.18
-275.894
3283.93
-282.849
3317.03
-290.617
3351.14
-299.1
3386.79
-308.239
3423.73
-317.94
3462.35
-328.153
3502.53
-338.803
3544.5
-349.85
3588.25
-361.223
3633.91
-372.868
3681.52
-384.714
3731.11
-396.691
3782.79
-408.727
3836.49
-420.723
3892.32
-432.615
3950.16
-444.224
4010.02
-455.55
4071.81
-466.373
4135.51
-476.181
4200.58
-486.272
-493.956
2231.27
-692.803
2291.2
-686.01
2346.65
-663.272
2393.09
-642.859
2443.43
-622.741
2478.53
-593.822
2522.58
-563.846
2562.12
-530.295
2624.06
-466.216
2694.45
-323.798
2713.64
132.77
2579.61
817.024
2358.58
668.799
2292.69
25.742
2200.12
39.6205
1867.51
240.781
1344.45
-84.659
902.957
-13.1094
886.691
-368.096
887.445
-181.872
845.261
-79.1637
840.35
-43.4514
665.526
126.916
169.136
351.767
-377.145
751.912
-758.152
976.897
-900.793
764.129
-845.038
364.807
-720.826
211.24
-574.927
67.2799
-439.975
-171.637
-315.48
-377.595
-185.748
-539.99
-28.9588
-638.474
166.074
-682.3
365.476
-726.551
560.797
-768.992
748.945
-795.642
929.09
-808.475
1097.42
-810.522
1254.98
-801.451
1400.38
-783.102
1534.71
-757.195
1657.5
-725.875
1769.99
-690.549
1870.89
-653.045
1960.42
-614.36
2046.19
-574.638
2120.95
-536.708
2190.63
-501.369
2252.66
-469.495
2309.68
-440.758
2361.86
-415.526
2409.43
-393.697
2454.17
-375.185
2495.07
-359.709
2534.72
-346.801
2571.34
-336.323
2607.41
-327.622
2641.23
-320.507
2674.96
-314.422
2707
-309.328
2739
-304.718
2769.67
-300.645
2800.32
-296.855
2829.87
-293.507
2859.33
-290.343
2887.82
-287.52
2916.25
-285
2943.88
-283.065
2971.53
-281.754
2998.6
-281.238
3025.9
-281.565
3052.89
-282.86
3080.37
-285.203
3107.88
-288.672
3136.23
-293.316
3164.95
-299.108
3194.79
-306.011
3225.35
-313.929
3257.3
-322.807
3290.29
-332.527
3324.85
-343.027
3360.76
-354.204
3398.41
-366.006
3437.68
-378.347
3478.84
-391.183
3521.86
-404.437
3566.89
-418.045
3613.97
-431.923
3663.14
-445.989
3714.49
-460.147
3767.93
-474.282
3823.58
-488.291
3881.26
-501.999
3941.01
-515.294
4002.65
-528.08
4066.08
-539.586
4131.43
-551.643
-560.472
2085.32
-726.084
2113.44
-716.886
2137.37
-687.447
2153.61
-662.288
2177.76
-639.937
2190.58
-612.146
2218.22
-584.047
2248.72
-562.554
2313.76
-520.961
2402.13
-403.142
2451.11
101.444
2337.44
941.841
2013.43
974.456
1854.33
224.198
1741.24
132.6
1424.44
567.273
918.626
390.154
495.387
410.513
568.62
-443.913
668.048
-325.815
649.875
-110.003
430.887
173.768
-68.7437
621.205
-623.919
906.628
-900.746
1028.62
-939.845
1014.24
-883.931
706.392
-820.2
294.798
-726.046
113.716
-593.469
-67.6224
-462.874
-304.796
-333.204
-513.275
-191.118
-686.358
-26.3135
-807.72
164.72
-876.006
360.875
-924.528
554.635
-963.627
741.741
-984.281
920.974
-988.525
1088.64
-979.899
1245.48
-959.19
1390.15
-928.83
1523.6
-891.044
1645.44
-848.166
1756.81
-801.805
1856.55
-753.85
1944.94
-705.342
2029.33
-656.637
2102.85
-610.548
2171.19
-567.89
2231.95
-529.666
2287.67
-495.326
2338.6
-465.407
2384.94
-439.562
2428.49
-417.793
2468.24
-399.581
2506.76
-384.53
2542.32
-372.296
2577.34
-362.221
2610.16
-353.963
2642.89
-346.957
2673.98
-341.065
2705.02
-335.746
2734.76
-331.016
2764.45
-326.614
2793.04
-322.669
2821.5
-318.916
2848.98
-315.525
2876.35
-312.476
2902.9
-310.076
2929.42
-308.381
2955.32
-307.582
2981.41
-307.76
3007.16
-309.049
3033.39
-311.559
3059.62
-315.369
3086.68
-320.539
3114.11
-327.024
3142.66
-334.795
3171.95
-343.735
3202.65
-353.791
3234.42
-364.82
3267.8
-376.762
3302.57
-389.497
3339.14
-402.973
3377.39
-417.084
3417.56
-431.779
3459.63
-446.963
3503.73
-462.56
3549.87
-478.461
3598.06
-494.568
3648.34
-510.757
3700.6
-526.894
3754.91
-542.843
3811.05
-558.42
3869.05
-573.446
3928.68
-587.909
3989.83
-600.807
4052.77
-614.679
-624.327
1841.46
-699.008
1823.64
-701.757
1817.39
-681.466
1813.11
-661.096
1825.22
-644.049
1830.94
-623.07
1857.2
-600.393
1890.41
-594.894
1966.11
-580.123
2077.91
-499.116
2168.98
26.4555
2068.63
1031.68
1545.05
1446.56
1203.92
583.756
1186.32
127.54
1189.5
587.471
726.14
806.604
288.953
801.567
459.327
-628.696
493.601
-406.097
162.941
184.187
-280.888
608.754
-666.6
993.075
-920.063
1145.68
-984.353
1076.9
-937.257
948.971
-881.947
632.66
-834.231
229.093
-737.192
4.60758
-608.814
-206.12
-477.313
-445.081
-340.337
-660.634
-190.821
-844.338
-24.5031
-982.614
162.027
-1069.57
355.038
-1123.86
546.827
-1160.71
732.427
-1175.36
910.301
-1170.89
1076.88
-1151.38
1232.64
-1118.78
1376.29
-1076.12
1508.62
-1026.11
1629.28
-971.31
1739.33
-913.565
1837.73
-854.861
1924.78
-796.257
2007.58
-738.315
2079.64
-683.753
2146.4
-633.522
2205.65
-588.595
2259.79
-548.42
2309.22
-513.55
2354.06
-483.534
2396.16
-458.362
2434.48
-437.364
2471.65
-420.157
2505.91
-406.208
2539.67
-394.827
2571.3
-385.526
2602.88
-377.729
2632.87
-371.167
2662.84
-365.28
2691.54
-360.02
2720.21
-355.123
2747.8
-350.678
2775.25
-346.423
2801.72
-342.539
2828.07
-339.033
2853.58
-336.212
2879.04
-334.161
2903.88
-333.086
2928.88
-333.104
2953.52
-334.372
2978.64
-337.023
3003.75
-341.145
3029.7
-346.801
3056
-353.94
3083.44
-362.529
3111.62
-372.452
3141.22
-383.639
3171.89
-395.939
3204.19
-409.28
3237.87
-423.535
3273.34
-438.631
3310.43
-454.447
3349.39
-470.902
3390.13
-487.887
3432.72
-505.296
3477.15
-523.007
3523.35
-540.896
3571.35
-558.825
3620.99
-576.648
3672.33
-594.207
3725.13
-611.316
3779.43
-627.753
3835
-643.554
3891.8
-657.591
3949.9
-672.807
-683.434
1469.79
-650.681
1445.6
-680.635
1441.84
-678.148
1443.47
-666.666
1464.04
-655.959
1477.15
-642.71
1511.92
-626.22
1552.29
-637.42
1636.5
-653.179
1765.47
-618.275
1891.71
-81.6843
1826.41
1108.09
1281.56
1986.72
753.281
1146.32
711.491
135.262
974.998
333.88
536.635
1229.41
207.102
1143.77
39.0117
-455.776
-165.98
-223.439
-464.511
471.748
-756.627
904.168
-937.412
1174.53
-997.014
1207.12
-985.603
1067.1
-940.043
903.448
-897.123
589.616
-843.151
171.35
-745.892
-94.1704
-621.849
-330.893
-488.478
-579.028
-346.822
-805.092
-192.717
-1000.11
-25.0737
-1152.13
158.861
-1254.31
349.48
-1314.85
539.458
-1350.39
723.551
-1359.8
899.991
-1347.23
1065.34
-1317.48
1219.88
-1273.53
1362.34
-1219.02
1493.42
-1157.14
1612.77
-1090.72
1721.42
-1021.82
1818.38
-952.538
1903.99
-884.058
1985.14
-817.044
2055.62
-754.358
2120.71
-696.8
2178.31
-645.533
2230.76
-599.798
2278.54
-560.291
2321.71
-526.339
2362.19
-497.973
2398.92
-474.346
2434.53
-455.082
2467.28
-439.493
2499.58
-426.816
2529.8
-416.482
2560.01
-407.833
2588.68
-400.559
2617.36
-394.017
2644.82
-388.16
2672.26
-382.67
2698.63
-377.634
2724.86
-372.777
2750.12
-368.319
2775.25
-364.262
2799.54
-360.949
2823.76
-358.473
2847.34
-357.078
2871.07
-356.91
2894.43
-358.149
2918.24
-360.948
2942.04
-365.401
2966.67
-371.568
2991.63
-379.388
3017.71
-388.835
3044.5
-399.773
3072.68
-412.122
3101.9
-425.704
3132.68
-440.444
3164.77
-456.18
3198.53
-472.818
3233.74
-490.199
3270.59
-508.215
3308.94
-526.734
3348.81
-545.634
3390.15
-564.789
3432.87
-584.062
3477.01
-603.329
3522.4
-622.437
3569.15
-641.229
3617.01
-659.503
3666.1
-677.027
3716.14
-693.811
3767.24
-708.78
3819.02
-724.693
-736.749
1141.24
-609.278
1124.03
-667.31
1129.06
-684.398
1140.22
-682.477
1171.04
-677.793
1191.56
-670.16
1233.23
-656.593
1276.18
-679.161
1359.79
-716.701
1494.79
-730.699
1643.01
-206.925
1654.83
1091.55
1228.45
2378.12
541.677
1822.92
374.716
256.26
768.665
-31.9275
315.625
1634.39
105.332
1283.32
-234.792
-133.655
-557.791
73.0976
-787.069
687.067
-936.369
1047.55
-1003.55
1231.05
-1007.09
1197.83
-991.941
1037.33
-955.596
850.192
-911.088
527.408
-850.421
95.2437
-754.069
-201.152
-632.392
-461.384
-497.765
-720.91
-352.814
-958.236
-195.6
-1163.9
-26.7873
-1327.47
155.541
-1441.98
344.124
-1508.26
532.26
-1542.53
714.696
-1546.54
889.513
-1525.68
1053.41
-1485.48
1206.52
-1429.96
1347.59
-1363.34
1477.23
-1289.28
1595.11
-1210.9
1702.21
-1130.51
1797.58
-1050.4
1881.62
-971.751
1961
-895.417
2029.79
-824.222
2093.09
-759.046
2148.95
-701.03
2199.6
-649.46
2245.63
-605.001
2287.05
-566.912
2325.82
-535.172
2360.86
-508.836
2394.85
-487.488
2426
-470.279
2456.76
-456.383
2485.49
-445.114
2514.25
-435.769
2541.52
-427.918
2568.82
-420.89
2594.96
-414.578
2621.07
-408.628
2646.12
-403.11
2671.02
-397.757
2694.96
-392.809
2718.74
-388.279
2741.66
-384.516
2764.48
-381.634
2786.62
-379.915
2808.88
-379.532
2830.72
-380.7
2852.98
-383.588
2875.18
-388.299
2898.16
-394.885
2921.4
-403.286
2945.73
-413.475
2970.68
-425.307
2996.96
-438.673
3024.17
-453.383
3052.83
-469.334
3082.61
-486.336
3113.85
-504.248
3146.26
-522.883
3179.98
-542.108
3214.84
-561.788
3250.87
-581.806
3288.01
-602.056
3326.23
-622.415
3365.6
-642.774
3406
-662.973
3447.57
-682.835
3490.08
-702.127
3533.64
-720.594
3577.9
-738.166
3623.1
-753.967
3668.32
-769.945
-784.133
885.6
-587.417
883.982
-669.17
901.286
-702.041
922.976
-708.878
963.772
-708.084
990.244
-704.189
1036.33
-692.326
1078.47
-723.642
1154.48
-780.566
1281.89
-846.627
1430.49
-336.323
1509.35
1024.65
1219.8
2671.76
568.724
2501.99
270.145
536.137
469.702
-227.709
175.818
1908.43
17.5562
1475.38
-354.867
247.744
-710.854
417.335
-885.443
853.926
-974.498
1140.12
-1009.93
1268.48
-1012.21
1203.2
-1003.09
1031.31
-969.119
817.791
-921.424
481.472
-857.182
29.2276
-761.337
-297.281
-641.1
-581.496
-505.532
-856.145
-358.241
-1106.83
-198.909
-1323.71
-29.1655
-1497.87
152.046
-1623.11
338.811
-1694.71
525.15
-1728.01
705.869
-1726.97
878.972
-1698.14
1041.28
-1647.93
1192.82
-1581.24
1332.34
-1502.87
1460.38
-1416.96
1576.62
-1326.91
1682.01
-1235.28
1775.65
-1144.51
1857.98
-1055.91
1935.46
-970.437
2002.42
-891.119
2063.79
-818.616
2117.77
-754.275
2166.51
-697.19
2210.67
-648.138
2250.21
-606.187
2287.15
-571.324
2320.39
-542.462
2352.64
-519.149
2382.1
-500.403
2411.23
-485.303
2438.38
-473.109
2465.59
-462.986
2491.38
-454.498
2517.23
-446.877
2541.95
-440.017
2566.65
-433.482
2590.29
-427.356
2613.76
-421.376
2636.25
-415.814
2658.55
-410.672
2679.94
-406.338
2701.18
-402.939
2721.67
-400.801
2742.23
-400.131
2762.29
-401.164
2782.72
-404.093
2802.98
-409.017
2823.96
-415.985
2845.11
-424.939
2867.27
-435.854
2889.95
-448.547
2913.85
-462.889
2938.52
-478.648
2964.48
-495.697
2991.32
-513.786
3019.34
-532.746
3048.23
-552.367
3078.14
-572.53
3108.91
-593.119
3140.65
-614.069
3173.38
-635.284
3207.13
-656.666
3242.01
-678.072
3277.89
-699.304
3314.85
-720.118
3352.58
-740.224
3391.13
-759.354
3430.05
-777.344
3469.71
-793.725
3508.6
-808.956
-826.22
722.585
-594.464
739.483
-691.083
767.407
-732.119
796.119
-743.569
842.403
-744.538
870.179
-740.316
915.881
-725.67
953.541
-759.516
1019.17
-822.89
1129.07
-925.482
1258.12
-435.027
1365.94
918.077
1210.01
2805
677.848
3024.95
203.862
979.264
217.189
-235.052
181.691
1893.46
-0.0322739
1623.75
-441.344
672.548
-755.007
710.871
-897.807
982.817
-974.768
1210.83
-1010.46
1294.49
-1019.73
1200.78
-1012.93
1011.26
-980.202
769.064
-929.698
413.785
-863.468
-50.8957
-767.817
-402.8
-648.401
-709.174
-512.056
-999.124
-363.162
-1262.91
-202.395
-1490.22
-31.9234
-1673.88
148.438
-1807.99
333.544
-1883.9
518.131
-1915.96
697.096
-1909.59
868.418
-1872.61
1029.03
-1812.18
1178.88
-1734.1
1316.7
-1643.74
1443.01
-1545.66
1557.48
-1443.61
1661.02
-1340.42
1752.82
-1238.71
1833.3
-1139.89
1908.76
-1045
1973.77
-957.117
2033.09
-876.964
2085.08
-805.844
2131.76
-742.931
2173.93
-688.942
2211.46
-642.901
2246.47
-604.719
2277.79
-573.239
2308.2
-547.933
2335.86
-527.669
2363.25
-511.467
2388.73
-498.461
2414.32
-487.751
2438.52
-478.781
2462.83
-470.765
2486.04
-463.508
2509.2
-456.526
2531.32
-449.905
2553.24
-443.402
2574.14
-437.297
2594.8
-431.6
2614.48
-426.705
2633.94
-422.775
2652.57
-420.169
2671.19
-419.135
2689.21
-419.94
2707.52
-422.796
2725.56
-427.808
2744.23
-435.025
2762.99
-444.394
2782.66
-455.879
2802.74
-469.26
2823.92
-484.362
2845.68
-500.932
2868.52
-518.799
2892.01
-537.688
2916.47
-557.414
2941.6
-577.797
2967.67
-598.773
2994.6
-620.264
3022.61
-642.246
3051.77
-664.59
3082.1
-687.15
3113.61
-709.674
3146.03
-731.862
3179.26
-753.388
3212.85
-773.937
3246.81
-793.315
3280.71
-811.345
3315.19
-828.179
3348.34
-842.138
-864.246
642.812
-616.498
669.978
-721.41
702.671
-764.942
732.1
-777.849
777.006
-777.612
800.597
-771.669
841.78
-755.658
873.602
-793.878
930.909
-868.748
1022.98
-1006.36
1123.53
-516.471
1227.29
825.382
1166.34
2872.59
731.335
3487.45
104.895
1603.28
-67.1409
-63.0727
43.6864
1774.71
-122.441
1830.14
-513.264
1075.74
-754.014
945.502
-890.704
1113.18
-972.473
1296.56
-1013.21
1338.03
-1026.19
1217.52
-1020.06
1008.99
-990.126
741.821
-936.913
364.169
-869.137
-118.93
-773.592
-497.603
-654.604
-827.273
-517.647
-1135.03
-367.688
-1413.13
-205.908
-1651.69
-34.9027
-1844.77
144.721
-1986.99
328.302
-2066.79
511.169
-2097.68
688.354
-2086.13
857.846
-2041.14
1016.68
-1970.75
1164.72
-1881.53
1300.74
-1779.43
1425.18
-1669.47
1537.76
-1555.69
1639.35
-1441.2
1729.19
-1328.75
1807.71
-1219.93
1881.06
-1115.85
1944.01
-1019.82
2001.17
-932.333
2051.06
-854.911
2095.58
-786.522
2135.66
-727.994
2171.08
-678.172
2204.05
-636.957
2233.35
-603.074
2261.82
-575.909
2287.59
-554.226
2313.16
-536.943
2336.87
-523.133
2360.75
-511.732
2383.29
-502.201
2405.97
-493.653
2427.56
-485.866
2449.1
-478.281
2469.59
-471.01
2489.84
-463.819
2509.04
-456.999
2527.91
-450.562
2545.73
-444.942
2563.25
-440.334
2579.84
-437.135
2596.33
-435.633
2612.13
-436.128
2628.13
-438.851
2643.78
-443.904
2659.99
-451.34
2676.18
-461.106
2693.22
-473.141
2710.51
-487.158
2728.77
-502.953
2747.44
-520.242
2767.04
-538.847
2787.15
-558.48
2808.22
-579.009
2830.06
-600.299
2853.07
-622.355
2877.26
-645.092
2902.87
-668.438
2929.85
-692.137
2958.02
-715.885
2987.15
-739.281
3016.72
-761.931
3046.49
-783.533
3076.04
-803.892
3105.56
-823.073
3134.97
-841.044
3165.4
-858.718
3194.99
-871.865
-901.226
608.854
-645.617
638.898
-756.861
669.897
-798.619
694.188
-808.64
732.949
-806.241
749.836
-797.472
785.385
-778.513
812.259
-818.262
862.754
-893.766
940.432
-1047.05
1015.83
-555.651
1102.1
744.807
1098.44
2862.44
774.326
3809.75
155.937
2198.04
-323.015
401.085
-309.863
1701.24
-267.82
1780.53
-543.871
1342.08
-743.242
1127.91
-885.472
1241.57
-971.85
1376.55
-1015.45
1372.88
-1030.69
1222.14
-1025.91
991.986
-1000.38
700.653
-944.889
293.216
-874.558
-201.665
-778.875
-602.238
-659.985
-953.761
-522.532
-1278.54
-371.859
-1570.19
-209.334
-1819.31
-37.9885
-2020.96
140.916
-2169.83
323.08
-2252.52
504.236
-2281.74
679.615
-2264.68
847.231
-2211.48
1004.2
-2130.94
1150.35
-2030.39
1284.45
-1916.32
1406.91
-1794.18
1517.49
-1668.36
1617.03
-1542.25
1704.81
-1418.82
1781.29
-1299.72
1852.44
-1186.18
1913.24
-1081.51
1968.14
-986.343
2015.84
-902.118
2058.1
-827.904
2096
-764.466
2129.21
-710.607
2160.05
-666.152
2187.26
-629.756
2213.71
-600.705
2237.51
-577.621
2261.19
-559.37
2283.08
-544.877
2305.18
-533.015
2326.01
-523.101
2346.99
-514.248
2366.91
-506.093
2386.77
-498.056
2405.57
-490.26
2424.07
-482.483
2441.48
-475.013
2458.48
-467.886
2474.36
-461.542
2489.84
-456.234
2504.3
-452.393
2518.58
-450.339
2532.08
-450.442
2545.73
-452.935
2558.94
-457.924
2572.67
-465.462
2586.29
-475.491
2600.66
-487.897
2615.14
-502.351
2630.49
-518.63
2646.14
-536.483
2662.75
-555.749
2679.99
-576.195
2698.49
-597.749
2718.16
-620.316
2739.47
-643.874
2762.37
-668.236
2786.87
-693.124
2812.65
-718.085
2839.2
-742.612
2866.07
-766.242
2892.63
-788.645
2918.83
-809.766
2944.6
-829.773
2970.69
-849.146
2997.67
-868.119
3027.18
-888.189
3058.03
-902.727
-941.846
592.499
-673.845
617.91
-784.725
642.521
-822.849
660.053
-830.777
692.641
-826.266
703.696
-816.146
734.567
-797.877
758.252
-844.276
805.334
-929.824
874.111
-1105.52
928.655
-592.181
990.53
692.819
1014.7
2846.61
782.549
4071.47
220.795
2762.67
-519.633
1143.63
-534.22
1703.97
-376.829
1663.85
-554.648
1531.66
-736.646
1306.86
-884.007
1384.31
-971.233
1468.1
-1016.35
1421.25
-1033.74
1243.55
-1030.23
992.625
-1007.87
681.619
-951.198
241.577
-879.353
-272.578
-783.53
-696.501
-664.601
-1071.21
-526.834
-1414.76
-375.653
-1720.95
-212.621
-1981.52
-41.101
-2191.9
137.068
-2347.07
317.892
-2432.45
497.349
-2459.92
670.91
-2437.4
836.614
-2376.03
991.666
-2285.45
1135.83
-2173.69
1267.92
-2047.84
1388.32
-1913.75
1496.8
-1776.16
1594.21
-1638.68
1679.84
-1504.45
1754.19
-1375.29
1823.06
-1252.49
1881.62
-1139.64
1934.19
-1037.13
1979.62
-946.632
2019.55
-866.983
2055.19
-799.065
2086.12
-741.513
2114.76
-694.126
2139.79
-655.459
2164.16
-624.678
2185.93
-600.313
2207.67
-581.13
2227.68
-565.961
2247.97
-553.52
2267.04
-543.132
2286.3
-533.803
2304.52
-525.126
2322.68
-516.475
2339.76
-507.979
2356.52
-499.425
2372.12
-491.111
2387.24
-483.09
2401.16
-475.848
2414.59
-469.689
2426.94
-465.093
2439.04
-462.419
2450.31
-462.088
2461.69
-464.335
2472.55
-469.247
2483.88
-476.876
2494.99
-487.147
2506.77
-499.905
2518.57
-514.798
2531.25
-531.658
2544.33
-550.283
2558.67
-570.575
2574.05
-592.329
2591.21
-615.489
2610.04
-639.893
2630.88
-665.352
2653.41
-691.463
2677.3
-717.668
2701.91
-743.333
2726.56
-767.89
2750.8
-791.012
2774.31
-812.724
2797.59
-833.45
2821.27
-853.897
2846.82
-874.967
2875.49
-897.093
2909.04
-921.874
2947.16
-940.989
-991.102
576.932
-700.477
597.611
-810.728
617.438
-845.515
630.089
-850.065
658.069
-843.836
664.394
-831.668
691.333
-811.926
712.07
-861.42
756.501
-946.223
818.029
-1125.33
854.885
-589.394
893.258
663.118
928.363
2804.42
767.163
4237.78
271.309
3238.47
-304.324
1697.2
-357.873
1696.2
-387.174
1689.75
-559.288
1695.38
-736.566
1469.12
-883.93
1518.53
-969.715
1547.43
-1016.5
1459.74
-1036.76
1253.55
-1034.74
978.497
-1014.29
644.971
-956.757
169.914
-883.904
-356.752
-787.708
-800.943
-668.612
-1197.46
-530.656
-1558.44
-379.091
-1878.44
-215.75
-2149.62
-44.21
-2367.9
133.224
-2528.17
312.742
-2615.29
490.504
-2640.37
662.235
-2612.04
825.994
-2542.3
979.062
-2441.49
1121.18
-2318.36
1251.17
-2180.5
1369.43
-2034.2
1475.74
-1884.52
1570.93
-1735.37
1654.36
-1590.1