/*--------------------------------*- C++ -*----------------------------------*\
| =========                 |                                                 |
| \\      /  F ield         | OpenFOAM: The Open Source CFD Toolbox           |
|  \\    /   O peration     | Version:  4.1                                   |
|   \\  /    A nd           | Web:      www.OpenFOAM.org                      |
|    \\/     M anipulation  |                                                 |
\*---------------------------------------------------------------------------*/
FoamFile
{
    version     2.0;
    format      ascii;
    class       volVectorField;
    location    "18";
    object      U;
}
// * * * * * * * * * * * * * * * * * * * * * * * * * * * * * * * * * * * * * //

dimensions      [0 1 -1 0 0 0 0];

internalField   nonuniform List<vector> 
26785
(
(1.73947e-15 -0.00438498 14.1654)
(1.76413e-15 -0.00189471 14.2234)
(1.93427e-15 -0.00114233 14.2515)
(2.57552e-15 -0.000846261 14.2706)
(1.22996e-15 0.000250722 14.3048)
(1.39922e-15 0.000506212 14.3196)
(1.59743e-15 0.00222214 14.3073)
(1.42367e-15 0.00401243 14.2751)
(5.59827e-17 0.00963457 14.1907)
(3.5448e-15 0.0182111 14.0204)
(2.35932e-15 0.0372841 13.6317)
(1.4107e-15 0.0588153 12.8463)
(1.37834e-15 0.0486378 11.8586)
(1.36233e-15 0.0232879 11.3123)
(1.3186e-15 0.0185715 11.1112)
(1.24104e-15 0.00455929 10.9972)
(1.18071e-15 -0.0334991 11.2342)
(1.18927e-15 -0.0477971 11.8391)
(2.1918e-15 -0.0395901 12.5268)
(-4.17303e-16 -0.021913 12.9977)
(-1.13571e-15 -0.0129865 13.2264)
(-6.85043e-16 -0.00814841 13.3537)
(9.30737e-16 -0.00894695 13.4604)
(9.35846e-16 -0.0123439 13.5948)
(-6.55799e-15 -0.0137985 13.7786)
(2.06748e-15 -0.00940929 13.9595)
(1.01959e-15 0.00340098 14.0268)
(2.39306e-15 0.0104945 13.9574)
(-6.16128e-16 0.00939509 13.856)
(-5.08179e-15 0.00876229 13.7788)
(3.79692e-15 0.00910277 13.7056)
(-8.51701e-16 0.00789835 13.6318)
(-1.82903e-15 0.00526696 13.5771)
(-3.97234e-16 0.0013798 13.5576)
(-1.12467e-15 -0.00287716 13.5798)
(-1.63486e-15 -0.00672946 13.6429)
(-2.05788e-15 -0.0100227 13.7414)
(-1.91026e-15 -0.0123484 13.8664)
(-1.76913e-15 -0.0137751 14.0087)
(-1.93796e-15 -0.014455 14.1606)
(-1.19659e-15 -0.0144944 14.3156)
(-7.93378e-16 -0.0140768 14.4695)
(-5.85486e-16 -0.0133303 14.6188)
(-1.65013e-15 -0.0123965 14.7612)
(-1.40084e-15 -0.0113286 14.895)
(-1.6311e-15 -0.0101932 15.019)
(-1.78004e-15 -0.00903991 15.1306)
(-1.83089e-15 -0.007959 15.2328)
(-1.81791e-15 -0.00683537 15.3271)
(-1.58383e-15 -0.00587788 15.4116)
(-1.28332e-15 -0.00501169 15.4872)
(-1.63626e-15 -0.00430277 15.5541)
(-1.55665e-15 -0.00368599 15.6139)
(-1.38951e-15 -0.00318357 15.6672)
(-1.39654e-15 -0.00277556 15.7148)
(-1.2816e-15 -0.00245327 15.7574)
(-1.50953e-15 -0.00220173 15.7958)
(-1.55811e-15 -0.00199451 15.8307)
(-1.4725e-15 -0.00183235 15.8624)
(7.13727e-16 -0.00168788 15.8915)
(-1.69797e-15 -0.00156949 15.9182)
(-1.6889e-15 -0.0014568 15.9429)
(-1.60279e-15 -0.00135968 15.9656)
(-1.8127e-15 -0.00125817 15.9867)
(-1.82891e-15 -0.00116844 16.0061)
(-1.79607e-15 -0.00108276 16.0241)
(-1.76186e-15 -0.00101576 16.0406)
(-1.7242e-15 -0.00095363 16.0558)
(-1.59065e-15 -0.000911944 16.0698)
(-1.79154e-15 -0.000885465 16.0827)
(-1.89734e-15 -0.000893327 16.0945)
(-1.48589e-15 -0.000929051 16.1055)
(-1.37103e-15 -0.00100503 16.1158)
(-1.46497e-15 -0.00111301 16.1256)
(-1.28897e-15 -0.00126197 16.1351)
(-1.93275e-15 -0.0014449 16.1444)
(-1.88978e-15 -0.00166902 16.1537)
(-1.41955e-15 -0.00192935 16.1631)
(-1.53493e-15 -0.00223039 16.1729)
(-1.5371e-15 -0.00256572 16.183)
(-1.38334e-15 -0.00293615 16.1937)
(-1.51165e-15 -0.00333575 16.2052)
(-1.76916e-15 -0.00376423 16.2174)
(-1.56478e-15 -0.00421594 16.2305)
(-1.93903e-15 -0.00468951 16.2445)
(-2.17138e-15 -0.00517974 16.2596)
(-1.99255e-15 -0.00568567 16.2756)
(-1.93413e-15 -0.00620223 16.2927)
(-1.99177e-15 -0.00672784 16.3109)
(-1.99868e-15 -0.00725706 16.3301)
(-1.97128e-15 -0.00778831 16.3504)
(-1.93905e-15 -0.00831532 16.3717)
(-1.91655e-15 -0.00883819 16.394)
(-1.91432e-15 -0.00934375 16.4172)
(-1.81698e-15 -0.0098607 16.4413)
(-1.80241e-15 -0.0102659 16.4662)
(-1.87958e-15 -0.0109156 16.4913)
(-1.87398e-15 -0.0107711 16.5189)
(-1.80932e-15 -0.0120748 16.5392)
(-1.75842e-15 -0.0122741 16.5821)
(2.10695e-15 -0.0105218 15.1092)
(1.62583e-15 -0.00445216 15.2052)
(1.75309e-15 -0.00231957 15.2704)
(2.11984e-15 -0.00169736 15.3262)
(5.46021e-16 0.000624672 15.4055)
(3.92683e-15 0.0025963 15.4609)
(2.03968e-15 0.00761428 15.4855)
(1.56817e-15 0.0139699 15.4887)
(2.89532e-15 0.0304775 15.4351)
(1.80697e-15 0.058035 15.2803)
(2.03782e-15 0.122759 14.8555)
(1.87562e-15 0.201509 13.9648)
(1.73133e-15 0.165418 12.9137)
(1.91261e-15 0.0719872 12.4384)
(1.3849e-14 0.0584823 12.3288)
(5.73023e-16 0.0119909 12.3314)
(1.3455e-15 -0.115367 12.7315)
(2.54791e-15 -0.159993 13.5147)
(2.49194e-15 -0.128636 14.2973)
(2.27113e-15 -0.0675273 14.7988)
(5.66336e-15 -0.0378267 15.0352)
(1.30049e-14 -0.0245076 15.1731)
(-5.20412e-15 -0.0296381 15.3042)
(5.11803e-15 -0.0420291 15.4724)
(4.65968e-15 -0.0471991 15.6812)
(1.21e-14 -0.0333163 15.8718)
(2.90248e-15 0.0084229 15.9337)
(2.45076e-15 0.031629 15.8527)
(2.88738e-15 0.0274645 15.7469)
(1.89655e-15 0.0250081 15.6735)
(2.38516e-15 0.0265582 15.6066)
(2.44573e-15 0.0234495 15.5399)
(2.40812e-15 0.0155543 15.4938)
(2.52462e-15 0.00339341 15.4853)
(1.73802e-15 -0.0100264 15.5213)
(1.57425e-15 -0.0222202 15.5994)
(1.48892e-15 -0.0327337 15.7118)
(1.47674e-15 -0.0404416 15.8486)
(1.42839e-15 -0.0456138 15.9997)
(1.69147e-15 -0.0485729 16.1567)
(3.70828e-16 -0.0496555 16.3126)
(-2.43147e-15 -0.0493136 16.4628)
(4.82436e-15 -0.0479237 16.6037)
(4.38879e-15 -0.0458415 16.7329)
(4.04441e-15 -0.0432252 16.8491)
(3.57759e-15 -0.0402721 16.9514)
(8.57749e-15 -0.037095 17.0379)
(2.78131e-15 -0.033913 17.1116)
(5.45502e-16 -0.0305485 17.1745)
(2.02619e-15 -0.0274625 17.2251)
(5.09285e-15 -0.0245747 17.2648)
(1.97076e-15 -0.0220023 17.2941)
(2.67325e-15 -0.0196848 17.3148)
(2.40311e-15 -0.0176402 17.3276)
(2.64355e-15 -0.0158727 17.3336)
(2.78858e-15 -0.0143453 17.3335)
(2.54513e-15 -0.013045 17.3282)
(2.41681e-15 -0.0119088 17.3184)
(2.66854e-15 -0.0109319 17.3046)
(2.69559e-15 -0.0100525 17.2874)
(2.7905e-15 -0.00927404 17.2671)
(4.91617e-15 -0.00855445 17.2442)
(2.5102e-15 -0.00790072 17.2188)
(2.50787e-15 -0.00727105 17.1913)
(2.611e-15 -0.00668429 17.1617)
(2.72799e-15 -0.00612494 17.1304)
(2.58227e-15 -0.00561486 17.0975)
(2.33682e-15 -0.00512392 17.063)
(7.13866e-16 -0.00467585 17.0272)
(2.81234e-15 -0.00426117 16.9903)
(2.44464e-15 -0.00391138 16.9522)
(3.43817e-15 -0.00361457 16.9132)
(1.44949e-15 -0.00339099 16.8735)
(1.72195e-15 -0.00322767 16.8332)
(1.65064e-15 -0.00314102 16.7924)
(1.98897e-15 -0.00312002 16.7514)
(1.97101e-15 -0.0031747 16.7103)
(1.68029e-15 -0.00329759 16.6692)
(1.47696e-15 -0.00349114 16.6282)
(1.34278e-15 -0.00374481 16.5874)
(9.50923e-16 -0.00405461 16.547)
(-2.46668e-16 -0.00441251 16.507)
(1.53752e-15 -0.00481475 16.4676)
(-4.76415e-16 -0.00525362 16.4288)
(1.92172e-15 -0.00572478 16.3906)
(1.07449e-15 -0.00622141 16.3532)
(9.04274e-16 -0.00674069 16.3166)
(9.57674e-16 -0.00727512 16.2808)
(1.17906e-15 -0.00782091 16.2458)
(1.23174e-15 -0.0083689 16.2117)
(9.77342e-16 -0.00891581 16.1784)
(9.71051e-16 -0.00944971 16.1461)
(9.56212e-16 -0.00997142 16.1147)
(2.63427e-17 -0.0104566 16.0841)
(8.62318e-16 -0.0109456 16.0545)
(8.68437e-16 -0.0112886 16.0256)
(8.21574e-16 -0.01179 15.9982)
(7.34253e-16 -0.011866 15.9688)
(7.34909e-16 -0.011609 15.9483)
(7.73934e-16 -0.0128619 15.9015)
(2.06418e-15 -0.0144211 16.1943)
(2.43568e-15 -0.00595839 16.3171)
(3.26546e-15 -0.00280887 16.4109)
(1.55625e-15 -0.000896633 16.4958)
(3.13991e-15 0.00202188 16.6011)
(2.29203e-15 0.00702681 16.6819)
(1.636e-15 0.013885 16.7315)
(2.89533e-15 0.025416 16.7573)
(2.99798e-15 0.0515509 16.7234)
(2.98531e-15 0.100085 16.5833)
(2.96654e-15 0.206942 16.1723)
(2.94898e-15 0.332296 15.3365)
(2.76843e-15 0.263124 14.4471)
(2.48951e-15 0.105432 14.1117)
(3.78989e-15 0.0846279 14.0786)
(2.9779e-15 0.00816517 14.1501)
(3.36088e-15 -0.194501 14.5699)
(1.92914e-15 -0.263487 15.3129)
(7.65813e-15 -0.211091 16.0008)
(5.8707e-15 -0.112962 16.4042)
(2.49186e-15 -0.0657051 16.5633)
(1.25949e-14 -0.044929 16.6392)
(3.94396e-15 -0.0529302 16.6992)
(-5.23471e-16 -0.0724242 16.7703)
(6.50359e-15 -0.0803204 16.8707)
(4.2773e-15 -0.0580705 16.979)
(4.91172e-15 0.0103191 16.9974)
(4.73426e-15 0.0487849 16.8883)
(4.10893e-15 0.0420161 16.7536)
(4.07159e-15 0.0378362 16.6472)
(3.74326e-15 0.0406486 16.5449)
(4.56572e-15 0.0362078 16.4399)
(4.13541e-15 0.0241535 16.3474)
(3.33619e-15 0.00552817 16.2794)
(3.27695e-15 -0.0144637 16.2346)
(3.37445e-15 -0.0324367 16.2055)
(3.54222e-15 -0.0483201 16.1864)
(3.61351e-15 -0.0602407 16.1684)
(4.14947e-15 -0.0685357 16.1435)
(4.18292e-15 -0.0735553 16.1072)
(3.86331e-15 -0.0755982 16.0575)
(3.73323e-15 -0.0752952 15.9945)
(3.61733e-15 -0.0731572 15.9192)
(3.36968e-15 -0.0697771 15.8328)
(3.44938e-15 -0.065415 15.7366)
(3.5516e-15 -0.0605035 15.6319)
(3.32394e-15 -0.0552917 15.5178)
(3.19241e-15 -0.0497376 15.3988)
(3.20773e-15 -0.0442968 15.2775)
(3.1025e-15 -0.039065 15.1525)
(3.00878e-15 -0.0343144 15.0248)
(2.82663e-15 -0.0299783 14.8944)
(2.80519e-15 -0.0260991 14.7629)
(2.70304e-15 -0.0226991 14.6301)
(2.62115e-15 -0.019708 14.4968)
(2.1774e-15 -0.0172151 14.3628)
(1.85674e-15 -0.0150051 14.2291)
(2.06579e-15 -0.0132206 14.0957)
(1.77613e-15 -0.0116159 13.9629)
(1.69082e-15 -0.0103341 13.8307)
(1.65737e-15 -0.00914267 13.6997)
(1.59454e-15 -0.00819423 13.5701)
(1.20124e-15 -0.00729622 13.4419)
(1.03183e-15 -0.00656047 13.3153)
(7.21391e-16 -0.00584559 13.1906)
(3.43731e-16 -0.00526585 13.0678)
(-2.41134e-15 -0.00471551 12.947)
(1.67142e-16 -0.00426255 12.8284)
(7.19908e-17 -0.00382881 12.7121)
(-3.669e-17 -0.00349833 12.5981)
(-2.94808e-16 -0.00322409 12.4867)
(-1.02567e-15 -0.00307067 12.3777)
(2.47188e-16 -0.00298735 12.2716)
(1.00517e-15 -0.00303222 12.1685)
(-4.64048e-17 -0.00315622 12.0685)
(-2.07008e-16 -0.00341494 11.9718)
(-1.6892e-16 -0.0037541 11.8786)
(-2.12085e-16 -0.00423191 11.789)
(-2.77583e-16 -0.00478898 11.7033)
(-3.24452e-16 -0.00546989 11.6215)
(-4.04071e-16 -0.00621644 11.5439)
(-2.4211e-16 -0.00706815 11.4706)
(2.11479e-15 -0.00797776 11.4017)
(-6.73631e-16 -0.00897086 11.3373)
(-7.07803e-16 -0.0100112 11.2776)
(-6.78449e-16 -0.0111145 11.2226)
(-6.71621e-16 -0.0122578 11.1724)
(-6.84695e-16 -0.0134445 11.127)
(-6.81711e-16 -0.0146611 11.0864)
(-7.94499e-16 -0.0158988 11.0507)
(-7.62221e-16 -0.0171514 11.0198)
(-6.27194e-16 -0.0183985 10.9937)
(-2.91803e-17 -0.0196392 10.9724)
(-1.26753e-15 -0.0208508 10.9558)
(-9.61257e-16 -0.0220023 10.9439)
(-1.04693e-15 -0.0232163 10.936)
(-1.64778e-15 -0.0238134 10.934)
(-1.06334e-15 -0.0260133 10.9322)
(-1.04637e-15 -0.0233612 10.9406)
(-1.09073e-15 -0.0262766 10.9494)
(2.31266e-15 -0.0157856 17.2639)
(2.37361e-15 -0.00633645 17.4004)
(2.31915e-15 -0.00235914 17.5096)
(2.83363e-15 0.000410765 17.6073)
(2.59384e-15 0.00406799 17.719)
(1.98568e-15 0.0117232 17.8023)
(3.53891e-15 0.020692 17.8514)
(4.43376e-15 0.0371023 17.8748)
(3.06282e-15 0.0730943 17.8422)
(3.28863e-15 0.142086 17.7174)
(3.26669e-15 0.289713 17.3366)
(3.34288e-15 0.457707 16.5573)
(2.69528e-15 0.352478 15.7399)
(4.35057e-15 0.134268 15.4244)
(5.71864e-15 0.109596 15.3506)
(5.91098e-15 0.00844037 15.3207)
(4.62893e-15 -0.268081 15.599)
(4.11508e-15 -0.356914 16.0993)
(-2.2269e-16 -0.28138 16.4768)
(7.80179e-15 -0.145878 16.5784)
(4.46162e-15 -0.0833022 16.4562)
(-1.26985e-15 -0.0542782 16.273)
(7.11421e-15 -0.0597501 16.0319)
(5.70399e-15 -0.0822954 15.7238)
(4.92601e-15 -0.0988565 15.4545)
(4.61167e-15 -0.0828152 15.3056)
(4.83046e-15 0.00183666 15.1874)
(4.6816e-15 0.0537095 14.9668)
(4.45443e-15 0.0464061 14.7004)
(4.40128e-15 0.0422058 14.4387)
(4.90504e-15 0.0465161 14.1675)
(5.60815e-15 0.0408195 13.8878)
(5.4012e-15 0.0266484 13.6099)
(5.87393e-15 0.00692361 13.3292)
(4.90246e-15 -0.0134341 13.0109)
(3.98157e-15 -0.0335055 12.6524)
(-2.5941e-15 -0.0526231 12.2764)
(4.20907e-15 -0.0665821 11.8939)
(8.22815e-15 -0.075473 11.5127)
(1.50521e-14 -0.0801475 11.1432)
(2.32286e-15 -0.0809744 10.7946)
(1.11935e-14 -0.0792087 10.4734)
(4.53845e-15 -0.0754526 10.1828)
(8.26482e-15 -0.0706767 9.92239)
(-9.41189e-16 -0.0650889 9.68998)
(1.83641e-15 -0.0593553 9.48254)
(-2.38243e-15 -0.0537949 9.29201)
(-7.95089e-15 -0.0473332 9.12128)
(-1.13794e-15 -0.0420001 8.9687)
(2.324e-15 -0.0366816 8.82801)
(-3.45134e-15 -0.0323507 8.69705)
(-5.56419e-15 -0.028486 8.57259)
(-8.1537e-15 -0.0252004 8.45495)
(-2.79731e-15 -0.0226207 8.34174)
(-4.41477e-15 -0.0203743 8.2329)
(-4.94394e-15 -0.0189434 8.12697)
(-6.34566e-15 -0.0175738 8.02464)
(-4.71868e-15 -0.0169594 7.92523)
(-5.56781e-15 -0.0162824 7.82878)
(-4.54018e-15 -0.0162035 7.73517)
(-3.50151e-15 -0.0159648 7.64471)
(-2.37076e-15 -0.0161844 7.55746)
(-7.7286e-15 -0.0162423 7.4734)
(-6.30801e-15 -0.0166183 7.39255)
(-6.26631e-15 -0.016846 7.31494)
(-9.74168e-15 -0.0173371 7.24058)
(-5.19765e-16 -0.0177251 7.16949)
(-6.49075e-15 -0.0183101 7.10168)
(-6.2223e-15 -0.0188225 7.03722)
(-4.75363e-15 -0.019555 6.97613)
(-1.45944e-15 -0.0203101 6.91842)
(-6.91052e-15 -0.0213106 6.86426)
(-4.02601e-15 -0.0223746 6.81394)
(-3.50906e-15 -0.0237014 6.76771)
(-6.35472e-15 -0.025131 6.72582)
(-5.6282e-15 -0.0268466 6.68847)
(-3.89819e-15 -0.0286902 6.65589)
(-3.48739e-15 -0.0308291 6.62827)
(-3.05862e-15 -0.0330985 6.60578)
(-2.5682e-15 -0.0356219 6.58865)
(-2.19467e-15 -0.038247 6.57698)
(-2.12629e-15 -0.0410758 6.57093)
(-2.5629e-15 -0.0439842 6.5705)
(-1.04153e-15 -0.0470387 6.57576)
(-6.98751e-16 -0.0501475 6.58664)
(-2.21197e-15 -0.0533531 6.60311)
(-1.05527e-15 -0.0565967 6.625)
(-5.33203e-16 -0.0598921 6.65223)
(-7.87814e-16 -0.063204 6.68459)
(-1.22025e-15 -0.0665219 6.72196)
(-1.22618e-15 -0.0698272 6.7641)
(-1.68653e-15 -0.0730876 6.81086)
(1.41648e-15 -0.0762902 6.86197)
(-1.3159e-15 -0.0794202 6.91717)
(-8.89363e-16 -0.0823496 6.97631)
(-7.69976e-16 -0.085452 7.03881)
(-6.29851e-16 -0.0874356 7.10454)
(2.76508e-16 -0.0911604 7.17563)
(-6.27236e-16 -0.0915475 7.23355)
(-7.04188e-16 -0.0924417 7.35186)
(3.11548e-15 -0.0149748 18.1629)
(2.1814e-15 -0.00619481 18.2815)
(2.88639e-15 -0.00144827 18.3656)
(2.63913e-15 0.00208098 18.4269)
(3.54433e-15 0.00659712 18.492)
(4.88518e-15 0.0166206 18.5252)
(3.15278e-15 0.0276051 18.5237)
(3.07118e-15 0.0477794 18.5014)
(3.45847e-15 0.0918479 18.439)
(3.72618e-15 0.178604 18.3222)
(4.18716e-15 0.366438 17.9772)
(-1.0166e-16 0.579319 17.2333)
(1.41304e-15 0.439741 16.3601)
(7.21831e-15 0.166217 15.9226)
(8.18704e-15 0.143851 15.6749)
(4.55708e-15 0.0253793 15.4307)
(3.70769e-15 -0.314365 15.4498)
(4.27652e-15 -0.401039 15.4089)
(3.59797e-15 -0.291145 15.1428)
(4.09491e-15 -0.122867 14.6999)
(2.66547e-15 -0.0532873 14.0858)
(-5.90301e-15 -0.0157689 13.4888)
(4.62831e-15 -0.0097588 12.7886)
(2.16886e-15 -0.0254869 11.9104)
(2.35211e-15 -0.0568266 11.0897)
(9.04897e-16 -0.0646378 10.4748)
(-4.67871e-15 0.0180439 10.031)
(5.50563e-15 0.0694433 9.52174)
(-2.25775e-16 0.0565524 8.94368)
(1.00019e-15 0.0457769 8.27318)
(6.9048e-17 0.0443541 7.58245)
(-9.74623e-16 0.032077 6.92503)
(-2.01132e-15 0.0152076 6.35168)
(-7.49172e-16 -0.00302315 5.81932)
(-9.13865e-16 -0.0341872 5.33558)
(1.89545e-15 -0.0594389 4.84505)
(5.79562e-16 -0.0686155 4.44985)
(2.05248e-16 -0.0768219 4.1815)
(2.84503e-16 -0.0838149 4.04171)
(4.04208e-16 -0.0912102 4.01931)
(-1.51322e-15 -0.096969 4.09206)
(-4.86468e-15 -0.101508 4.23372)
(-6.43905e-15 -0.103867 4.41826)
(-4.30455e-15 -0.104611 4.62378)
(-6.46991e-15 -0.10332 4.83353)
(-8.7388e-15 -0.100768 5.03561)
(-9.37018e-15 -0.097189 5.21756)
(-1.05537e-14 -0.0908251 5.38447)
(-1.23223e-14 -0.0852493 5.53758)
(-1.06805e-14 -0.0789249 5.67092)
(-1.03522e-14 -0.0732522 5.78584)
(-1.77631e-14 -0.0677258 5.88236)
(-1.09716e-14 -0.0625108 5.96453)
(-1.21554e-14 -0.057983 6.03312)
(-1.15274e-14 -0.0537014 6.0904)
(-1.02766e-14 -0.0503445 6.13765)
(-9.49745e-15 -0.0470524 6.177)
(-8.78723e-15 -0.0446589 6.20996)
(-8.85153e-15 -0.0422642 6.23718)
(-7.04358e-15 -0.0405748 6.26005)
(-5.45229e-15 -0.0387947 6.27906)
(-2.28264e-15 -0.0375427 6.29532)
(-8.30336e-15 -0.0361852 6.30876)
(-5.50429e-15 -0.035194 6.32003)
(-5.16329e-15 -0.0341285 6.32905)
(-8.18571e-15 -0.0333881 6.33629)
(-1.73311e-15 -0.0326243 6.34173)
(2.0291e-15 -0.0321232 6.34571)
(-4.04352e-15 -0.0316672 6.34823)
(-6.84295e-15 -0.0315426 6.34958)
(1.42449e-16 -0.0316017 6.34981)
(-1.96239e-15 -0.0320335 6.34934)
(2.22872e-15 -0.0327048 6.34852)
(1.86562e-15 -0.0337637 6.34781)
(-2.44125e-15 -0.0351176 6.34755)
(-8.1585e-16 -0.0368966 6.34805)
(-2.13181e-16 -0.0390194 6.34963)
(-5.37548e-15 -0.0415811 6.35262)
(-3.40663e-17 -0.0444761 6.35729)
(-2.01214e-15 -0.0477441 6.36395)
(3.81009e-15 -0.0512767 6.37284)
(6.57568e-15 -0.055095 6.38421)
(1.60178e-15 -0.0591066 6.39818)
(6.57084e-15 -0.0633152 6.41494)
(1.00421e-15 -0.0676517 6.43453)
(9.28118e-16 -0.0721179 6.45703)
(1.94636e-15 -0.0766691 6.48242)
(2.22406e-15 -0.0812943 6.51073)
(2.29705e-15 -0.0859565 6.54191)
(2.45629e-15 -0.0906325 6.57596)
(2.4742e-15 -0.0952916 6.6128)
(2.30279e-15 -0.0999004 6.6524)
(2.25985e-15 -0.104422 6.69464)
(2.36578e-15 -0.108853 6.73943)
(1.93478e-15 -0.113031 6.7866)
(1.44901e-15 -0.117273 6.83626)
(1.8671e-15 -0.120767 6.88662)
(1.73847e-15 -0.124224 6.94439)
(1.00718e-15 -0.128788 6.98362)
(6.35303e-16 -0.128558 7.0766)
(3.44632e-15 -0.0141572 18.7045)
(3.31387e-15 -0.00603348 18.7225)
(3.25792e-15 0.000131817 18.7116)
(2.95772e-15 0.00450804 18.6775)
(3.7347e-15 0.00967715 18.6481)
(4.15962e-15 0.0212503 18.5936)
(3.32992e-15 0.0335378 18.5111)
(2.52239e-15 0.0554571 18.4184)
(4.2129e-15 0.104442 18.3084)
(5.49972e-15 0.203785 18.197)
(2.8202e-15 0.429974 17.8969)
(4.09988e-15 0.696096 17.1751)
(3.96764e-15 0.531844 16.1237)
(3.79456e-15 0.210875 15.466)
(4.4964e-15 0.194891 14.9942)
(3.63981e-15 0.0632189 14.534)
(9.3592e-16 -0.301933 14.2059)
(-5.17196e-15 -0.329057 13.121)
(3.82527e-15 -0.199961 11.9328)
(4.33109e-15 -0.0214802 11.0344)
(5.77093e-16 0.0330344 10.0665)
(-6.60814e-15 0.074699 9.29146)
(3.07395e-15 0.0939011 8.47714)
(2.03517e-14 0.0692644 7.53174)
(8.84936e-16 0.0224871 6.77911)
(4.07382e-15 -0.0514221 5.66003)
(-2.09856e-15 0.0454017 4.78412)
(-2.09623e-15 0.1655 3.63672)
(-1.48789e-15 0.219087 2.33349)
(-2.68783e-14 0.178418 -0.0908754)
(-2.11662e-14 0.0599888 -1.0342)
(-2.35686e-14 -0.0323977 -1.28592)
(-1.49858e-14 -0.0929847 -1.13616)
(-1.04464e-14 -0.116353 -0.322354)
(7.78038e-15 -0.0644915 0.436284)
(2.50182e-14 -0.0571472 0.81621)
(1.41022e-14 -0.111681 1.4557)
(-1.99158e-15 -0.150585 2.06955)
(-8.946e-16 -0.179454 2.64784)
(-1.91938e-15 -0.201017 3.18271)
(-5.58126e-15 -0.213536 3.67058)
(-1.13671e-14 -0.218716 4.1112)
(-1.0513e-14 -0.217353 4.50489)
(-1.11642e-14 -0.211281 4.85327)
(-1.20376e-14 -0.201425 5.15828)
(-1.13225e-14 -0.189274 5.4218)
(-1.05921e-14 -0.175613 5.6429)
(-1.00177e-14 -0.159851 5.83253)
(-9.97736e-15 -0.144563 5.99718)
(-8.82092e-15 -0.129583 6.13488)
(-6.85475e-15 -0.115788 6.24936)
(-5.75797e-15 -0.103031 6.3426)
(-4.82267e-15 -0.0914301 6.41948)
(-3.76875e-15 -0.0812423 6.48179)
(-2.6632e-15 -0.0722086 6.53211)
(-1.67098e-15 -0.0646378 6.57226)
(-1.02702e-15 -0.0579507 6.60434)
(-1.62861e-16 -0.052542 6.63008)
(2.89012e-16 -0.0477689 6.65017)
(9.75687e-16 -0.0439307 6.66605)
(1.20999e-15 -0.0404528 6.6782)
(2.34139e-15 -0.0376288 6.68771)
(3.13234e-15 -0.0349858 6.69455)
(4.45891e-15 -0.0327652 6.69935)
(7.03218e-15 -0.0306629 6.70202)
(1.01951e-15 -0.0289274 6.70302)
(8.33783e-15 -0.0273072 6.70234)
(-2.51447e-15 -0.0259867 6.70028)
(1.15232e-15 -0.0248388 6.6968)
(2.8211e-15 -0.0240846 6.69214)
(5.2077e-15 -0.0236514 6.68636)
(4.92371e-15 -0.0236712 6.67982)
(4.96427e-15 -0.0240774 6.67283)
(4.98626e-15 -0.0249649 6.6658)
(3.41425e-15 -0.0263081 6.65903)
(3.69718e-15 -0.028187 6.65281)
(4.54651e-15 -0.0305829 6.64742)
(6.26772e-15 -0.0335316 6.64317)
(6.14103e-15 -0.0369751 6.64031)
(4.73263e-15 -0.0408909 6.63917)
(4.52357e-15 -0.0452078 6.63998)
(4.42747e-15 -0.0498888 6.643)
(4.34131e-15 -0.054868 6.6484)
(5.88636e-15 -0.0601029 6.65638)
(5.27991e-15 -0.0655429 6.66703)
(3.87117e-15 -0.0711566 6.68047)
(3.35904e-15 -0.0769114 6.69672)
(2.59936e-15 -0.0827739 6.71587)
(2.0208e-15 -0.0887087 6.73792)
(1.24152e-15 -0.0946775 6.76292)
(6.93434e-16 -0.100641 6.79085)
(2.38328e-16 -0.106561 6.82172)
(-5.69738e-16 -0.112386 6.85546)
(-1.43149e-15 -0.118101 6.89205)
(-8.73322e-17 -0.123561 6.93124)
(-2.74257e-15 -0.128921 6.97345)
(-2.21842e-15 -0.133828 7.01642)
(-2.89706e-15 -0.138041 7.06686)
(-3.11057e-15 -0.143363 7.10265)
(-3.46079e-15 -0.145385 7.18085)
(3.45008e-15 -0.0138223 18.561)
(3.4789e-15 -0.00835862 18.4845)
(3.04866e-15 -0.0011256 18.3917)
(3.25134e-15 0.00383763 18.2691)
(4.05622e-15 0.0091393 18.1473)
(5.11406e-15 0.0212199 18.0025)
(3.80377e-15 0.0339666 17.8316)
(3.87289e-15 0.0552637 17.6601)
(5.08411e-15 0.104421 17.4989)
(4.70722e-15 0.210649 17.408)
(9.74483e-16 0.476984 17.1774)
(3.93705e-15 0.818017 16.4612)
(3.90379e-15 0.640592 15.1788)
(3.51977e-15 0.260763 14.2662)
(4.10563e-15 0.264822 13.6712)
(4.11869e-15 0.170012 12.9797)
(2.30193e-15 -0.175684 11.8315)
(-1.37694e-15 -0.163368 9.36385)
(-2.04651e-15 -0.109429 7.64204)
(2.06892e-14 0.0572339 7.23224)
(1.22505e-14 0.0967982 6.45648)
(-2.60073e-14 0.13373 5.7611)
(-4.35943e-14 0.154807 5.43021)
(6.08303e-15 0.0452701 4.83354)
(1.95885e-15 0.118014 5.28462)
(-1.28945e-14 0.206067 1.81787)
(9.024e-15 0.216896 -1.75002)
(-6.80456e-17 0.162618 -2.8467)
(7.15948e-15 0.113252 -3.08022)
(-5.80603e-14 0.0559758 -2.88399)
(-2.6527e-14 -0.0220908 -2.29346)
(-1.98176e-14 -0.108993 -1.55422)
(-1.68403e-14 -0.207539 -0.764474)
(-1.53131e-14 -0.272929 -0.171645)
(-1.16947e-14 -0.287297 0.328975)
(-2.93035e-15 -0.304016 0.980884)
(-7.60156e-17 -0.314717 1.63975)
(-4.8327e-15 -0.32474 2.25658)
(-6.81545e-15 -0.329768 2.82773)
(-6.61704e-15 -0.330396 3.34839)
(-4.36348e-15 -0.324842 3.81673)
(-1.75129e-15 -0.313926 4.23473)
(9.84082e-15 -0.298358 4.60448)
(-6.69843e-15 -0.27961 4.92899)
(-7.11052e-15 -0.258493 5.21119)
(-5.37532e-15 -0.236279 5.45366)
(-4.31574e-15 -0.213692 5.65573)
(-2.28627e-15 -0.190206 5.82823)
(-4.25801e-15 -0.167989 5.97757)
(-7.1798e-16 -0.147211 6.10178)
(1.00859e-14 -0.128577 6.20429)
(9.88333e-15 -0.111839 6.28691)
(2.46589e-15 -0.0971257 6.35426)
(3.16945e-15 -0.0844886 6.408)
(3.77956e-15 -0.073734 6.45058)
(3.83096e-15 -0.0648903 6.48372)
(2.86347e-15 -0.0574601 6.50945)
(3.96782e-15 -0.0515755 6.52943)
(4.62781e-15 -0.046662 6.54434)
(4.20144e-15 -0.0427858 6.55556)
(3.78735e-15 -0.0394406 6.5636)
(3.9823e-15 -0.0367531 6.56949)
(3.81143e-15 -0.034305 6.57321)
(4.20246e-15 -0.032231 6.57534)
(5.06614e-15 -0.0302899 6.5758)
(8.37911e-15 -0.0286675 6.575)
(2.10317e-15 -0.0271535 6.57292)
(5.96773e-15 -0.0258949 6.56982)
(1.08997e-15 -0.024816 6.56565)
(7.27556e-16 -0.0241256 6.56058)
(-2.33072e-15 -0.0237961 6.55468)
(2.68488e-15 -0.0239428 6.54826)
(3.89953e-15 -0.0245394 6.54165)
(7.90764e-15 -0.0256674 6.53521)
(-4.66505e-15 -0.0273441 6.5292)
(3.32052e-15 -0.0296356 6.52389)
(7.39612e-15 -0.0325564 6.51954)
(3.50111e-15 -0.0361134 6.51643)
(-3.55732e-16 -0.040266 6.51481)
(-7.1831e-16 -0.0449593 6.51497)
(-6.20377e-15 -0.0501356 6.51714)
(-2.23666e-15 -0.0557272 6.52158)
(-1.77698e-15 -0.0616789 6.52843)
(-4.64322e-15 -0.0679258 6.53789)
(-1.37577e-15 -0.074426 6.55006)
(-3.19591e-15 -0.081134 6.56507)
(-4.12289e-15 -0.0880236 6.58295)
(-5.06124e-15 -0.0950501 6.6038)
(-4.64866e-15 -0.10218 6.62765)
(-5.46906e-15 -0.109367 6.65459)
(-6.27028e-15 -0.116562 6.68462)
(-5.86606e-15 -0.123719 6.71778)
(-5.24224e-15 -0.130779 6.75401)
(-7.73704e-15 -0.137704 6.79333)
(-7.46837e-15 -0.144372 6.83545)
(-6.95536e-15 -0.150815 6.88087)
(-7.58659e-15 -0.156863 6.92727)
(-6.76188e-15 -0.16213 6.98102)
(-6.58556e-15 -0.167858 7.02104)
(-6.35734e-15 -0.170995 7.10508)
(3.49405e-15 -0.0152268 17.9863)
(3.55105e-15 -0.0149476 17.7887)
(3.02661e-15 -0.00743291 17.5821)
(2.51123e-15 -0.00220783 17.3328)
(3.88337e-15 0.00280513 17.0803)
(3.8231e-15 0.0146334 16.8139)
(3.37275e-15 0.0272344 16.5337)
(3.7249e-15 0.0455567 16.2764)
(3.89186e-15 0.0896229 16.0776)
(3.58168e-15 0.194354 16.0474)
(3.65792e-15 0.502393 15.9357)
(3.6504e-15 0.938168 15.2572)
(3.64546e-15 0.788576 13.8554)
(4.34886e-15 0.319593 12.4402)
(6.09988e-16 0.315158 11.7548)
(6.71208e-15 0.346569 11.1917)
(9.75719e-15 -0.0158864 8.87497)
(-1.51969e-14 -0.0717542 4.30551)
(-1.77959e-14 -0.258039 3.64)
(-1.85846e-14 -0.111619 4.1814)
(-1.38745e-14 -0.0273965 4.11661)
(-1.70928e-14 -0.0137628 3.64175)
(2.27933e-15 0.0318603 3.98276)
(6.35382e-15 0.0875056 1.96048)
(-1.93545e-14 0.370255 -0.574786)
(-2.90417e-14 0.463101 -2.57987)
(-3.69418e-14 0.348352 -3.77322)
(-1.2659e-14 0.159919 -3.51785)
(-7.16725e-15 0.108782 -3.04181)
(-1.51152e-14 0.0449649 -2.50223)
(-1.53698e-14 -0.11725 -1.89801)
(-1.43797e-14 -0.257746 -1.37469)
(-1.60648e-14 -0.358699 -0.896778)
(-1.46451e-14 -0.401807 -0.41261)
(-7.12891e-15 -0.404247 0.247913)
(1.80914e-15 -0.420734 0.90693)
(-4.33995e-15 -0.436322 1.56384)
(-7.61506e-15 -0.442279 2.1817)
(-5.53211e-15 -0.440577 2.7542)
(-6.13036e-16 -0.433095 3.27656)
(-9.07521e-15 -0.419117 3.74668)
(-2.20206e-14 -0.399762 4.1663)
(-1.10659e-14 -0.376056 4.53736)
(1.46033e-15 -0.349494 4.86278)
(-3.06903e-15 -0.320974 5.14545)
(-2.50349e-15 -0.291741 5.38803)
(-2.08851e-15 -0.26251 5.59003)
(-2.08872e-15 -0.232956 5.76214)
(-9.76794e-16 -0.205052 5.91074)
(3.29416e-15 -0.17923 6.03399)
(3.97219e-15 -0.156137 6.13536)
(9.06028e-15 -0.13547 6.21669)
(2.58722e-15 -0.117415 6.28259)
(2.85978e-15 -0.101892 6.33474)
(3.1487e-15 -0.0887844 6.37562)
(3.24615e-15 -0.0779246 6.40698)
(1.82603e-15 -0.0688993 6.43088)
(2.65308e-15 -0.0616523 6.449)
(3.32038e-15 -0.0556638 6.46205)
(2.88438e-15 -0.0508376 6.47144)
(2.11555e-15 -0.0467177 6.47767)
(1.94447e-15 -0.0433092 6.48181)
(1.22591e-15 -0.0402257 6.48382)
(5.32564e-16 -0.0375315 6.48428)
(-2.23449e-16 -0.035025 6.48309)
(-5.89917e-16 -0.032845 6.48068)
(-2.93081e-15 -0.0308036 6.47702)
(-7.2905e-15 -0.029029 6.47234)
(-2.06886e-15 -0.0274843 6.46658)
(-4.18797e-15 -0.0263764 6.45991)
(-4.80087e-15 -0.025709 6.4524)
(-5.08983e-15 -0.0255888 6.44439)
(-5.50771e-15 -0.0260166 6.4362)
(-6.83068e-15 -0.0270676 6.4282)
(-5.22726e-15 -0.0287873 6.42067)
(-5.85082e-15 -0.0312359 6.41385)
(-5.52871e-15 -0.0344485 6.40803)
(-1.23947e-15 -0.0384124 6.4035)
(-7.53213e-15 -0.0430957 6.40051)
(-7.01251e-15 -0.0484219 6.39936)
(-1.0692e-14 -0.0543396 6.40031)
(-1.52115e-14 -0.0607579 6.40361)
(-7.10204e-15 -0.0676245 6.40943)
(-8.34339e-15 -0.0748588 6.41796)
(-1.27442e-14 -0.0824212 6.42933)
(-8.21625e-15 -0.0902555 6.44367)
(-8.85801e-15 -0.0983365 6.46103)
(-8.88304e-15 -0.106611 6.48153)
(-9.07002e-15 -0.115041 6.50521)
(-7.91402e-15 -0.123571 6.53216)
(-7.15052e-15 -0.132144 6.56239)
(-8.67204e-15 -0.140701 6.59593)
(-8.23917e-15 -0.149162 6.63269)
(-5.07178e-15 -0.157474 6.67266)
(-6.83468e-15 -0.165516 6.71549)
(-6.44497e-15 -0.173235 6.76167)
(-5.34314e-15 -0.180567 6.80885)
(-4.9804e-15 -0.186934 6.86324)
(-4.918e-15 -0.193823 6.90384)
(-4.07704e-15 -0.197654 6.98951)
(2.10595e-15 -0.019887 16.9275)
(3.77105e-15 -0.0262507 16.5123)
(3.92428e-15 -0.0191395 16.1134)
(2.43227e-15 -0.0145285 15.6872)
(3.92416e-15 -0.0111101 15.2871)
(3.13255e-15 -0.00155931 14.9142)
(2.85343e-15 0.00911947 14.5658)
(2.86769e-15 0.0203536 14.28)
(2.85554e-15 0.053136 14.1186)
(1.21741e-15 0.145875 14.211)
(4.64614e-15 0.494937 14.2828)
(3.70204e-15 1.04429 13.837)
(3.27218e-15 0.999356 12.5304)
(4.34109e-15 0.407688 10.152)
(1.66883e-15 0.363307 9.20374)
(1.08334e-14 0.623128 8.95331)
(9.73188e-15 0.395351 6.80404)
(-2.38364e-14 0.137413 2.19033)
(-7.09333e-15 -0.310058 1.59127)
(5.09478e-14 -0.197365 2.94586)
(-9.43686e-15 -0.0484825 3.22976)
(-3.25961e-16 0.110747 2.88783)
(9.30847e-15 0.327256 1.2897)
(-1.56928e-14 0.422204 -1.78683)
(-2.35094e-15 0.539454 -3.55279)
(-3.37022e-14 0.590527 -3.98729)
(-4.30958e-14 0.397834 -3.82466)
(-1.05104e-14 0.131806 -3.32074)
(-7.69979e-15 0.0296111 -3.04681)
(-1.25099e-14 -0.0786608 -2.54172)
(2.43351e-14 -0.232878 -1.98196)
(-6.48678e-15 -0.362361 -1.45969)
(-1.22651e-14 -0.464862 -0.950347)
(-1.38555e-14 -0.526593 -0.403524)
(-5.76265e-15 -0.548127 0.24783)
(-4.93194e-15 -0.564711 0.899408)
(-8.24219e-15 -0.576357 1.54756)
(-5.55046e-15 -0.576389 2.16086)
(-1.46221e-15 -0.566715 2.73015)
(2.40331e-15 -0.549634 3.25002)
(4.26428e-15 -0.525349 3.71809)
(7.44539e-16 -0.495485 4.1357)
(-1.63732e-14 -0.461533 4.5046)
(6.39301e-16 -0.425133 4.8276)
(-1.26986e-15 -0.387343 5.1076)
(-3.1684e-15 -0.349413 5.34731)
(-1.99541e-15 -0.312055 5.54643)
(-7.60345e-17 -0.275112 5.71562)
(1.51291e-15 -0.240459 5.8612)
(2.52315e-15 -0.208673 5.98146)
(3.48073e-15 -0.180382 6.07991)
(3.94398e-15 -0.155179 6.15848)
(3.7576e-15 -0.133294 6.22174)
(3.49542e-15 -0.114515 6.27138)
(3.0885e-15 -0.0987632 6.30988)
(2.7246e-15 -0.0856983 6.33903)
(1.38257e-15 -0.0749593 6.36087)
(8.12575e-16 -0.0663254 6.37706)
(-2.61912e-16 -0.0592836 6.38832)
(-2.08771e-15 -0.0535999 6.39606)
(-3.79175e-15 -0.0488296 6.40075)
(-4.53975e-15 -0.0448739 6.40344)
(-4.96797e-15 -0.0413428 6.40409)
(-5.82992e-15 -0.0382535 6.40322)
(-6.81785e-15 -0.0354128 6.40072)
(-7.2972e-15 -0.0329188 6.39701)
(-9.69557e-15 -0.0305883 6.39206)
(-1.04304e-14 -0.0285465 6.38605)
(-9.52608e-15 -0.0267836 6.37889)
(-1.12368e-14 -0.0255103 6.37076)
(-1.56456e-14 -0.0247474 6.36174)
(-1.00395e-14 -0.0245965 6.35217)
(-1.1386e-14 -0.0250772 6.3424)
(-9.59954e-15 -0.0262656 6.33278)
(-1.45324e-14 -0.0282308 6.32361)
(-1.23087e-14 -0.0310358 6.31514)
(-9.8564e-15 -0.0347293 6.30766)
(-9.07719e-15 -0.0392855 6.30148)
(-7.73464e-15 -0.0446748 6.29687)
(-6.8818e-15 -0.0508076 6.29417)
(-1.01562e-14 -0.0576316 6.29362)
(-9.88296e-15 -0.0650373 6.29551)
(-8.79575e-15 -0.0729689 6.30001)
(-6.17549e-15 -0.0813368 6.30734)