# vtk DataFile Version 2.0
track0
ASCII
DATASET POLYDATA
POINTS 6430 float
-0.0205 0.001 1e-05
-0.0204727 0.00100011 1e-05
-0.0204454 0.00100021 1e-05
-0.0204181 0.00100032 1e-05
-0.0203908 0.00100042 1e-05
-0.0203635 0.00100053 1e-05
-0.0200299 0.00100181 1e-05
-0.0196963 0.00100312 1e-05
-0.0193627 0.00100443 1e-05
-0.0190291 0.00100573 1e-05
-0.0186954 0.00100701 1e-05
-0.018369 0.00100821 1e-05
-0.0180425 0.00100944 1e-05
-0.017716 0.00101066 1e-05
-0.0173896 0.00101188 1e-05
-0.0170631 0.00101307 1e-05
-0.0167436 0.00101419 1e-05
-0.0164242 0.00101534 1e-05
-0.0161047 0.00101648 1e-05
-0.0157852 0.00101761 1e-05
-0.0154657 0.00101873 1e-05
-0.0151531 0.00101977 1e-05
-0.0148405 0.00102085 1e-05
-0.0145279 0.00102191 1e-05
-0.0142152 0.00102297 1e-05
-0.0139026 0.00102401 1e-05
-0.0135967 0.00102499 1e-05
-0.0132908 0.00102599 1e-05
-0.0129848 0.00102698 1e-05
-0.0126789 0.00102797 1e-05
-0.012373 0.00102894 1e-05
-0.0120736 0.00102985 1e-05
-0.0117742 0.00103078 1e-05
-0.0114749 0.00103171 1e-05
-0.0111755 0.00103263 1e-05
-0.0108761 0.00103354 1e-05
-0.0105832 0.00103438 1e-05
-0.0102902 0.00103524 1e-05
-0.00999724 0.00103611 1e-05
-0.00970429 0.00103697 1e-05
-0.00941133 0.00103781 1e-05
-0.00912465 0.00103859 1e-05
-0.00883797 0.00103939 1e-05
-0.00855129 0.00104019 1e-05
-0.00826461 0.00104099 1e-05
-0.00797793 0.00104177 1e-05
-0.00769739 0.00104249 1e-05
-0.00741686 0.00104323 1e-05
-0.00713632 0.00104398 1e-05
-0.00685578 0.00104471 1e-05
-0.00657525 0.00104543 1e-05
-0.00630072 0.00104609 1e-05
-0.0060262 0.00104677 1e-05
-0.00575167 0.00104746 1e-05
-0.00547714 0.00104814 1e-05
-0.00520262 0.00104879 1e-05
-0.00493398 0.00104939 1e-05
-0.00466533 0.00105002 1e-05
-0.00439669 0.00105064 1e-05
-0.00412805 0.00105126 1e-05
-0.0038594 0.00105186 1e-05
-0.00359652 0.0010524 1e-05
-0.00333363 0.00105297 1e-05
-0.00307074 0.00105354 1e-05
-0.00280786 0.00105411 1e-05
-0.00254497 0.00105465 1e-05
-0.00228772 0.00105514 1e-05
-0.00203046 0.00105564 1e-05
-0.00177321 0.00105614 1e-05
-0.00151596 0.00105662 1e-05
-0.0012587 0.00105707 1e-05
-0.00100696 0.00105748 1e-05
-0.000755223 0.00105794 1e-05
-0.000503482 0.00105834 1e-05
-0.000251741 0.00105861 1e-05
0 0.00105871 1e-05
0.000329256 0.00105853 1e-05
0.000658511 0.00105851 1e-05
0.000987767 0.00105842 1e-05
0.00131702 0.00105811 1e-05
0.00164628 0.00105749 1e-05
0.00197921 0.00105642 1e-05
0.00231214 0.00105586 1e-05
0.00264507 0.00105544 1e-05
0.002978 0.00105494 1e-05
0.00331093 0.00105415 1e-05
0.00364757 0.0010527 1e-05
0.00398422 0.00105191 1e-05
0.00432087 0.00105131 1e-05
0.00465751 0.00105067 1e-05
0.00499415 0.00104974 1e-05
0.00533455 0.00104801 1e-05
0.00567496 0.00104694 1e-05
0.00601536 0.00104606 1e-05
0.00635577 0.00104512 1e-05
0.00669616 0.00104391 1e-05
0.00704036 0.00104188 1e-05
0.00738456 0.00104044 1e-05
0.00772877 0.00103914 1e-05
0.00807297 0.00103779 1e-05
0.00841716 0.00103619 1e-05
0.0087652 0.00103381 1e-05
0.00911324 0.00103193 1e-05
0.00946129 0.00103013 1e-05
0.00980933 0.00102825 1e-05
0.0101574 0.00102618 1e-05
0.0105093 0.0010234 1e-05
0.0108612 0.00102101 1e-05
0.0112131 0.00101863 1e-05
0.0115651 0.00101617 1e-05
0.011917 0.00101355 1e-05
0.0122728 0.00101032 1e-05
0.0126287 0.00100738 1e-05
0.0129845 0.00100439 1e-05
0.0133404 0.00100131 1e-05
0.0136962 0.000998112 1e-05
0.0140561 0.000994406 1e-05
0.0144159 0.000990888 1e-05
0.0147757 0.000987284 1e-05
0.0151355 0.00098359 1e-05
0.0154954 0.000979805 1e-05
0.0158592 0.00097561 1e-05
0.016223 0.000971504 1e-05
0.0165869 0.000967312 1e-05
0.0169507 0.000963033 1e-05
0.0173145 0.000958665 1e-05
0.0176824 0.000953992 1e-05
0.0180503 0.00094933 1e-05
0.0184182 0.00094459 1e-05
0.0187861 0.000939769 1e-05
0.019154 0.000934868 1e-05
0.019526 0.000929739 1e-05
0.019898 0.000924572 1e-05
0.02027 0.000919333 1e-05
0.020642 0.000914024 1e-05
0.0210141 0.000908643 1e-05
0.0213902 0.000903091 1e-05
0.0217664 0.000897471 1e-05
0.0221425 0.00089179 1e-05
0.0225187 0.000886046 1e-05
0.0228948 0.000880239 1e-05
0.0232752 0.000874297 1e-05
0.0236555 0.000868279 1e-05
0.0240359 0.000862207 1e-05
0.0244162 0.00085608 1e-05
0.0247966 0.000849897 1e-05
0.0251385 0.000844294 1e-05
0.0254805 0.000838636 1e-05
0.0258224 0.00083294 1e-05
0.0261644 0.000827205 1e-05
0.0264797 0.00082188 1e-05
0.0265277 0.000821065 1e-05
0.0265756 0.000820249 1e-05
0.0266236 0.000819432 1e-05
0.0266716 0.000818614 1e-05
0.0267196 0.000817796 1e-05
0.0271085 0.000811164 1e-05
0.0274973 0.00080448 1e-05
0.0278862 0.00079775 1e-05
0.0282751 0.000790973 1e-05
0.028664 0.00078415 1e-05
0.0290572 0.000777264 1e-05
0.0294505 0.000770288 1e-05
0.0298437 0.000763266 1e-05
0.0302369 0.000756198 1e-05
0.0306301 0.000749083 1e-05
0.0310278 0.000741945 1e-05
0.0314254 0.000734685 1e-05
0.031823 0.000727377 1e-05
0.0322206 0.00072002 1e-05
0.0326182 0.000712613 1e-05
0.0330203 0.00070521 1e-05
0.0334223 0.000697656 1e-05
0.0338244 0.000690049 1e-05
0.0342264 0.000682389 1e-05
0.0346285 0.000674674 1e-05
0.035035 0.000666976 1e-05
0.0354416 0.000659103 1e-05
0.0358481 0.000651168 1e-05
0.0362546 0.000643172 1e-05
0.0366612 0.000635127 1e-05
0.0370722 0.000627092 1e-05
0.0374833 0.000618878 1e-05
0.0378944 0.00061057 1e-05
0.0383055 0.000602191 1e-05
0.0387166 0.000593784 1e-05
0.0391322 0.000585357 1e-05
0.0395479 0.000576747 1e-05
0.0399635 0.000568006 1e-05
0.0403792 0.000559181 1e-05
0.0407949 0.000550344 1e-05
0.0412152 0.000541454 1e-05
0.0416355 0.000532375 1e-05
0.0420558 0.000523129 1e-05
0.042476 0.000513783 1e-05
0.0428964 0.000504435 1e-05
0.0433214 0.000495003 1e-05
0.0437463 0.000485372 1e-05
0.0441713 0.000475541 1e-05
0.0445963 0.000465599 1e-05
0.0450213 0.00045565 1e-05
0.0454511 0.000445585 1e-05
0.0458808 0.000435308 1e-05
0.0463105 0.000424819 1e-05
0.0467402 0.000414206 1e-05
0.04717 0.000403559 1e-05
0.0476045 0.000392761 1e-05
0.048039 0.000381737 1e-05
0.0484736 0.000370487 1e-05
0.0489081 0.000359098 1e-05
0.0493426 0.000347647 1e-05
0.049782 0.000336009 1e-05
0.0502214 0.00032413 1e-05
0.0506607 0.000312012 1e-05
0.0511001 0.000299743 1e-05
0.0515395 0.000287377 1e-05
0.0519838 0.000274784 1e-05
0.0524281 0.000261935 1e-05
0.0528723 0.000248859 1e-05
0.0533166 0.00023561 1e-05
0.0537609 0.000222211 1e-05
0.0542102 0.000208545 1e-05
0.0546594 0.000194604 1e-05
0.0551086 0.000180446 1e-05
0.0555578 0.000166091 1e-05
0.0560071 0.000151536 1e-05
0.0564614 0.00013667 1e-05
0.0569156 0.000121522 1e-05
0.0573698 0.000106152 1e-05
0.0578241 9.05597e-05 1e-05
0.0582784 7.47412e-05 1e-05
0.0587023 5.9793e-05 1e-05
0.0591262 4.46095e-05 1e-05
0.0595501 2.92154e-05 1e-05
0.0599739 1.361e-05 1e-05
0.0603386 -1.69407e-21 1e-05
0.0603859 -1.78418e-06 1e-05
0.0604332 -3.57095e-06 1e-05
0.0604804 -5.36031e-06 1e-05
0.0605277 -7.15226e-06 1e-05
0.060575 -8.94683e-06 1e-05
0.0610394 -2.66033e-05 1e-05
0.0615038 -4.45291e-05 1e-05
0.0619683 -6.27219e-05 1e-05
0.0624327 -8.11824e-05 1e-05
0.0628972 -9.99157e-05 1e-05
0.0633668 -0.000119092 1e-05
0.0638364 -0.000138592 1e-05
0.064306 -0.000158383 1e-05
0.0647756 -0.000178468 1e-05
0.0652453 -0.000198853 1e-05
0.0657202 -0.000219696 1e-05
0.0661951 -0.000240907 1e-05
0.0666699 -0.000262441 1e-05
0.0671447 -0.000284295 1e-05
0.0676197 -0.000306453 1e-05
0.0680998 -0.000329112 1e-05
0.06858 -0.00035216 1e-05
0.0690601 -0.000375585 1e-05
0.0695402 -0.000399356 1e-05
0.0700205 -0.000423431 1e-05
0.070506 -0.000448062 1e-05
0.0709916 -0.000473104 1e-05
0.071477 -0.000498558 1e-05
0.0719625 -0.000524377 1e-05
0.0724481 -0.000550528 1e-05
0.0729391 -0.00057729 1e-05
0.07343 -0.000604486 1e-05
0.0739209 -0.000632117 1e-05
0.0744118 -0.000660134 1e-05
0.0749029 -0.000688523 1e-05
0.0753993 -0.000717581 1e-05
0.0758957 -0.000747097 1e-05
0.0763921 -0.000777045 1e-05
0.0768884 -0.000807408 1e-05
0.077385 -0.000838201 1e-05
0.0778869 -0.000869726 1e-05
0.0783889 -0.000901724 1e-05
0.0788908 -0.000934163 1e-05
0.0793927 -0.000967048 1e-05
0.0798948 -0.0010004 1e-05
0.0799629 -0.00100499 1e-05
0.0800311 -0.00100958 1e-05
0.0800993 -0.00101419 1e-05
0.0801674 -0.0010188 1e-05
0.0802343 -0.00102334 1e-05
0.080674 -0.00105321 1e-05
0.0811136 -0.00108343 1e-05
0.0815532 -0.001114 1e-05
0.0819928 -0.00114492 1e-05
0.0824326 -0.00117622 1e-05
0.0829458 -0.00121311 1e-05
0.083459 -0.00125053 1e-05
0.0839722 -0.00128845 1e-05
0.0844853 -0.00132686 1e-05
0.0849987 -0.00136579 1e-05
0.0855177 -0.00140558 1e-05
0.0860366 -0.00144593 1e-05
0.0865555 -0.00148684 1e-05
0.0870743 -0.00152829 1e-05
0.0875935 -0.00157023 1e-05
0.0881183 -0.0016131 1e-05
0.088643 -0.00165657 1e-05
0.0891676 -0.00170064 1e-05
0.0896922 -0.00174525 1e-05
0.0902172 -0.00179041 1e-05
0.0907478 -0.00183657 1e-05
0.0912784 -0.00188335 1e-05
0.0918089 -0.00193072 1e-05
0.0923393 -0.00197866 1e-05
0.0928702 -0.00202722 1e-05
0.0931109 -0.00204949 1e-05
0.0933515 -0.0020719 1e-05
0.0935922 -0.00209442 1e-05
0.0938328 -0.00211706 1e-05
0.0940602 -0.00213858 1e-05
0.0943587 -0.00216697 1e-05
0.0946573 -0.00219554 1e-05
0.0949557 -0.0022243 1e-05
0.0952542 -0.00225324 1e-05
0.0955528 -0.00228239 1e-05
0.0960954 -0.00233565 1e-05
0.0966378 -0.00238956 1e-05
0.0971802 -0.00244409 1e-05
0.0977225 -0.00249925 1e-05
0.0982654 -0.00255509 1e-05
0.098814 -0.00261208 1e-05
0.0993624 -0.00266978 1e-05
0.0999109 -0.00272817 1e-05
0.100459 -0.00278721 1e-05
0.101008 -0.00284694 1e-05
0.101563 -0.0029079 1e-05
0.102117 -0.00296959 1e-05
0.102672 -0.003032 1e-05
0.103226 -0.00309508 1e-05
0.103782 -0.00315893 1e-05
0.104117 -0.00319794 1e-05
0.104453 -0.00323722 1e-05
0.104789 -0.00327676 1e-05
0.105124 -0.00331655 1e-05
0.105438 -0.00335397 1e-05
0.105668 -0.00338154 1e-05
0.105897 -0.00340922 1e-05
0.106127 -0.00343702 1e-05
0.106356 -0.00346494 1e-05
0.106586 -0.00349299 1e-05
0.107153 -0.00356253 1e-05
0.10772 -0.00363281 1e-05
0.108287 -0.00370382 1e-05
0.108854 -0.00377556 1e-05
0.109422 -0.00384812 1e-05
0.109995 -0.0039221 1e-05
0.110568 -0.00399688 1e-05
0.111142 -0.00407248 1e-05
0.111715 -0.00414884 1e-05
[...]
POINT_DATA 6430
 FIELD attributes 1
U 3 6430 float
6.81883 	0.0266731 	0 6.80785 	0.0265194 	0 6.79687 	0.0263657 	0 6.78589 	0.026212 	0 6.7749 	0.0260583 	0 6.76392 	0.0259046 	0 6.89478 	0.0272266 	0 6.89908 	0.0270774 	0 6.89461 	0.0268263 	0 6.87858 	0.026443 	0 6.74114 	0.0246711 	0 6.87207 	0.025891 	0 6.88174 	0.0257985 	0 6.87749 	0.0255555 	0 6.85687 	0.0251381 	0 6.71952 	0.0234775 	0 6.85018 	0.0246216 	0 6.8648 	0.0245781 	0 6.86077 	0.0243438 	0 6.83591 	0.0238992 	0 6.69899 	0.0223235 	0 6.8291 	0.0234101 	0 6.84826 	0.0234095 	0 6.84444 	0.0231836 	0 6.81569 	0.0227159 	0 6.67953 	0.0212057 	0 6.80883 	0.0222471 	0 6.83213 	0.0222841 	0 6.8285 	0.0220658 	0 6.79623 	0.0215774 	0 6.66107 	0.0201182 	0 6.78935 	0.0211222 	0 6.8164 	0.0211915 	0 6.81297 	0.0209794 	0 6.77753 	0.0204714 	0 6.64358 	0.0190525 	0 6.77067 	0.0200229 	0 6.80108 	0.0201194 	0 6.79784 	0.0199116 	0 6.75958 	0.0193845 	0 6.62704 	0.017998 	0 6.75278 	0.0189364 	0 6.7862 	0.019054 	0 6.78314 	0.0188474 	0 6.7424 	0.0183003 	0 6.61142 	0.0169383 	0 6.73568 	0.0178417 	0 6.77175 	0.0179749 	0 6.76888 	0.017768 	0 6.72599 	0.017203 	0 6.59672 	0.0158646 	0 6.71941 	0.0167366 	0 6.75778 	0.0168773 	0 6.75508 	0.0166619 	0 6.71035 	0.0160689 	0 6.58289 	0.0147325 	0 6.70389 	0.0155443 	0 6.74427 	0.0156875 	0 6.74181 	0.0154753 	0 6.69563 	0.0148824 	0 6.57017 	0.0135991 	0 6.68946 	0.0144511 	0 6.73144 	0.0146423 	0 6.72904 	0.0144541 	0 6.68153 	0.0138261 	0 6.55793 	0.0124568 	0 6.67558 	0.0130103 	0 6.71932 	0.0129599 	0 6.71758 	0.012538 	0 6.66964 	0.011797 	0 6.5486 	0.0105514 	0 6.665 	0.012238 	0 6.70893 	0.0107333 	0 6.70549 	0.00714578 	0 6.6546 	0.00255559 	0 6.53255 	-0.0035377 	0 6.64603 	-0.000392668 	0 6.68612 	-0.00182396 	0 6.67712 	-0.00630997 	0 6.62126 	-0.0124083 	0 6.49479 	-0.0209367 	0 6.60651 	-0.0110628 	0 6.64206 	-0.00830107 	0 6.62961 	-0.0100088 	0 6.57266 	-0.015653 	0 6.44291 	-0.0277304 	0 6.55574 	-0.0154601 	0 6.58775 	-0.0115785 	0 6.57354 	-0.0124819 	0 6.51707 	-0.0181065 	0 6.38347 	-0.0323293 	0 6.49652 	-0.0204416 	0 6.5237 	-0.017016 	0 6.50749 	-0.017855 	0 6.45244 	-0.0230039 	0 6.31548 	-0.0372207 	0 6.42708 	-0.0268115 	0 6.44808 	-0.0243783 	0 6.43046 	-0.0253391 	0 6.37917 	-0.0296488 	0 6.24097 	-0.0425956 	0 6.34892 	-0.0342529 	0 6.36231 	-0.0330307 	0 6.34399 	-0.0341917 	0 6.29924 	-0.0375631 	0 6.1627 	-0.0486149 	0 6.26411 	-0.0425079 	0 6.26827 	-0.0424215 	0 6.24961 	-0.0437439 	0 6.21374 	-0.0462205 	0 6.08205 	-0.0551347 	0 6.17391 	-0.0510825 	0 6.16769 	-0.0518485 	0 6.14888 	-0.053231 	0 6.12335 	-0.0549593 	0 5.99963 	-0.0617888 	0 6.07946 	-0.0594519 	0 6.06277 	-0.0607107 	0 6.04394 	-0.0620484 	0 6.02493 	-0.0633919 	0 5.91598 	-0.0682056 	0 5.97465 	-0.0674193 	0 5.95612 	-0.068624 	0 5.93743 	-0.0698333 	0 5.91857 	-0.0710473 	0 5.83171 	-0.0740847 	0 5.8687 	-0.0743564 	0 5.85046 	-0.0753852 	0 5.83208 	-0.0764177 	0 5.81355 	-0.0774539 	0 5.74761 	-0.0792372 	0 5.76605 	-0.0801011 	0 5.74828 	-0.0809426 	0 5.73039 	-0.081787 	0 5.71237 	-0.0826341 	0 5.66465 	-0.0836031 	0 5.66865 	-0.084692 	0 5.65154 	-0.0853629 	0 5.63433 	-0.0860358 	0 5.61701 	-0.0867107 	0 5.58392 	-0.0872291 	0 5.57788 	-0.0882588 	0 5.56159 	-0.0887924 	0 5.54522 	-0.0893276 	0 5.52877 	-0.0898642 	0 5.50649 	-0.0902351 	0 5.4962 	-0.0909429 	0 5.48257 	-0.0913326 	0 5.46888 	-0.0917231 	0 5.45514 	-0.0921145 	0 5.44242 	-0.0924762 	0 5.44043 	-0.0925321 	0 5.43845 	-0.092588 	0 5.43647 	-0.092644 	0 5.43448 	-0.0926999 	0 5.43263 	-0.0926502 	0 5.41829 	-0.093124 	0 5.40367 	-0.0935149 	0 5.38898 	-0.0939067 	0 5.37423 	-0.0942992 	0 5.36039 	-0.0938619 	0 5.34878 	-0.0948923 	0 5.33519 	-0.0952728 	0 5.32154 	-0.0956539 	0 5.30782 	-0.0960356 	0 5.29556 	-0.0950625 	0 5.28655 	-0.0965302 	0 5.27395 	-0.0969395 	0 5.26129 	-0.0973493 	0 5.24856 	-0.0977596 	0 5.2376 	-0.0964491 	0 5.23101 	-0.0982772 	0 5.21931 	-0.0987505 	0 5.20755 	-0.099224 	0 5.19573 	-0.0996978 	0 5.1858 	-0.0981951 	0 5.18146 	-0.100347 	0 5.17056 	-0.100915 	0 5.15959 	-0.101483 	0 5.1487 	-0.101885 	0 5.1394 	-0.100453 	0 5.13591 	-0.102633 	0 5.12697 	-0.103612 	0 5.11667 	-0.104302 	0 5.10671 	-0.104427 	0 5.09763 	-0.103354 	0 5.09452 	-0.105531 	0 5.08781 	-0.106986 	0 5.07805 	-0.107821 	0 5.06869 	-0.107758 	0 5.0597 	-0.107011 	0 5.0569 	-0.109235 	0 5.05233 	-0.111148 	0 5.04298 	-0.112146 	0 5.03389 	-0.111954 	0 5.02487 	-0.111514 	0 5.02228 	-0.113818 	0 5.01949 	-0.11612 	0 5.01075 	-0.11722 	0 5.0016 	-0.117075 	0 4.99245 	-0.116929 	0 4.98998 	-0.119334 	0 4.98731 	-0.121736 	0 4.98056 	-0.123014 	0 4.9712 	-0.123157 	0 4.96181 	-0.123299 	0 4.95937 	-0.125817 	0 4.95671 	-0.128332 	0 4.95169 	-0.129795 	0 4.94205 	-0.130221 	0 4.93234 	-0.130647 	0 4.92981 	-0.133285 	0 4.92703 	-0.135892 	0 4.92292 	-0.137474 	0 4.91354 	-0.138276 	0 4.90345 	-0.13898 	0 4.90073 	-0.141741 	0 4.89722 	-0.144133 	0 4.8926 	-0.145915 	0 4.88516 	-0.147316 	0 4.87461 	-0.148292 	0 4.87159 	-0.151179 	0 4.86701 	-0.153385 	0 4.8618 	-0.155364 	0 4.85636 	-0.157331 	0 4.84528 	-0.158569 	0 4.84155 	-0.161455 	0 4.83586 	-0.163629 	0 4.82999 	-0.1658 	0 4.82393 	-0.167967 	0 4.81496 	-0.169791 	0 4.81019 	-0.172296 	0 4.80429 	-0.174474 	0 4.79821 	-0.176649 	0 4.79196 	-0.178821 	0 4.78644 	-0.180686 	0 4.78599 	-0.180932 	0 4.78554 	-0.181177 	0 4.78508 	-0.181422 	0 4.78463 	-0.181667 	0 4.78404 	-0.181871 	0 4.78003 	-0.184495 	0 4.77557 	-0.187072 	0 4.77093 	-0.189645 	0 4.76613 	-0.192214 	0 4.7595 	-0.194347 	0 4.75787 	-0.197556 	0 4.75271 	-0.200306 	0 4.74738 	-0.203051 	0 4.74186 	-0.205793 	0 4.73262 	-0.20772 	0 4.73312 	-0.211428 	0 4.72772 	-0.214405 	0 4.72163 	-0.217312 	0 4.71383 	-0.219909 	0 4.70307 	-0.221936 	0 4.70277 	-0.225747 	0 4.7003 	-0.229318 	0 4.69339 	-0.232376 	0 4.6824 	-0.234719 	0 4.67056 	-0.236935 	0 4.66939 	-0.240842 	0 4.66797 	-0.244741 	0 4.66052 	-0.247874 	0 4.64775 	-0.250264 	0 4.63479 	-0.252649 	0 4.63268 	-0.256641 	0 4.63032 	-0.260625 	0 4.6229 	-0.263862 	0 4.60961 	-0.266467 	0 4.59548 	-0.269 	0 4.59238 	-0.273066 	0 4.58605 	-0.276697 	0 4.5772 	-0.279997 	0 4.56773 	-0.283248 	0 4.5524 	-0.285907 	0 4.54707 	-0.289873 	0 4.53722 	-0.293256 	0 4.52711 	-0.29663 	0 4.51674 	-0.299997 	0 4.50531 	-0.303276 	0 4.50438 	-0.303808 	0 4.50292 	-0.304271 	0 4.50145 	-0.304734 	0 4.49997 	-0.305196 	0 4.49852 	-0.30565 	0 4.49035 	-0.308664 	0 4.482 	-0.311673 	0 4.47346 	-0.314676 	0 4.46474 	-0.317672 	0 4.45569 	-0.32029 	0 4.44687 	-0.324268 	0 4.43612 	-0.327785 	0 4.42512 	-0.331294 	0 4.4137 	-0.3346 	0 4.40167 	-0.337464 	0 4.39206 	-0.341542 	0 4.38189 	-0.34554 	0 4.36953 	-0.349025 	0 4.3562 	-0.351913 	0 4.34261 	-0.354796 	0 4.33179 	-0.358854 	0 4.32066 	-0.362902 	0 4.30837 	-0.366394 	0 4.29355 	-0.3693 	0 4.27837 	-0.372175 	0 4.26627 	-0.376193 	0 4.25298 	-0.379754 	0 4.23904 	-0.383117 	0 4.2248 	-0.386468 	0 4.20881 	-0.389492 	0 4.20272 	-0.391241 	0 4.19597 	-0.392727 	0 4.18916 	-0.394211 	0 4.18229 	-0.395692 	0 4.17574 	-0.39709 	0 4.16825 	-0.398972 	0 4.16067 	-0.40085 	0 4.15301 	-0.402725 	0 4.14526 	-0.404597 	0 4.13726 	-0.406167 	0 4.12413 	-0.409874 	0 4.10953 	-0.413186 	0 4.09465 	-0.416486 	0 4.07926 	-0.419528 	0 4.06321 	-0.422182 	0 4.04911 	-0.425899 	0 4.0347 	-0.429603 	0 4.01842 	-0.432696 	0 4.00089 	-0.435235 	0 3.98306 	-0.437764 	0 3.96755 	-0.441344 	0 3.95134 	-0.44469 	0 3.9341 	-0.447584 	0 3.91641 	-0.450421 	0 3.89676 	-0.452799 	0 3.88658 	-0.454843 	0 3.87554 	-0.456502 	0 3.86435 	-0.458132 	0 3.85304 	-0.459757 	0 3.84237 	-0.461271 	0 3.8355 	-0.462436 	0 3.82858 	-0.4636 	0 3.82161 	-0.464761 	0 3.81459 	-0.465915 	0 3.80736 	-0.466808 	0 3.79075 	-0.469855 	0 3.77293 	-0.472533 	0 3.75482 	-0.475198 	0 3.73611 	-0.477537 	0 3.71675 	-0.479507 	0 3.69904 	-0.482482 	0 3.68101 	-0.48544 	0 3.66161 	-0.487796 	0 3.64067 	-0.489529 	0 3.61942 	-0.491252 	0 3.60016 	-0.493982 	0 3.57983 	-0.496202 	0 3.55883 	-0.498176 	0 3.53752 	-0.500133 	0 3.51542 	-0.50194 	0 3.51289 	-0.502237 	0 3.51023 	-0.502462 	0 3.50754 	-0.502669 	0 3.50484 	-0.502876 	0 3.50217 	-0.503079 	0 3.48493 	-0.504763 	0 3.46748 	-0.506436 	0 3.44981 	-0.508097 	0 3.43184 	-0.509657 	0 3.41322 	-0.510658 	0 3.39333 	-0.512792 	0 3.37299 	-0.514851 	0 3.35117 	-0.516308 	0 3.32845 	-0.517124 	0 3.30542 	-0.517927 	0 3.28396 	-0.519743 	0 3.26181 	-0.521227 	0 3.23878 	-0.522213 	0 3.21544 	-0.523181 	0 3.19084 	-0.523772 	0 3.18452 	-0.524175 	0 3.17797 	-0.524415 	0 3.17131 	-0.52459 	0 3.16462 	-0.524764 	0 3.15808 	-0.524932 	0 3.14232 	-0.525585 	0 3.12641 	-0.526231 	0 3.11035 	-0.526868 	0 3.09407 	-0.527366 	0 3.07741 	-0.527393 	0 3.05554 	-0.528472 	0 3.03313 	-0.529415 	0 3.00957 	-0.529812 	0 2.98527 	-0.529464 	0 2.96065 	-0.529099 	0 2.93724 	-0.529801 	0 2.9132 	-0.5301 	0 2.88847 	-0.529879 	0 2.86345 	-0.529637 	0 2.8375 	-0.529106 	0 2.83307 	-0.52916 	0 2.82854 	-0.52911 	0 2.82395 	-0.529002 	0 2.81935 	-0.528893 	0 2.81482 	-0.528785 	0 2.79589 	-0.528539 	0 2.77679 	-0.528281 	0 2.75751 	-0.528013 	0 2.73803 	-0.527516 	0 2.71828 	-0.526462 	0 2.69489 	-0.526322 	0 2.6712 	-0.526161 	0 2.6465 	-0.525203 	0 2.62123 	-0.523502 	0 2.59564 	-0.521781 	0 2.57254 	-0.52127 	0 2.54898 	-0.520158 	0 2.52508 	-0.518692 	0 2.50094 	-0.517209 	0 2.47823 	-0.515812 	0 2.47632 	-0.515707 	0 2.47441 	-0.515603 	0 2.47249 	-0.515499 	0 2.47059 	-0.515368 	0 2.46871 	-0.51518 	0 2.44538 	-0.513706 	0 2.4217 	-0.512082 	0 2.39777 	-0.510442 	0 2.37379 	-0.508325 	0 2.34975 	-0.505605 	0 2.3257 	-0.504173 	0 2.30137 	-0.502719 	0 2.27702 	-0.50038 	0 2.252 	-0.497358 	0 2.2266 	-0.4942 	0 2.2124 	-0.493169 	0 2.19819 	-0.491771 	0 2.18395 	-0.490115 	0 2.16965 	-0.488453 	0 2.15578 	-0.486844 	0 2.14586 	-0.485705 	0 2.13591 	-0.484563 	0 2.12591 	-0.483418 	0 2.11606 	-0.482098 	0 2.1065 	-0.480448 	0 2.08391 	-0.478146 	0 2.0609 	-0.475396 	0 2.03761 	-0.472443 	0 2.01518 	-0.468375 	0 1.99264 	-0.464243 	0 1.96931 	-0.461585 	0 1.94611 	-0.458502 	0 1.92338 	-0.454649 	0 1.90052 	-0.450784 	0 1.87728 	-0.44656 	0 1.87327 	-0.446061 	0 1.86935 	-0.445451 	0 1.86549 	-0.444758 	0 1.86163 	-0.444065 	0 1.85779 	-0.443376 	0 1.84097 	-0.440236 	0 1.82409 	-0.43709 	0 1.80715 	-0.43394 	0 1.79072 	-0.43043 	0 1.77533 	-0.426251 	0 1.75492 	-0.422886 	0 1.73438 	-0.419509 	0 1.71464 	-0.415171 	0 1.69586 	-0.409887 	0 1.67711 	-0.404602 	0 1.66013 	-0.401617 	0 1.64402 	-0.398001 	0 1.62845 	-0.394004 	0 1.6129 	-0.390009 	0 1.59754 	-0.386058 	0 1.59476 	-0.385289 	0 1.59198 	-0.38452 	0 1.5892 	-0.38375 	0 1.58658 	-0.382914 	0 1.58432 	-0.381917 	0 1.5682 	-0.377672 	0 1.55234 	-0.37307 	0 1.53655 	-0.368476 	0 1.52231 	-0.363203 	0 1.50957 	-0.357343 	0 1.49384 	-0.353409 	0 1.47812 	-0.349478 	0 1.46466 	-0.344495 	0 1.45215 	-0.338665 	0 1.43998 	-0.332738 	0 1.42966 	-0.329989 	0 1.42065 	-0.326625 	0 1.41222 	-0.323027 	0 1.40389 	-0.319441 	0 1.39542 	-0.315762 	0 1.39254 	-0.314301 	0 1.38967 	-0.312844 	0 1.38683 	-0.311389 	0 1.3842 	-0.309864 	0 1.38245 	-0.308016 	0 1.37278 	-0.303789 	0 1.36385 	-0.29898 	0 1.35515 	-0.294202 	0 1.34845 	-0.28877 	0 1.34363 	-0.282815 	0 1.3351 	-0.279001 	0 1.32674 	-0.275212 	0 1.3208 	-0.270443 	0 1.3168 	-0.264564 	0 1.31323 	-0.25877 	0 1.30619 	-0.255109 	0 1.30166 	-0.250541 	0 1.29809 	-0.245764 	0 1.29486 	-0.241044 	0 1.29217 	-0.236153 	0 1.29136 	-0.235638 	0 1.29095 	-0.234962 	0 1.29056 	-0.23428 	0 1.29018 	-0.2336 	0 1.2898 	-0.232907 	0 1.28908 	-0.229241 	0 1.28858 	-0.225613 	0 1.28832 	-0.222023 	0 1.28829 	-0.218471 	0 1.29011 	-0.214909 	0 1.29018 	-0.211167 	0 1.29073 	-0.207217 	0 1.29165 	-0.203225 	0 1.29415 	-0.1992 	0 1.2975 	-0.195213 	0 1.29905 	-0.191786 	0 1.30087 	-0.188405 	0 1.30387 	-0.184812 	0 1.30797 	-0.180973 	0 1.31237 	-0.177204 	0 1.31528 	-0.174082 	0 1.3189 	-0.170943 	0 1.32369 	-0.167729 	0 1.32875 	-0.164422 	0 1.33407 	-0.160871 	0 1.33829 	-0.158023 	0 1.34381 	-0.155029 	0 1.34958 	-0.152079 	0 1.35562 	-0.149171 	0 1.36184 	-0.146146 	0 1.36406 	-0.145087 	0 1.36656 	-0.143979 	0 1.3691 	-0.142878 	0 1.37167 	-0.141782 	0 1.37453 	-0.140591 	0 1.37894 	-0.139065 	0 1.38342 	-0.137552 	0 1.38798 	-0.136051 	0 1.39261 	-0.134562 	0 1.39425 	-0.133328 	0 1.40529 	-0.13079 	0 1.41313 	-0.128383 	0 1.42116 	-0.126009 	0 1.42939 	-0.123665 	0 1.4297 	-0.121937 	0 1.4461 	-0.119498 	0 1.45513 	-0.117266 	0 1.46364 	-0.115078 	0 1.46892 	-0.113139 	0 1.46822 	-0.111626 	0 1.48531 	-0.109394 	0 1.49967 	-0.107246 	0 1.50853 	-0.105229 	0 1.50974 	-0.103701 	0 1.50914 	-0.102303 	0 1.52682 	-0.100258 	0 1.54471 	-0.0982414 	0 1.55314 	-0.0964731 	0 1.55246 	-0.0951705 	0 1.55187 	-0.0938797 	0 1.57004 	-0.0920047 	0 1.58841 	-0.0901538 	0 1.59731 	-0.0886653 	0 1.59658 	-0.087463 	0 1.59591 	-0.0862708 	0 1.6145 	-0.0845498 	0 1.63326 	-0.0828498 	0 1.64253 	-0.0816119 	0 1.64166 	-0.0805024 	0 1.64086 	-0.0794014 	0 1.65979 	-0.0778206 	0 1.67628 	-0.0763675 	0 1.68498 	-0.0752642 	0 1.68734 	-0.0742159 	0 1.68634 	-0.0732 	0 1.70556 	-0.071747 	0 1.71916 	-0.0705327 	0 1.72791 	-0.0695229 	0 1.73331 	-0.0685411 	0 1.73208 	-0.0676047 	0 1.75154 	-0.0662692 	0 1.76235 	-0.0652596 	0 1.7711 	-0.0643358 	0 1.77935 	-0.0634224 	0 1.77785 	-0.0625615 	0 1.79699 	-0.0613518 	0 1.80563 	-0.0605011 	0 1.81434 	-0.0596572 	0 1.82313 	-0.05882 	0 1.82348 	-0.0580225 	0 1.84023 	-0.0569907 	0 1.84882 	-0.056216 	0 1.85748 	-0.0554472 	0 1.86621 	-0.0546842 	0 1.86884 	-0.0539489 	0 1.88328 	-0.0530749 	0 1.89182 	-0.052373 	0 1.90042 	-0.0516762 	0 1.90907 	-0.0509844 	0 1.91386 	-0.0503114 	0 1.92609 	-0.0495806 	0 1.93456 	-0.0489522 	0 1.94309 	-0.0483282 	0 1.95166 	-0.0477084 	0 1.95849 	-0.0471 	0 1.96735 	-0.0465888 	0 1.97449 	-0.0461205 	0 1.98168 	-0.0456549 	0 1.98889 	-0.0451918 	0 1.99722 	-0.0446626 	0 1.99834 	-0.0445956 	0 1.99946 	-0.0445287 	0 2.00059 	-0.0444619 	0 2.00171 	-0.0443951 	0 1.99661 	-0.0442835 	0 2.01136 	-0.0438877 	0 2.01991 	-0.0434472 	0 2.0285 	-0.0430095 	0 2.03713 	-0.0425745 	0 1.98992 	-0.0417688 	0 2.05448 	-0.0418381 	0 2.06331 	-0.0415238 	0 2.07216 	-0.0412115 	0 2.08104 	-0.0409013 	0 1.98383 	-0.0399186 	0 2.09864 	-0.0404781 	0 2.10671 	-0.0403822 	0 2.1148 	-0.0402874 	0 2.12289 	-0.0401937 	0 1.97247 	-0.0391107 	0 2.13919 	-0.0404718 	0 2.15021 	-0.0412763 	0 2.1612 	-0.0420779 	0 2.17215 	-0.0428766 	0 1.97093 	-0.0423426 	0 2.20013 	-0.0451685 	0 2.20701 	-0.0458837 	0 2.21387 	-0.0465968 	0 2.22071 	-0.0473076 	0 2.099 	-0.04736 	0