/*--------------------------------*- C++ -*----------------------------------*\
| =========                 |                                                 |
| \\      /  F ield         | OpenFOAM: The Open Source CFD Toolbox           |
|  \\    /   O peration     | Version:  4.1                                   |
|   \\  /    A nd           | Web:      www.OpenFOAM.org                      |
|    \\/     M anipulation  |                                                 |
\*---------------------------------------------------------------------------*/
FoamFile
{
    version     2.0;
    format      ascii;
    class       volScalarField;
    location    "139";
    object      k;
}
// * * * * * * * * * * * * * * * * * * * * * * * * * * * * * * * * * * * * * //

dimensions      [0 2 -2 0 0 0 0];

internalField   nonuniform List<scalar> 
225
(
0.391476
9.46352e-05
9.23518e-05
9.23764e-05
9.2377e-05
9.2347e-05
9.2365e-05
9.23835e-05
9.23431e-05
9.23676e-05
9.23816e-05
9.23348e-05
9.23499e-05
0.000231722
0.592019
0.447289
0.00560749
4.5638e-07
2.03177e-08
1.96546e-08
1.90257e-08
1.83388e-08
1.75303e-08
1.64826e-08
0.0276631
0.053117
0.000263413
0.0468583
0.000121185
0.242374
0.516645
0.00292808
3.91309e-08
6.57735e-12
5.31764e-12
4.16239e-12
3.15539e-12
2.34723e-12
5.7278e-05
1.09352
2.09797
2.20603
1.84895
2.13673
0.705681
0.597021
0.00478756
1.51535e-07
4.10355e-14
2.10842e-14
1.74523e-14
1.51336e-14
1.20205e-14
2.33338e-10
0.00125917
0.513346
1.63456
1.7914
3.17372
1.56789
0.627022
0.0103057
2.59274e-06
7.27669e-07
4.79307e-14
6.84992e-15
6.87778e-15
2.18142e-14
2.05928e-12
2.49049e-07
0.00262178
0.460092
0.899681
2.49037
1.83211
0.708351
0.0230001
2.80323e-06
5.73482e-06
1.78471e-12
6.89971e-15
6.7274e-15
6.97973e-15
3.32614e-14
2.07823e-11
0.000104038
0.13538
0.477186
2.10115
1.91556
0.802282
0.0379327
0.0085591
4.80119e-05
8.91489e-10
5.91792e-15
6.787e-15
7.28304e-15
9.31808e-14
1.12794e-09
2.88459e-05
0.0772986
0.439039
1.36985
2.01658
1.11386
0.1254
0.00096976
6.04068e-05
7.93109e-11
1.91602e-14
6.72401e-15
7.84117e-15
4.67894e-13
6.07358e-09
4.59246e-07
0.00892458
0.301695
1.3841
2.23935
1.28475
0.113235
0.000896068
5.67919e-06
1.50135e-12
6.7488e-15
6.6656e-15
6.83888e-15
1.95031e-09
8.67966e-09
0.00024028
0.00106917
0.137904
1.06879
2.27401
1.52114
0.132098
0.000549795
4.76789e-08
1.92851e-14
7.08297e-15
6.79734e-15
6.77239e-15
6.59954e-15
3.11403e-11
2.66535e-05
0.000118615
0.066254
0.931136
2.49756
1.75
0.303836
0.00656843
0.00147634
4.58992e-13
2.37595e-13
7.19793e-15
6.99359e-15
7.40913e-15
2.93937e-14
2.82759e-09
1.25839e-08
0.0270732
0.963689
2.56241
2.25051
0.576706
0.0419368
1.47148e-05
5.09529e-10
5.22551e-12
8.93783e-14
8.21407e-15
4.17054e-13
1.80979e-13
0.00414726
0.0737745
0.596006
1.64518
2.49236
2.29428
0.431966
0.0184798
9.38072e-09
5.51821e-12
1.42111e-14
6.78917e-15
7.79527e-14
7.1944e-09
0.000195052
0.163954
2.91724
8.92208
26.2715
7.39564
1.73933
0.23609
0.00265186
1.26491e-09
1.58769e-14
8.05291e-15
4.72186e-13
5.62085e-09
0.00107247
0.548384
12.5713
32.6469
84.5402
140.857
33.1613
1.85844
0.17222
0.000751192
4.04286e-10
7.59716e-15
6.87998e-15
7.77757e-15
3.866e-12
3.37891e-07
0.000185556
0.0131209
0.199318
1.027
3.77987
25.3944
)
;

boundaryField
{
    inletFace
    {
        type            empty;
    }
    inlet
    {
        type            fixedValue;
        value           uniform 0.648;
    }
    inletWalls
    {
        type            kqRWallFunction;
        value           nonuniform List<scalar> 
30
(
0.592019
0.242374
0.705681
1.56789
1.83211
1.91556
2.01658
2.23935
2.27401
2.49756
2.56241
2.49236
7.39564
33.1613
25.3944
1.85844
1.73933
2.29428
2.25051
1.75
1.52114
1.28475
1.11386
0.802282
0.708351
0.627022
0.597021
0.516645
0.447289
0.391476
)
;
    }
    outletInlet
    {
        type            zeroGradient;
    }
}


// ************************************************************************* //
