/*--------------------------------*- C++ -*----------------------------------*\
| =========                 |                                                 |
| \\      /  F ield         | OpenFOAM: The Open Source CFD Toolbox           |
|  \\    /   O peration     | Version:  4.1                                   |
|   \\  /    A nd           | Web:      www.OpenFOAM.org                      |
|    \\/     M anipulation  |                                                 |
\*---------------------------------------------------------------------------*/
FoamFile
{
    version     2.0;
    format      ascii;
    class       volScalarField;
    location    "139";
    object      p;
}
// * * * * * * * * * * * * * * * * * * * * * * * * * * * * * * * * * * * * * //

dimensions      [0 2 -2 0 0 0 0];

internalField   nonuniform List<scalar> 
225
(
494.287
441.299
389.947
341.857
297.263
255.521
216.442
179.7
144.806
111.563
80.7422
52.7908
23.8018
-11.5073
-40.9626
33.7635
11.5524
6.23984
2.61882
-2.80561
-8.43709
-13.5134
-17.8338
-21.2521
-23.7034
-25.0079
-24.7056
-22.7284
-20.8835
-20.8
-66.5662
-73.294
-66.8088
-62.5154
-59.2027
-55.3607
-51.2592
-47.1447
-43.0834
-39.1514
-35.5044
-32.2606
-29.0913
-26.1782
-24.5582
-12.9285
-15.2892
-9.70554
-8.96636
-8.21523
-7.20332
-6.42029
-5.82577
-5.32392
-4.84624
-4.36471
-4.00339
-3.86746
-3.55153
-2.77354
11.8543
9.95542
12.4627
10.6811
10.0158
9.40352
8.60383
7.8213
7.13089
6.58338
6.25264
6.162
6.24321
6.46515
6.92352
5.5756
3.69529
5.19793
3.54677
3.60659
3.531
3.33421
3.22799
3.17305
3.12931
3.09502
3.07339
3.02178
2.91758
2.85813
-0.679915
-2.11477
-0.831994
-1.95191
-1.4408
-1.35598
-1.32466
-1.21976
-1.12899
-1.07344
-1.04926
-1.04409
-1.07314
-1.15377
-1.29107
-1.20729
-2.16901
-1.08194
-1.98272
-1.44054
-1.51548
-1.53507
-1.49994
-1.48863
-1.48495
-1.48191
-1.46775
-1.44023
-1.4102
-1.43233
-0.329717
-0.987114
-0.145496
-0.945776
-0.431033
-0.598567
-0.597475
-0.572168
-0.572954
-0.567358
-0.559651
-0.549666
-0.529357
-0.492243
-0.471966
-0.117964
-0.587177
0.0353543
-0.672279
-0.187751
-0.400487
-0.369507
-0.362874
-0.383393
-0.397706
-0.417007
-0.44292
-0.475113
-0.503418
-0.533042
-0.509196
-0.872204
-0.456822
-1.08088
-0.657724
-0.92933
-0.911864
-0.965317
-1.03615
-1.09818
-1.17214
-1.25674
-1.34714
-1.42893
-1.50302
-0.993246
-1.27486
-1.00986
-1.53456
-1.1566
-1.44694
-1.41364
-1.48104
-1.54523
-1.6016
-1.65146
-1.75579
-2.00108
-2.3003
-2.51952
-0.958225
-1.13123
-0.889084
-1.26062
-0.854915
-1.0656
-0.931846
-0.913549
-0.859359
-0.797646
-0.850695
-1.03421
-1.53716
-2.0202
-1.52979
-0.0262242
-0.0758748
0.192573
-0.0272207
0.424513
0.326771
0.584273
0.711879
0.888883
1.20795
1.57358
1.55536
1.09394
1.33056
2.60609
0.475966
0.423261
0.552029
0.334222
0.643449
0.455181
0.608595
0.581847
0.570051
0.557814
0.676097
0.849492
0.996405
1.12669
1.18226
)
;

boundaryField
{
    inletFace
    {
        type            empty;
    }
    inlet
    {
        type            zeroGradient;
    }
    inletWalls
    {
        type            zeroGradient;
    }
    outletInlet
    {
        type            fixedValue;
        value           uniform 0;
    }
}


// ************************************************************************* //
