/*--------------------------------*- C++ -*----------------------------------*\
| =========                 |                                                 |
| \\      /  F ield         | OpenFOAM: The Open Source CFD Toolbox           |
|  \\    /   O peration     | Version:  4.1                                   |
|   \\  /    A nd           | Web:      www.OpenFOAM.org                      |
|    \\/     M anipulation  |                                                 |
\*---------------------------------------------------------------------------*/
FoamFile
{
    version     2.0;
    format      ascii;
    class       surfaceScalarField;
    location    "139";
    object      phi;
}
// * * * * * * * * * * * * * * * * * * * * * * * * * * * * * * * * * * * * * //

dimensions      [0 3 -1 0 0 0 0];

internalField   nonuniform List<scalar> 
420
(
-994.098
2293.99
-1610.71
1916.81
-2086.39
1775.57
-2451.28
1664.79
-2720.87
1569.79
-2902.38
1481.4
-2998.97
1396.48
-3010.68
1311.91
-2938.25
1227.46
-2779.92
1141.56
-2529.94
1050.22
-2169.17
939.128
-1661.34
792.059
-995.267
634.126
304.632
315.788
1978.18
406.617
1825.94
418.642
1763.52
402.057
1681.34
388.105
1583.71
377.99
1491.48
372.772
1401.66
375.263
1309.39
393.313
1209.38
418.057
1116.79
428.07
1040.19
401.274
965.879
315.437
877.85
193.541
755.954
498.172
-36.7689
2014.91
-135.073
1924.21
-268.45
1896.86
-353.69
1766.54
-419.707
1649.69
-474.366
1546.1
-513.157
1440.42
-529.139
1325.33
-524.903
1205.12
-518.885
1110.75
-508.242
1029.52
-487.04
944.659
-427.027
817.795
-273.571
602.416
224.6
-48.2008
2063.07
-151.721
2027.69
-258.739
2003.83
-314.045
1821.8
-359.145
1694.74
-391.462
1578.37
-404.918
1453.82
-398.42
1318.78
-367.316
1173.95
-303.986
1047.36
-208.432
933.939
-96.8537
833.021
17.0147
703.866
86.4608
532.871
311.058
45.0075
2018
20.1306
2052.49
7.96359
2015.93
18.5506
1811.13
23.6944
1689.5
32.4858
1569.48
44.7297
1441.48
59.6786
1303.73
75.6384
1157.89
90.3895
1032.5
101.852
922.388
112.754
822.002
133.173
683.326
117.028
548.874
428.084
61.9382
1955.97
53.0015
2061.33
58.9138
2009.91
76.703
1793.23
83.9708
1682.13
91.6071
1561.74
97.8754
1435.09
99.818
1301.68
98.4657
1159.13
95.1545
1035.71
88.9379
928.516
82.8123
828.027
80.8948
685.146
57.8321
571.833
485.912
43.3394
1912.55
30.7701
2073.82
26.0718
2014.53
28.7467
1790.47
23.5645
1687.23
21.1928
1564.04
18.79
1437.42
15.8824
1304.55
12.6746
1162.28
10.7124
1037.55
10.0428
929.237
12.1649
825.457
18.7986
678.162
15.133
575.154
501.049
32.4722
1880.07
21.4673
2084.82
15.8679
2020.12
14.4319
1791.91
7.43314
1694.25
5.54229
1565.95
2.23853
1440.78
-0.815935
1307.61
-2.92858
1164.42
-4.90364
1039.63
-6.41953
930.695
-4.74748
824.252
2.07437
671.701
3.473
574.094
504.519
29.7533
1850.38
23.3081
2091.33
19.9422
2023.56
19.9769
1791.95
14.8668
1699.41
14.2846
1566.6
12.2241
1442.87
9.42197
1310.5
7.00809
1166.9
4.85087
1041.77
2.17599
933.539
-0.437383
826.411
1.63744
669.329
1.92935
573.534
506.456
24.6139
1825.97
23.875
2092.27
20.8859
2026.76
19.7514
1793.3
16.0401
1703.34
15.0018
1567.83
12.1567
1445.93
9.70173
1313.12
6.58648
1170.21
3.17264
1045.46
0.147408
936.603
-0.985248
828.358
2.22697
666.834
3.4503
572.972
509.914
20.4069
1805.82
23.1307
2089.81
21.5992
2028.56
19.3054
1795.87
16.1322
1706.78
16.301
1567.92
13.7742
1448.72
12.1884
1314.91
10.8994
1171.73
11.4104
1045.25
10.1853
937.924
4.59091
834.7
-2.13595
674.257
-6.97419
578.453
502.936
21.3941
1784.56
26.6673
2084.68
26.5781
2028.79
26.0031
1796.58
25.2181
1707.66
27.2758
1565.96
28.1359
1447.92
29.3327
1313.82
31.2316
1169.93
26.3982
1050.09
36.8801
927.613
77.0038
794.187
77.9138
673.056
44.8645
611.22
547.803
20.2381
1764.28
29.6782
2075.18
31.3302
2027.07
32.2901
1795.53
35.0647
1704.81
38.9464
1561.98
42.1548
1444.64
46.6847
1309.17
51.1799
1165.38
93.3868
1007.83
149.122
871.829
194.784
748.61
174.025
693.856
109.816
675.479
657.618
7.11671
1757.01
16.8147
2065.34
16.441
2027.3
12.7426
1799.08
9.03481
1708.36
6.72338
1564.15
0.391377
1450.8
-5.50992
1314.95
-11.7889
1171.55
43.8844
952.077
98.8701
816.845
100.807
746.587
70.5857
724.035
28.9956
717.011
686.615
-4.21167
-1.47944
-6.24623
-9.2782
-15.0554
-18.8789
-23.0735
-27.327
-28.1926
-12.5604
3.56419
-3.56177
-21.0808
-25.548
)
;

boundaryField
{
    inletFace
    {
        type            empty;
        value           nonuniform 0();
    }
    inlet
    {
        type            calculated;
        value           nonuniform List<scalar> 
15
(
-1299.9
-1300.2
-1299.9
-1299.9
-1300.2
-1299.9
-1299.9
-1300.2
-1299.9
-1299.9
-1300.2
-1299.9
-1299.9
-1300.2
-1299.9
)
;
    }
    inletWalls
    {
        type            calculated;
        value           uniform 0;
    }
    outletInlet
    {
        type            calculated;
        value           nonuniform List<scalar> 
15
(
661.067
721.711
741.88
754.036
800.964
936.635
1172.62
1319.32
1455.14
1568.05
1714.23
1802.17
2032.13
2062.64
1761.26
)
;
    }
}


// ************************************************************************* //
