/*--------------------------------*- C++ -*----------------------------------*\
| =========                 |                                                 |
| \\      /  F ield         | OpenFOAM: The Open Source CFD Toolbox           |
|  \\    /   O peration     | Version:  4.1                                   |
|   \\  /    A nd           | Web:      www.OpenFOAM.org                      |
|    \\/     M anipulation  |                                                 |
\*---------------------------------------------------------------------------*/
FoamFile
{
    version     2.0;
    format      ascii;
    class       volVectorField;
    location    "139";
    object      U;
}
// * * * * * * * * * * * * * * * * * * * * * * * * * * * * * * * * * * * * * //

dimensions      [0 1 -1 0 0 0 0];

internalField   nonuniform List<vector> 
225
(
(0 0.989033 15.9597)
(3.61837e-15 -4.84494 12.0615)
(-3.13926e-15 -4.11276 12.1112)
(0 -3.53806 11.9605)
(1.75792e-15 -2.94541 11.8413)
(-1.6821e-15 -2.50301 11.6585)
(0 -2.1678 11.4297)
(9.62447e-16 -1.93434 11.1548)
(-9.7897e-16 -1.77171 10.8517)
(0 -1.69087 10.5265)
(4.45588e-16 -1.83626 10.1034)
(-4.92009e-16 -2.32984 9.49353)
(0 -2.57857 8.95724)
(-2.88402e-16 -1.01912 9.04258)
(4.99452e-16 1.95644 7.75871)
(0 -5.15881 23.2516)
(0 -14.6847 21.2011)
(0 -13.1323 20.1647)
(0 -11.6384 19.3505)
(0 -11.0629 18.3442)
(0 -10.5837 17.3501)
(0 -10.0213 16.3946)
(0 -9.46777 15.4441)
(0 -8.96575 14.527)
(0 -8.43181 13.6057)
(0 -7.85541 12.6235)
(0 -7.3768 11.5683)
(0 -7.05394 10.3289)
(0 -5.66148 8.7159)
(0 -2.24729 4.57448)
(8.73016e-16 -7.77369 25.5706)
(-9.01504e-16 -16.9413 24.2316)
(0 -13.413 23.6479)
(7.68541e-16 -12.1103 22.3164)
(-7.8067e-16 -11.5213 20.9216)
(0 -10.7361 19.6709)
(6.61073e-16 -9.91207 18.4256)
(-6.88506e-16 -9.09802 17.1021)
(0 -8.22229 15.5889)
(3.23731e-16 -7.44963 14.2355)
(-2.31121e-16 -6.85144 13.2039)
(0 -6.27364 12.1959)
(2.22559e-16 -5.54858 10.7445)
(-3.52325e-16 -4.36112 8.23654)
(0 -2.34572 3.84781)
(-3.347e-16 -8.94199 24.3797)
(3.29548e-16 -16.6686 23.5595)
(-2.659e-16 -12.3479 23.2694)
(9.17072e-18 -11.7753 21.3688)
(2.14873e-16 -11.0689 19.8691)
(-1.99261e-16 -10.1441 18.5283)
(9.56491e-18 -9.27858 17.1181)
(1.82008e-16 -8.38602 15.58)
(-1.82595e-16 -7.44652 13.9135)
(8.32079e-18 -6.68786 12.4608)
(1.38156e-16 -6.12576 11.2264)
(-1.06288e-16 -5.62155 10.1478)
(2.99032e-18 -4.91132 8.71766)
(1.30178e-16 -3.83061 6.4806)
(-2.51274e-16 -2.65008 3.25435)
(-1.28864e-16 -9.41386 23.2735)
(-3.72303e-18 -16.3942 23.2139)
(1.37995e-16 -11.9967 22.8866)
(-1.40734e-16 -12.0623 20.5895)
(9.50112e-18 -11.1928 19.146)
(1.50576e-16 -10.2768 17.7727)
(-1.36586e-16 -9.46423 16.3034)
(1.37993e-17 -8.57795 14.7175)
(1.49312e-16 -7.62111 13.0317)
(-1.39956e-16 -6.80585 11.5905)
(5.07108e-18 -6.1242 10.333)
(1.41419e-16 -5.49736 9.19706)
(-1.31376e-16 -4.60007 7.65821)
(-7.30992e-18 -3.61595 5.91846)
(2.358e-16 -2.78388 3.96493)
(6.58328e-17 -9.67242 22.715)
(4.97354e-17 -16.2724 23.5666)
(-8.86962e-19 -12.0721 23.0508)
(-5.62626e-17 -12.3578 20.5953)
(4.79392e-17 -11.3026 19.254)
(-2.12013e-18 -10.4112 17.8776)
(-5.2943e-17 -9.62831 16.4069)
(5.36342e-17 -8.73763 14.8438)
(-1.01425e-18 -7.77293 13.1822)
(-6.53421e-17 -6.93014 11.7427)
(7.05433e-17 -6.20288 10.4875)
(-9.75932e-19 -5.53956 9.33585)
(-7.40837e-17 -4.56352 7.69911)
(6.73215e-17 -3.73896 6.31627)
(-1.08663e-18 -3.04607 5.15762)
(-3.24533e-17 -9.87841 22.3172)
(1.96061e-17 -16.1744 23.9001)
(-2.05978e-17 -12.1448 23.2488)
(-4.34778e-18 -12.5111 20.7079)
(2.92493e-17 -11.2576 19.4735)
(-2.59426e-17 -10.4266 18.0724)
(1.14606e-18 -9.64869 16.6102)
(2.98823e-17 -8.74319 15.0721)
(-2.99873e-17 -7.78257 13.4279)
(8.86513e-19 -6.94635 11.9935)
(3.64258e-17 -6.22135 10.745)
(-3.9679e-17 -5.55053 9.56468)
(-1.8624e-18 -4.58416 7.89996)
(4.35077e-17 -3.89163 6.6745)
(-5.95985e-17 -3.25071 5.81187)
(1.89649e-17 -10.0599 21.9055)
(0 -16.018 24.0419)
(2.28878e-17 -12.1851 23.3187)
(-2.58759e-17 -12.5942 20.7057)
(0 -11.1811 19.5555)
(2.99136e-17 -10.4447 18.1032)
(-3.25784e-17 -9.65222 16.6499)
(0 -8.73455 15.1202)
(3.98949e-17 -7.78012 13.4753)
(-4.45922e-17 -6.94775 12.0394)
(0 -6.22031 10.7929)
(5.49259e-17 -5.52374 9.57932)
(-6.0023e-17 -4.53246 7.8566)
(0 -3.91008 6.71451)
(6.75332e-17 -3.34438 5.91782)
(0 -10.189 21.5135)
(0 -15.8493 24.106)
(0 -12.2346 23.3365)
(0 -12.6484 20.6758)
(0 -11.1242 19.5831)
(0 -10.4804 18.0777)
(0 -9.65739 16.6391)
(0 -8.73532 15.1093)
(0 -7.78518 13.4575)
(0 -6.95041 12.0165)
(0 -6.21777 10.7641)
(0 -5.50134 9.53055)
(0 -4.45929 7.73742)
(0 -3.85094 6.62672)
(0 -3.34527 5.84476)
(0 -10.2878 21.1867)
(0 -15.6801 24.1415)
(0 -12.3001 23.3586)
(0 -12.6862 20.6735)
(0 -11.0831 19.6214)
(0 -10.5201 18.0709)
(0 -9.65718 16.6541)
(0 -8.7403 15.1219)
(0 -7.79411 13.4664)
(0 -6.95232 12.0189)
(0 -6.22091 10.768)
(0 -5.50528 9.53399)
(0 -4.44139 7.69999)
(0 -3.82407 6.59139)
(0 -3.33429 5.8271)
(-2.50231e-18 -10.406 20.9405)
(1.91227e-19 -15.4818 24.1305)
(3.28804e-17 -12.3949 23.3903)
(-4.04496e-17 -12.7165 20.6956)
(1.0575e-18 -11.0615 19.6692)
(4.78606e-17 -10.5698 18.0809)
(-5.44584e-17 -9.66603 16.6894)
(-1.17095e-18 -8.76494 15.1522)
(7.17455e-17 -7.82363 13.4981)
(-8.33372e-17 -6.99407 12.0667)
(-1.93661e-18 -6.25886 10.7977)
(1.13587e-16 -5.52027 9.52232)
(-1.41168e-16 -4.40791 7.62964)
(1.45378e-16 -3.81458 6.58042)
(1.4113e-18 -3.33884 5.88467)
(0 -10.5112 20.7101)
(0 -15.2849 24.0849)
(0 -12.5058 23.4115)
(0 -12.7396 20.7239)
(0 -11.0611 19.7019)
(0 -10.6261 18.0832)
(0 -9.68664 16.7144)
(0 -8.80847 15.1687)
(0 -7.87085 13.515)
(0 -6.99806 12.0177)
(0 -6.32503 10.818)
(6.3641e-17 -5.71619 9.71977)
(-6.6523e-17 -4.70008 7.91887)
(8.05482e-17 -3.98163 6.74882)
(3.72861e-18 -3.24627 5.61529)
(0 -10.5616 20.4688)
(1.72877e-17 -15.1064 24.0134)
(-1.82884e-17 -12.6013 23.4121)
(0 -12.7372 20.7423)
(0 -11.0634 19.7057)
(0 -10.6614 18.0674)
(2.14601e-17 -9.69566 16.7164)
(-4.56697e-17 -8.83757 15.1663)
(2.46734e-17 -7.91012 13.5146)
(0 -7.20678 12.2516)
(-2.11298e-17 -6.31655 10.6216)
(9.52474e-18 -5.3072 8.68135)
(0 -4.7148 7.71128)
(-5.1311e-18 -4.48321 7.36502)
(1.12774e-17 -4.27184 7.04993)
(-1.67136e-19 -10.5854 20.2825)
(3.42031e-18 -14.9281 23.9169)
(0 -12.6427 23.4054)
(9.02597e-19 -12.6966 20.7516)
(-9.52202e-19 -11.0136 19.7036)
(0 -10.6326 18.0512)
(1.10403e-17 -9.62413 16.717)
(-1.21856e-17 -8.76609 15.1597)
(0 -7.77139 13.5096)
(1.92853e-17 -6.47049 11.1051)
(-8.41783e-18 -5.65363 9.56161)
(0 -5.13978 8.62834)
(1.59612e-18 -4.92252 8.31336)
(-1.4253e-18 -4.84983 8.23455)
(0 -4.78831 8.16557)
(-6.19279e-18 -10.7296 20.2883)
(-6.08857e-18 -14.697 23.7788)
(6.36824e-18 -12.6835 23.4126)
(0 -12.6588 20.7793)
(-9.34283e-18 -10.9731 19.7503)
(1.01718e-17 -10.6361 18.0587)
(0 -9.5704 16.765)
(-1.25097e-17 -8.76557 15.1754)
(1.39948e-17 -7.72055 13.4905)
(0 -6.17124 10.7988)
(-2.47704e-17 -5.41173 9.27355)
(2.6325e-17 -5.03266 8.71839)
(0 -4.91354 8.52667)
(-2.73511e-17 -4.75424 8.28103)
(3.04575e-17 -4.3391 7.59921)
)
;

boundaryField
{
    inletFace
    {
        type            empty;
    }
    inlet
    {
        type            fixedValue;
        value           uniform (0 8.7 15);
    }
    inletWalls
    {
        type            noSlip;
    }
    outletInlet
    {
        type            zeroGradient;
    }
}


// ************************************************************************* //
