/*--------------------------------*- C++ -*----------------------------------*\
| =========                 |                                                 |
| \\      /  F ield         | OpenFOAM: The Open Source CFD Toolbox           |
|  \\    /   O peration     | Version:  4.1                                   |
|   \\  /    A nd           | Web:      www.OpenFOAM.org                      |
|    \\/     M anipulation  |                                                 |
\*---------------------------------------------------------------------------*/
FoamFile
{
    version     2.0;
    format      ascii;
    class       volScalarField;
    location    "3";
    object      p;
}
// * * * * * * * * * * * * * * * * * * * * * * * * * * * * * * * * * * * * * //

dimensions      [0 2 -2 0 0 0 0];

internalField   nonuniform List<scalar> 
26785
(
1.98557
1.45242
0.856584
0.186128
-0.383057
-0.962735
-1.44044
-1.88212
-2.03844
-1.77065
-1.25782
-0.440646
0.544954
1.46233
2.05548
2.45416
2.70295
2.91938
3.13799
3.40842
3.59542
3.68142
3.64494
3.57166
3.57133
3.63625
3.6178
3.58541
3.63459
3.67031
3.63151
3.72081
4.00882
4.33827
4.50321
4.56659
4.71972
4.98143
5.28738
5.53341
5.64681
5.74104
5.86365
6.02854
6.23044
6.37289
6.4168
6.45014
6.5263
6.67049
6.8712
6.94337
6.86071
6.7408
6.70232
6.7307
6.80648
6.86847
6.9143
6.95366
7.00152
7.03748
7.05594
7.0462
7.01611
6.96569
6.90299
6.82749
6.74166
6.64157
6.52449
6.38603
6.22512
6.04432
5.84683
5.63626
5.41344
5.18042
4.93622
4.68261
4.4192
4.14934
3.87429
3.59811
3.32194
3.04924
2.78021
2.51712
2.25997
2.01112
1.77105
1.54256
1.32692
1.12515
0.936533
0.759163
0.59963
0.440238
0.337108
0.0648234
1.97399
1.45173
0.856999
0.180237
-0.390734
-0.968908
-1.44444
-1.88259
-2.03663
-1.76963
-1.25824
-0.43747
0.543344
1.45649
2.05173
2.45279
2.70508
2.92475
3.14553
3.41536
3.59571
3.6784
3.64249
3.57796
3.57838
3.63625
3.61223
3.57652
3.62403
3.66259
3.63075
3.72661
4.00961
4.33471
4.50205
4.56764
4.72695
4.9874
5.29044
5.53536
5.64257
5.74133
5.86909
6.03281
6.23019
6.37137
6.41726
6.4551
6.52884
6.66741
6.8667
6.93841
6.85654
6.74032
6.70473
6.73263
6.80729
6.86876
6.91641
6.95644
7.00401
7.03944
7.05815
7.04883
7.01918
6.9689
6.90613
6.83037
6.74419
6.64362
6.52603
6.38727
6.22623
6.04526
5.84743
5.63651
5.4133
5.17991
4.93539
4.68146
4.41764
4.14745
3.87209
3.59562
3.31913
3.04612
2.77665
2.51311
2.25552
2.00624
1.76575
1.53688
1.32075
1.11849
0.92938
0.751816
0.592041
0.433487
0.333923
0.058301
1.95339
1.45057
0.857836
0.171709
-0.402294
-0.981176
-1.45565
-1.88793
-2.03514
-1.76906
-1.25611
-0.428125
0.540238
1.44389
2.04296
2.44627
2.70731
2.93621
3.16118
3.42857
3.59583
3.67252
3.64282
3.58764
3.58654
3.63328
3.60359
3.56482
3.60625
3.64067
3.63192
3.74808
4.02274
4.3308
4.49106
4.56932
4.74203
5.00338
5.2978
5.53004
5.63472
5.74191
5.87833
6.04367
6.23488
6.36941
6.41963
6.45847
6.53774
6.67906
6.86403
6.9163
6.83854
6.73345
6.70416
6.73329
6.80711
6.86893
6.91996
6.96145
7.00865
7.04315
7.06186
7.05289
7.02367
6.97347
6.91054
6.83432
6.74744
6.64573
6.5268
6.38692
6.22504
6.04335
5.84482
5.63317
5.40892
5.1745
4.929
4.67407
4.40919
4.1382
3.86195
3.58445
3.30685
3.03268
2.76193
2.49715
2.23838
1.98808
1.74666
1.51691
1.29977
1.09646
0.906377
0.72842
0.569076
0.412954
0.319741
0.0481334
1.92798
1.45158
0.857886
0.159278
-0.420427
-1.00151
-1.47524
-1.89766
-2.0335
-1.76592
-1.24691
-0.414347
0.533408
1.42403
2.02792
2.43708
2.715
2.95967
3.18969
3.44946
3.59933
3.66763
3.64324
3.59069
3.58615
3.62418
3.59
3.54942
3.58159
3.61723
3.64147
3.7787
4.04252
4.32412
4.47424
4.57262
4.75991
5.02319
5.30176
5.5145
5.62306
5.74124
5.88988
6.06091
6.24325
6.37024
6.42553
6.46582
6.5568
6.69087
6.85039
6.88673
6.81447
6.72082
6.699
6.73041
6.80383
6.86823
6.92415
6.96879
7.01687
7.05185
7.0711
7.06311
7.03425
6.98422
6.92077
6.84392
6.75567
6.65236
6.53126
6.38939
6.22582
6.04316
5.84404
5.63212
5.40712
5.17156
4.92463
4.66836
4.4024
4.13078
3.85382
3.57497
3.29509
3.01851
2.74535
2.47834
2.21741
1.96514
1.72184
1.49029
1.2712
1.06603
0.874342
0.695652
0.536776
0.383246
0.296181
0.0441263
1.89995
1.45664
0.857443
0.141555
-0.445576
-1.02855
-1.50054
-1.91006
-2.03266
-1.7616
-1.2364
-0.401847
0.522469
1.3996
2.00937
2.42927
2.73005
2.99252
3.22572
3.47421
3.60417
3.66303
3.64131
3.58733
3.57956
3.60935
3.57208
3.53101
3.55581
3.60064
3.65815
3.81359
4.0612
4.31147
4.45683
4.57606
4.77719
5.04031
5.30039
5.49693
5.61109
5.74057
5.9024
6.07881
6.25127
6.37353
6.43344
6.47833
6.57231
6.6951
6.83459
6.86179
6.79671
6.71399
6.69814
6.73078
6.80243
6.8684
6.92724
6.97341
7.0196
7.05238
7.06904
7.0599
7.02988
6.97914
6.9139
6.83537
6.74511
6.64047
6.51848
6.37697
6.21415
6.03251
5.83433
5.62354
5.39983
5.16583
4.9204
4.6654
4.40005
4.12878
3.85205
3.57358
3.29394
3.01723
2.7433
2.47461
2.2114
1.95681
1.71111
1.47699
1.25502
1.04686
0.852348
0.671591
0.51158
0.35889
0.273638
0.0510443
1.87164
1.46704
0.857848
0.119802
-0.475409
-1.05942
-1.5284
-1.92387
-2.03299
-1.75705
-1.2275
-0.392133
0.50842
1.37366
1.99055
2.42456
2.75105
3.03089
3.2654
3.49928
3.60658
3.65544
3.63558
3.5815
3.56998
3.59279
3.55673
3.51783
3.53717
3.59186
3.68057
3.84924
4.07734
4.29807
4.44156
4.58123
4.79332
5.05145
5.29397
5.4803
5.604
5.74384
5.91364
6.09109
6.25349
6.37151
6.43733
6.48856
6.58259
6.6951
6.8159
6.83731
6.78115
6.71124
6.69981
6.732
6.79882
6.86345
6.922
6.96814
7.01166
7.04206
7.05639
7.0469
7.01704
6.96735
6.90265
6.82448
6.7334
6.62747
6.50378
6.36116
6.19794
6.01691
5.81947
5.60953
5.38646
5.15304
4.90806
4.65394
4.3899
4.12023
3.84512
3.56826
3.28993
3.01409
2.7406
2.47221
2.20921
1.9546
1.70853
1.47366
1.25033
1.04041
0.843939
0.661455
0.499875
0.347082
0.258134
0.0661091
1.839
1.4775
0.856863
0.0955742
-0.50772
-1.09139
-1.55669
-1.93817
-2.03405
-1.75298
-1.22097
-0.386607
0.491436
1.34796
1.97174
2.42106
2.77407
3.06878
3.30375
3.52123
3.60589
3.64661
3.62765
3.57554
3.56068
3.5772
3.54768
3.51471
3.53058
3.5937
3.70654
3.87648
4.08226
4.28073
4.42759
4.58277
4.79796
5.04743
5.27848
5.46206
5.59718
5.74603
5.91847
6.09312
6.24828
6.36367
6.43503
6.49045
6.58335
6.68766
6.79321
6.81363
6.7715
6.71746
6.71261
6.74556
6.8086
6.87023
6.92577
6.96859
7.00677
7.03199
7.042
7.03038
6.99926
6.94924
6.88389
6.80469
6.71172
6.60385
6.47839
6.33478
6.17136
5.99084
5.79382
5.58426
5.36155
5.12882
4.88477
4.63212
4.36985
4.10196
3.82845
3.55325
3.27667
3.00256
2.7307
2.46395
2.2023
1.94871
1.70329
1.46889
1.24572
1.03578
0.839225
0.656678
0.49467
0.342282
0.246077
0.081874
1.80929
1.49237
0.858062
0.0731983
-0.538382
-1.12076
-1.58156
-1.95056
-2.03398
-1.75004
-1.21734
-0.386801
0.471822
1.32447
1.95474
2.4196
2.79736
3.10216
3.33518
3.53604
3.60114
3.63675
3.61938
3.57111
3.55496
3.56605
3.54486
3.51614
3.52621
3.59341
3.72258
3.89015
4.07746
4.26313
4.41808
4.58707
4.80038
5.03999
5.26419
5.44901
5.59445
5.74875
5.92047
6.09078
6.24076
6.35591
6.43283
6.49089
6.58159
6.67689
6.76961
6.79215
6.76585
6.72751
6.72864
6.7607
6.81778
6.87322
6.92311
6.96104
6.99358
7.01395
7.02012
7.00642
6.97402
6.92351
6.85754
6.77758
6.68336
6.57424
6.44742
6.3029
6.139
5.95875
5.76232
5.55364
5.33185
5.10011
4.85699
4.60551
4.34474
4.07872
3.80734
3.53444
3.26001
2.98778
2.71755
2.45244
2.19247
1.94062
1.69678
1.46362
1.2412
1.03171
0.835529
0.653515
0.491485
0.339671
0.234355
0.0933724
1.78717
1.51161
0.862108
0.0543194
-0.56509
-1.14525
-1.60083
-1.95962
-2.032
-1.74902
-1.21601
-0.392003
0.45106
1.30454
1.94036
2.41937
2.81741
3.12672
3.35508
3.53977
3.59161
3.6245
3.61054
3.56717
3.54964
3.55643
3.54193
3.51645
3.52256
3.59378
3.7318
3.89556
4.06967
4.24867
4.413
4.59154
4.80145
5.03194
5.25135
5.43846
5.59277
5.75114
5.92124
6.08702
6.23226
6.34669
6.42654
6.48538
6.57255
6.65978
6.74394
6.77109
6.76002
6.73547
6.74176
6.77246
6.82373
6.87295
6.91717
6.95007
6.97691
6.99211
6.99409
6.97798
6.94436
6.89334
6.82661
6.74554
6.64965
6.53888
6.41068
6.26559
6.10165
5.92191
5.7261
5.51815
5.29717
5.06653
4.82479
4.57495
4.31598
4.05188
3.7825
3.51179
3.23971
2.9699
2.70193
2.4389
2.18079
1.93067
1.68851
1.45696
1.23596
1.02757
0.832164
0.650723
0.488349
0.336725
0.221772
0.0990537
1.7762
1.53117
0.866009
0.0377895
-0.587039
-1.1635
-1.61357
-1.96461
-2.02836
-1.74955
-1.21663
-0.400085
0.431146
1.28866
1.929
2.42083
2.83378
3.14357
3.36618
3.53497
3.57981
3.61076
3.60033
3.56295
3.54285
3.54574
3.53682
3.51407
3.51831
3.59736
3.74095
3.89846
4.0614
4.23634
4.41074
4.59557
4.80236
5.02586
5.24237
5.43223
5.59293
5.75344
5.92092
6.08174
6.22178
6.33473
6.41635
6.47592
6.5592
6.63941
6.71774
6.7502
6.75256
6.74031
6.75128
6.78042
6.82592
6.86895
6.9077
6.9359
6.95762
6.96794
6.96564
6.94656
6.91091
6.85863
6.79085
6.70874
6.61135
6.49903
6.36942
6.22351
6.05935
5.88015
5.68522
5.47829
5.25831
5.02884
4.78846
4.54033
4.28346
4.02172
3.7547
3.48636
3.21663
2.94919
2.68358
2.42311
2.16744
1.91952
1.67926
1.44937
1.22978
1.02263
0.828393
0.647842
0.485078
0.333226
0.209147
0.0996984
1.77973
1.54579
0.866905
0.0234484
-0.60412
-1.17565
-1.6214
-1.96724
-2.02507
-1.75156
-1.21886
-0.409361
0.413888
1.2767
1.91948
2.42292
2.84545
3.15265
3.37082
3.52438
3.56662
3.59614
3.587
3.55478
3.53475
3.5362
3.53188
3.51117
3.51463
3.60495
3.75153
3.90139
4.05411
4.2263
4.40878
4.59842
4.80282
5.02125
5.23549
5.42746
5.59235
5.75342
5.91825
6.07554
6.21177
6.32288
6.40482
6.46446
6.54391
6.61834
6.69262
6.72966
6.74296
6.74106
6.75609
6.78367
6.82401
6.86144
6.89506
6.91874
6.93563
6.94138
6.93512
6.91312
6.8752
6.82128
6.75196
6.66838
6.56929
6.45552
6.32473
6.17811
6.01375
5.83494
5.64076
5.43483
5.21611
4.98812
4.74934
4.50304
4.24827
3.98889
3.72438
3.45879
3.19178
2.92695
2.66385
2.4059
2.15268
1.90719
1.66927
1.44141
1.22342
1.01755
0.824345
0.644588
0.481463
0.329552
0.198303
0.0969779
1.81348
1.56374
0.867452
0.0116018
-0.617969
-1.18416
-1.62732
-1.96991
-2.02372
-1.75556
-1.2229
-0.420047
0.399154
1.2675
1.91147
2.42672
2.85358
3.15668
3.37188
3.51244
3.55456
3.58252
3.57197
3.54331
3.52753
3.52928
3.52778
3.50882
3.51204
3.61455
3.76126
3.90431
4.0488
4.21907
4.40608
4.60004
4.80313
5.01811
5.2299
5.42268
5.59078
5.75255
5.91498
6.06913
6.20209
6.31116
6.39246
6.45131
6.52722
6.59694
6.66822
6.70877
6.7306
6.73695
6.75516
6.78118
6.81714
6.84977
6.87876
6.89812
6.91044
6.91184
6.90175
6.87678
6.83655
6.78097
6.71012
6.62497
6.52416
6.40883
6.27676
6.12941
5.96495
5.78659
5.59318
5.38829
5.1708
4.94429
4.70724
4.46303
4.21059
3.95368
3.69175
3.42887
3.16464
2.9027
2.64257
2.38747
2.13692
1.89391
1.6583
1.43253
1.21645
1.01228
0.820332
0.641411
0.477938
0.325982
0.189705
0.0923607
1.85946
1.57493
0.862679
-0.00101499
-0.631065
-1.19188
-1.63377
-1.97441
-2.02507
-1.76225
-1.22883
-0.433438
0.385417
1.25978
1.90541
2.43281
2.85874
3.15734
3.36948
3.4996
3.54361
3.57096
3.55665
3.53063
3.52197
3.52517
3.52329
3.50538
3.51169
3.62503
3.76905
3.9051
4.04438
4.21386
4.4022
4.59966
4.80292
5.01601
5.22534
5.41755
5.58764
5.75071
5.91167
6.06279
6.1925
6.299
6.379
6.43691
6.5101
6.57627
6.64548
6.68848
6.71664
6.72906
6.74927
6.77356
6.8057
6.83395
6.85856
6.87379
6.88199
6.87948
6.86579
6.83788
6.79528
6.7379
6.66544
6.57877
6.47643
6.35969
6.22645
6.07845
5.91389
5.73593
5.54331
5.33953
5.12339
4.89846
4.66326
4.42121
4.17116
3.91684
3.65768
3.39762
3.13629
2.87728
2.6201
2.36792
2.12029
1.88007
1.64695
1.42337
1.20918
1.00664
0.815957
0.638081
0.474683
0.323037
0.183877
0.087457
1.9046
1.57838
0.853589
-0.0145249
-0.64446
-1.20091
-1.64287
-1.98208
-2.03037
-1.77285
-1.23875
-0.451336
0.371261
1.25231
1.9019
2.44167
2.86261
3.15759
3.36496
3.48669
3.53372
3.56335
3.54307
3.51917
3.51834
3.52421
3.51912
3.50139
3.51464
3.63546
3.77561
3.90416
4.04081
4.21045
4.39915
4.59919
4.80377
5.01566
5.22238
5.41311
5.58408
5.74841
5.90852
6.0566
6.18262
6.28591
6.36413
6.42114
6.49252
6.55623
6.62401
6.66863
6.70128
6.71785
6.73906
6.76151
6.79006
6.8141
6.83452
6.84588
6.85033
6.84424
6.82721
6.79644
6.75147
6.6922
6.61809
6.52988
6.42606
6.308
6.17372
6.02514
5.86054
5.68299
5.49116
5.28854
5.07385
4.85064
4.61745
4.37767
4.13015
3.87857
3.6223
3.36519
3.10686
2.85088
2.5968
2.34769
2.10309
1.86571
1.63516
1.41385
1.20168
1.00088
0.811594
0.63486
0.471781
0.320676
0.180381
0.0831228
1.94182
1.575
0.840622
-0.0297804
-0.659681
-1.21322
-1.65627
-1.99393
-2.04041
-1.78864
-1.25548
-0.475467
0.355368
1.24355
1.89978
2.45204
2.86566
3.15781
3.35903
3.47432
3.5232
3.55822
3.53161
3.5089
3.51447
3.52491
3.51501
3.49649
3.52004
3.64435
3.78075
3.90249
4.03761
4.20781
4.39743
4.59946
4.80567
5.0162
5.21999
5.409
5.5806
5.74579
5.90514
6.05023
6.17236
6.27201
6.34805
6.40448
6.47494
6.53717
6.60395
6.64955
6.6851
6.70407
6.72555
6.74606
6.77123
6.79138
6.80795
6.81572
6.81671
6.8073
6.78711
6.75354
6.70622
6.64502
6.56922
6.47949
6.37426
6.25494
6.11968
5.97058
5.80596
5.62887
5.4379
5.23648
5.02333
4.80196
4.5709
4.3335
4.08862
3.83988
3.58658
3.33247
3.07717
2.82427
2.57334
2.32736
2.08581
1.85129
1.62332
1.40432
1.19416
0.995091
0.807224
0.631684
0.46916
0.318775
0.178508
0.079696
1.97173
1.56746
0.824079
-0.0480842
-0.678074
-1.2296
-1.67407
-2.00987
-2.05592
-1.81093
-1.28115
-0.506518
0.337008
1.23295
1.89941
2.46381
2.86974
3.15936
3.35377
3.46454
3.51316
3.55383
3.5232
3.50055
3.51018
3.5261
3.51177
3.49189
3.52793
3.65246
3.78481
3.90202
4.03613
4.20651
4.39773
4.60186
4.8097
5.01836
5.21867
5.40576
5.5783
5.74421
5.90208
6.04348
6.16125
6.25703
6.33112
6.38737
6.45739
6.51867
6.58452
6.63049
6.66759
6.68782
6.70909
6.72759
6.74962
6.76617
6.77913
6.78345
6.78116
6.76857
6.74535
6.70904
6.65933
6.5961
6.51856
6.4273
6.32074
6.20023
6.06408
5.91451
5.74996
5.57343
5.3834
5.18324
4.97167
4.75218
4.52332
4.28839
4.04623
3.80039
3.55012
3.29905
3.04686
2.7971
2.54934
2.30652
2.06804
1.83641
1.61109
1.39442
1.1863
0.988988
0.802585
0.628293
0.466548
0.316992
0.177315
0.0768769
2.00032
1.56081
0.805223
-0.0692303
-0.698938
-1.2493
-1.69529
-2.0295
-2.07707
-1.84005
-1.31572
-0.544139
0.314591
1.22086
1.90169
2.47487
2.87468
3.16177
3.34929
3.45659
3.50401
3.54807
3.51588
3.49358
3.50546
3.52464
3.50822
3.489
3.53696
3.66032
3.78728
3.90149
4.03521
4.20599
4.39943
4.60573
4.81467
5.02093
5.21763
5.40289
5.57657
5.74319
5.8989
6.03605
6.1491
6.24095
6.31364
6.37019
6.44003
6.50057
6.56552
6.61135
6.6492
6.67
6.69064
6.70706
6.72609
6.73918
6.74869
6.74969
6.74423
6.72861
6.7025
6.66353
6.61143
6.54614
6.46683
6.37406
6.26625
6.14469
6.00773
5.85774
5.69328
5.51735
5.32834
5.12947
4.91949
4.70186
4.47521
4.24278
4.00339
3.76048
3.51324
3.26525
3.0162
2.7696
2.52503
2.28535
2.04994
1.82121
1.59858
1.38429
1.17826
0.982734
0.797837
0.624831
0.46401
0.315342
0.176473
0.0745099
2.02447
1.55387
0.783233
-0.0935542
-0.72224
-1.27145
-1.71931
-2.05244
-2.10379
-1.87573
-1.35941
-0.588018
0.288198
1.20829
1.90744
2.48533
2.88189
3.16594
3.34641
3.45096
3.4976
3.5424
3.50797
3.48777
3.50262
3.52022
3.50297
3.48949
3.54759
3.66907
3.78966
3.90144
4.03533
4.20708
4.40358
4.61203
4.82116
5.02434
5.21754
5.40154
5.57628
5.74306
5.8956
6.02766
6.13561
6.22393
6.29606
6.35311
6.42278
6.48259
6.54649
6.59173
6.62967
6.65044
6.67006
6.68429
6.70038
6.71015
6.71633
6.71412
6.7056
6.68707
6.65821
6.61667
6.56221
6.49483
6.41371
6.31943
6.21044
6.08794
5.95026
5.7999
5.63554
5.46019
5.27224
5.07474
4.86637
4.65062
4.42615
4.19621
3.95962
3.71971
3.4756
3.23076
2.98487
2.74145
2.50012
2.26365
2.03137
1.80559
1.5857
1.37386
1.17
0.976376
0.793098
0.621453
0.461653
0.313869
0.175844
0.0725097
2.0423
1.54671
0.759088
-0.119676
-0.746753
-1.29545
-1.74517
-2.07844
-2.13521
-1.91661
-1.4112
-0.638193
0.25785
1.19546
1.9145
2.49592
2.89169
3.17036
3.34435
3.44711
3.49298
3.53689
3.4979
3.48104
3.50069
3.51376
3.49518
3.4921
3.55857
3.67782
3.79173
3.9008
4.03522
4.20913
4.4096
4.61972
4.82777
5.02744
5.21765
5.4014
5.57714
5.7431
5.89152
6.018
6.12082
6.20646
6.27882
6.3364
6.4059
6.46485
6.52745
6.5717
6.60921
6.62946
6.6478
6.65981
6.67304
6.67968
6.68268
6.67739
6.66595
6.64463
6.61315
6.56918
6.51242
6.44295
6.36003
6.26424
6.15408
6.03076
5.89249
5.74183
5.57759
5.40282
5.21591
5.01982
4.81311
4.59925
4.37694
4.14946
3.91562
3.67873
3.43779
3.19616
2.95348
2.71325
2.47511
2.24184
2.0127
1.78991
1.57279
1.36347
1.16183
0.970129
0.788511
0.618278
0.459571
0.312661
0.175406
0.0708063
2.0528
1.53743
0.732587
-0.147131
-0.772073
-1.32112
-1.77199
-2.10693
-2.17028
-1.96146
-1.46967
-0.694522
0.224112
1.18341
1.92242
2.50877
2.90518
3.1743
3.34368
3.44615
3.49133
3.53207
3.48679
3.47422
3.4988
3.50679
3.48666
3.49663
3.56989
3.68662
3.79424
3.9005
4.036
4.21338
4.4183
4.62946
4.83508
5.03093
5.21894
5.40356
5.58007
5.74363
5.88668
6.00698
6.10477
6.18906
6.26223
6.32022
6.38917
6.44687
6.5078
6.55066
6.58729
6.60673
6.62363
6.63341
6.64389
6.64754
6.64751
6.63929
6.62503
6.60103
6.56698
6.52066
6.46166
6.39011
6.30537
6.20809
6.09675
5.97268
5.83392
5.68305
5.51897
5.34481
5.15891
4.96425
4.75926
4.54732
4.32719
4.10216
3.87104
3.63713
3.39941
3.16109
2.92169
2.68469
2.44978
2.21968
1.99367
1.7739
1.55964
1.35293
1.1536
0.963899
0.78398
0.615191
0.457629
0.3116
0.175077
0.0693443
2.05548
1.52441
0.703625
-0.175472
-0.79726
-1.34804
-1.79944
-2.13742
-2.2074
-2.00923
-1.53248
-0.755022
0.186537
1.17182
1.93091
2.52404
2.92032
3.17741
3.34429
3.44518
3.49066
3.52684
3.47459
3.46724
3.49502
3.49858
3.47792
3.50192
3.58011
3.694
3.79614
3.89957
4.03697
4.21949
4.42873
4.63979
4.84175
5.03387
5.22102
5.4074
5.58391
5.74352
5.88034
5.99435
6.08809
6.17243
6.24643
6.30448
6.37244
6.42848
6.48749
6.52873
6.56427
6.58272
6.59812
6.60574
6.6136
6.61444
6.61153
6.60051
6.58353
6.55693
6.52039
6.47178
6.4106
6.33703
6.2505
6.15175
6.03928
5.91449
5.77536
5.62438
5.46052
5.28698
5.10211
4.90885
4.7056
4.49561
4.27765
4.05504
3.82662
3.59563
3.36109
3.1261
2.89002
2.65628
2.42456
2.1976
1.97467
1.75789
1.54651
1.34247
1.14551
0.957849
0.779646
0.612285
0.455849
0.310691
0.174838
0.0680762
2.05565
1.50769
0.67274
-0.204318
-0.821836
-1.3756
-1.82713
-2.16885
-2.24538
-2.05884
-1.59816
-0.817938
0.146757
1.16043
1.94173
2.54267
2.93647
3.18299
3.34796
3.44378
3.49028
3.52204
3.46227
3.46024
3.48967
3.48959
3.47018
3.50841
3.59002
3.70044
3.79795
3.89923
4.03967
4.22873
4.44164
4.65127
4.84849
5.03728
5.22515
5.41364
5.58868
5.74271
5.87245
5.98016
6.07159
6.15688
6.2314
6.28892
6.35527
6.40926
6.46609
6.50556
6.53984
6.55719
6.57106
6.57658
6.58191
6.58006
6.57439
6.56067
6.54106
6.51193
6.47291
6.42203
6.35874
6.2832
6.1949
6.09473
5.98117
5.85568
5.71626
5.56527
5.40169
5.22881
5.04498
4.85313
4.65162
4.44362
4.22784
4.00765
3.78191
3.55383
3.32243
3.09076
2.85806
2.62761
2.3991
2.17528
1.95543
1.74163
1.53315
1.33183
1.13733
0.95178
0.775345
0.609432
0.454112
0.309812
0.174598
0.0669284
2.05338
1.48726
0.640797
-0.232549
-0.845642
-1.40354
-1.85456
-2.20064
-2.28359
-2.10879
-1.66539
-0.882384
0.106265
1.1484
1.9543
2.56256
2.95163
3.19082
3.35325
3.4408
3.48887
3.51613
3.44935
3.4516
3.48168
3.47917
3.46322
3.51495
3.59912
3.70573
3.79882
3.89882
4.04356
4.24054
4.45595
4.66239
4.85412
5.04055
5.2311
5.42135
5.59293
5.74007
5.86245
5.96497
6.05611
6.14236
6.21681
6.27322
6.33754
6.38924
6.44383
6.48149
6.51447
6.53065
6.54304
6.54655
6.54948
6.54507
6.53677
6.52046
6.49829
6.46668
6.42524
6.37212
6.30677
6.22933
6.13934
6.03779
5.92322
5.79709
5.65746
5.50654
5.34331
5.1711
4.98833
4.79788
4.59809
4.39209
4.1785
3.96069
3.73759
3.51238
3.28405
3.05564
2.82632
2.59915
2.37383
2.15311
1.9363
1.72545
1.51982
1.32123
1.12923
0.945834
0.771181
0.606714
0.452492
0.308996
0.174365
0.0658818
2.0465
1.46559
0.608737
-0.258728
-0.86894
-1.43077
-1.88061
-2.23174
-2.32175
-2.15755
-1.73255
-0.947123
0.0660887
1.13714
1.96951
2.58283
2.96653
3.2015
3.3606
3.43727
3.48819
3.50891
3.43562
3.44202
3.47205
3.46816
3.45838
3.52295
3.60927
3.71125
3.79984
3.89995
4.05032
4.2559
4.47223
4.67364
4.85959
5.04514
5.24024
5.43065
5.59638
5.73551
5.85046
5.94982
6.04192
6.12865
6.20236
6.25705
6.31892
6.36813
6.42042
6.45626
6.48787
6.50283
6.51375
6.51534
6.51597
6.50911
6.49826
6.47942
6.45474
6.4207
6.37687
6.3215
6.25412
6.17483
6.08322
5.98037
5.86484
5.73813
5.59834
5.44758
5.28476
5.11326
4.93157
4.74252
4.54443
4.34045
4.12907
3.91365
3.69316
3.47079
3.2455
3.02029
2.79434
2.57049
2.34837
2.13075
1.91697
1.70906
1.50626
1.31042
1.12098
0.939791
0.766965
0.603968
0.450858
0.308147
0.174067
0.0648916
2.03199
1.4441
0.575645
-0.281998
-0.89172
-1.4567
-1.90557
-2.26197
-2.35939
-2.20474
-1.79801
-1.01081
0.0249242
1.1276
1.9863
2.60199
2.98122
3.21365
3.36797
3.43221
3.48699
3.4987
3.41879
3.4314
3.46136
3.45702
3.45665
3.53308
3.62059
3.71641
3.8005
3.90205
4.05969
4.27376
4.48888
4.68352
4.86433
5.05134
5.25181
5.43965
5.59762
5.72824
5.83688
5.93569
6.02889
6.11534
6.18755
6.24015
6.29942
6.34613
6.39618
6.43027
6.46052
6.47427
6.48378
6.48357
6.48202
6.47282
6.45952
6.43824
6.41112
6.37468
6.3285
6.27091
6.20153
6.12046
6.0273
5.92323
5.80683
5.67962
5.53971
5.38919
5.22684
5.05608
4.87547
4.68781
4.49143
4.28944
4.08028
3.86723
3.64931
3.42971
3.2074
2.98532
2.76265
2.54209
2.32315
2.10859
1.89779
1.69278
1.49278
1.29963
1.11275
0.933793
0.76281
0.601282
0.449274
0.307337
0.173759
0.0639573
2.01055
1.42256
0.541757
-0.301915
-0.913678
-1.47966
-1.9288
-2.29042
-2.39501
-2.24967
-1.86032
-1.07157
-0.0179212
1.12051
2.00481
2.62172
2.99686
3.22669
3.3758
3.42762
3.48613
3.48617
3.39917
3.42249
3.4532
3.44885
3.46154
3.54764
3.63418
3.72189
3.80201
3.90715
4.07436
4.29547
4.50633
4.69303
4.87051
5.06225
5.26628
5.44784
5.59649
5.7185
5.82324
5.9231
6.01659
6.10185
6.172
6.22227
6.27884
6.32303
6.37088
6.40327
6.43212
6.44467
6.45274
6.45082
6.44721
6.43577
6.4201
6.39641
6.36688
6.32808
6.27958
6.21979
6.14843
6.06562
5.97094
5.86573
5.74853
5.62088
5.48089
5.33067
5.16884
4.99886
4.81934
4.63309
4.43845
4.23844
4.03152
3.82085
3.60547
3.38862
3.16924
2.95026
2.73079
2.51351
2.29775
2.08625
1.87841
1.67629
1.47909
1.28862
1.10428
0.927606
0.758515
0.59849
0.447608
0.306465
0.173392
0.0630456
1.98525
1.39879
0.5086
-0.320156
-0.935457
-1.49965
-1.9506
-2.31738
-2.428
-2.29228
-1.91851
-1.12914
-0.0609727
1.11432
2.02272
2.64243
3.01297
3.23763
3.38139
3.4221
3.48335
3.46971
3.37922
3.41908
3.4495
3.44417
3.47181
3.56421
3.64782
3.72678
3.80394
3.91552
4.09425
4.31955
4.52317
4.70183
4.87881
5.07782
5.28106
5.45337
5.59205
5.70669
5.81064
5.91161
6.00437
6.08764
6.15538
6.20338
6.25737
6.29915
6.34492
6.37568
6.40319
6.41452
6.42123
6.41769
6.41215
6.3986
6.38065
6.35464
6.32274
6.28161
6.23083
6.16889
6.0956
6.0111
5.91497
5.80867
5.69075
5.56272
5.42269
5.27281
5.11156
4.94239
4.76395
4.57913
4.38621
4.18817
3.98348
3.77519
3.56233
3.34815
3.13163
2.91568
2.69931
2.48523
2.27263
2.06414
1.85922
1.65993
1.46548
1.27764
1.09577
0.921386
0.754209
0.5957
0.445948
0.305605
0.173039
0.062179
1.9571
1.37312
0.47938
-0.339193
-0.956727
-1.51582
-1.97009
-2.34232
-2.45709
-2.33179
-1.97056
-1.18363
-0.101145
1.10859
2.04049
2.66534
3.02989
3.24837
3.38521
3.4165
3.47894
3.44971
3.36643
3.42503
3.44873
3.44335
3.48669
3.58222
3.66145
3.73285
3.80937
3.92984
4.12057
4.3462
4.54015
4.71219
4.89153
5.09808
5.29479
5.45578
5.58447
5.69471
5.79979
5.90061
5.99151
6.07224
6.13748
6.18342
6.23493
6.27438
6.3181
6.34725
6.37338
6.38347
6.38881
6.38372
6.37635
6.36078
6.34063
6.31234
6.27811
6.23469
6.18165
6.1176
6.0424
5.95625
5.85872
5.75137
5.63277
5.50443
5.36438
5.21488
5.05425
4.88592
4.70858
4.52521
4.33402
4.13795
3.93552
3.72962
3.51927
3.30775
3.09405
2.88105
2.66775
2.45681
2.24737
2.04189
1.83987
1.64338
1.45166
1.26641
1.087
0.914898
0.74969
0.592744
0.444159
0.304651
0.172624
0.0613274
1.92208
1.34479
0.453217
-0.360287
-0.976061
-1.5295
-1.98862
-2.36575
-2.48271
-2.36829
-2.01683
-1.23555
-0.138036
1.10102
2.05848
2.68894
3.04525
3.25792
3.3855
3.40923
3.47092
3.42727
3.36266
3.4313
3.4475
3.44556
3.50482
3.60012
3.67409
3.74023
3.81833
3.94924
4.15073
4.37296
4.55613
4.72401
4.90873
5.1199
5.30513
5.45391
5.57428
5.68378
5.78979
5.88913
5.97746
6.05544
6.11836
6.16259
6.21186
6.24907
6.29084
6.31841
6.34319
6.35205
6.35607
6.3495
6.3404
6.32295
6.3007
6.27021
6.23371
6.18804
6.13281
6.0667
5.98966
5.90192
5.80305
5.69466
5.57543
5.44682
5.30681
5.1577
4.99773
4.83026
4.65402
4.47209
4.28262
4.08853
3.88832
3.68483
3.47697
3.26805
3.05709
2.84696
2.63665
2.42875
2.2224
2.01991
1.82073
1.62699
1.43792
1.25521
1.0782
0.908339
0.745104
0.589738
0.442335
0.30368
0.17219
0.0605154
1.88349
1.31342
0.429415
-0.38262
-0.991144
-1.5413
-2.00622
-2.38572
-2.50446
-2.40107
-2.05674
-1.2829
-0.170995
1.09066
2.07808
2.7134
3.05989
3.26825
3.38467
3.40282
3.46103
3.40906
3.3663
3.43703
3.44721
3.45265
3.52652
3.6185
3.68683
3.75011
3.83247
3.97542
4.18534
4.40019
4.57247
4.7391
4.93156
5.1407
5.31122
5.44792
5.56364
5.67454
5.77983
5.87651
5.96184
6.03717
6.09807
6.14094
6.18809
6.22313
6.26291
6.2889
6.31226
6.31985
6.32255
6.31455
6.30377
6.28449
6.26024
6.22761
6.18888
6.14101
6.08362
6.01552
5.93668
5.8474
5.74723
5.63783
5.51799
5.38914
5.24919
5.10048
4.94121
4.77461
4.5995
4.41901
4.23126
4.03919
3.84118
3.64012
3.43477
3.22843
3.02019
2.81287
2.60551
2.4006
2.1973
1.99778
1.80145
1.61042
1.42398
1.24376
1.06915
0.901485
0.740236
0.586506
0.440335
0.302581
0.171671
0.0597185
1.84684
1.27705
0.405623
-0.405774
-1.00216
-1.55312
-2.02388
-2.40211
-2.52365
-2.42982
-2.09024
-1.32484
-0.202401
1.07921
2.0974
2.73654
3.0722
3.27671
3.38275
3.39706
3.45031
3.39469
3.37176
3.44132
3.44793
3.46371
3.54927
3.63574
3.69867
3.76162
3.85095
4.00714
4.222
4.42593
4.58885
4.75703
4.95742
5.15649
5.31182
5.43883
5.55385
5.66561
5.76876
5.86228
5.94468
6.01763
6.07686
6.11876
6.16399
6.19693
6.23477
6.25915
6.2811
6.28743
6.28883
6.27947
6.2671
6.24607
6.21989
6.18524
6.14436
6.09436
6.03489
5.96486
5.88429
5.79356
5.69212
5.58178
5.46133
5.33226
5.19239
5.04405
4.88549
4.7198
4.54581
4.36672
4.1807
3.99064
3.79482
3.59618
3.39335
3.18955
2.98396
2.77937
2.57489
2.3729
2.17252
1.97595
1.78241
1.59403
1.41015
1.23237
1.06009
0.894564
0.735255
0.583183
0.438266
0.301442
0.17113
0.0589582
1.81805
1.2372
0.382527
-0.429661
-1.00878
-1.56452
-2.04022
-2.41291
-2.54011
-2.45338
-2.11636
-1.35857
-0.232547
1.06881
2.11677
2.75944
3.08357
3.28379
3.38176
3.39462
3.44271
3.38506
3.37903
3.4459
3.45012
3.47896
3.57231
3.65254
3.71086
3.77615
3.8751
4.04544
4.26067
4.45086
4.60708
4.77981
4.98419
5.16674
5.3075
5.42919
5.54549
5.65618
5.75627
5.84644
5.92609
5.99699
6.05482
6.09606
6.13943
6.17028
6.20613
6.22885
6.24932
6.25433
6.25442
6.24372
6.22981
6.20706
6.179
6.14236
6.09941
6.04734
5.98587
5.91399
5.83173
5.73961
5.63695
5.52572
5.40464
5.27535
5.13558
4.98762
4.82978
4.66501
4.49216
4.31445
4.13018
3.94212
3.74851
3.55229
3.352
3.15076
2.94779
2.74591
2.54425
2.34513
2.14764
1.95398
1.76324
1.5775
1.39614
1.22077
1.05076
0.887358
0.729966
0.579583
0.435983
0.300151
0.170497
0.0582062
1.79155
1.19825
0.357709
-0.45302
-1.01346
-1.57715
-2.05542
-2.41914
-2.55574
-2.47269
-2.13674
-1.38565
-0.262062
1.05789
2.13424
2.78054
3.09292
3.28719
3.38033
3.39461
3.43706
3.37851
3.38767
3.44972
3.4518
3.49647
3.59342
3.66791
3.72265
3.79302
3.9039
4.08763
4.29832
4.47389
4.62655
4.80612
5.00666
5.1702
5.2995
5.42016
5.5368
5.64512
5.74199
5.82915
5.90645
5.97558
6.03223
6.0731
6.11471
6.14353
6.17742
6.19847
6.21744
6.22113
6.21994
6.20793
6.19253
6.16813
6.13825
6.0997
6.05476
6.00073
5.93735
5.86372
5.77985
5.68642
5.58262
5.47051
5.34883
5.21932
5.07965
4.93205
4.77493
4.61109
4.43936
4.26303
4.08049
3.89437
3.70297
3.50911
3.31136
3.11267
2.91228
2.71305
2.51413
2.3178
2.12315
1.93231
1.74434
1.5612
1.38229
1.20925
1.04144
0.880093
0.724575
0.575867
0.433618
0.298815
0.169845
0.0574917
1.76565
1.1653
0.329773
-0.470476
-1.0183
-1.59032
-2.06715
-2.41988
-2.57054
-2.48518
-2.1501
-1.40559
-0.288226
1.04684
2.15048
2.8009
3.10193
3.28866
3.3798
3.39821
3.43247
3.37519
3.39929
3.45361
3.45449
3.51707
3.61384
3.68324
3.73584
3.81409
3.93948
4.13403
4.3351
4.49632
4.64831
4.83482
5.02196
5.16714
5.29045
5.41205
5.52713
5.6325
5.72629
5.81072
5.88592
5.95351
6.00911
6.04979
6.08963
6.11643
6.14832
6.16764
6.18504
6.18736
6.18485
6.17154
6.15467
6.12862
6.09698
6.05651
6.00964
5.95374
5.88853
5.81324
5.72786
5.63319
5.52831
5.41533
5.29308
5.16332
5.02374
4.87652
4.7201
4.55722
4.38661
4.21164
4.0308
3.84662
3.65743
3.46591
3.27073
3.07461
2.8768
2.68021
2.48399
2.29043
2.09859
1.91051
1.7253
1.54474
1.36827
1.19753
1.03188
0.872563
0.718915
0.571867
0.431018
0.297307
0.169092
0.056784
1.73849
1.13461
0.298361
-0.482659
-1.02649
-1.60484
-2.07413
-2.41864
-2.58628
-2.4925
-2.15687
-1.42103
-0.311114
1.03428
2.16348
2.81903
3.1093
3.28769
3.37642
3.40022
3.42428
3.37256
3.41222
3.45651
3.45839
3.53927
3.63273
3.6975
3.75004
3.83883
3.98071
4.18109
4.36831
4.51738
4.67203
4.86109
5.02853
5.15995
5.28173
5.40321
5.51577
5.6182
5.70933
5.79146
5.86485
5.93102
5.98569
6.02626
6.06446
6.08929
6.11922
6.13683
6.15265
6.1536
6.1498
6.13521
6.11691
6.08926
6.05588
6.01357
5.96481
5.90713
5.84022
5.7634
5.67661
5.58078
5.47491
5.3611
5.23832
5.10828
4.96878
4.82193
4.66615
4.50423
4.33474
4.1611
3.98188
3.79962
3.6126
3.4234
3.23074
3.03721
2.84196
2.64796
2.45437
2.26354
2.07443
1.88903
1.70653
1.52854
1.35445
1.18594
1.02238
0.865039
0.713208
0.567765
0.428315
0.295735
0.168319
0.056114
1.71212
1.10445
0.26697
-0.489589
-1.03734
-1.61904
-2.07379
-2.41656
-2.59898
-2.49325
-2.15648
-1.43185
-0.329007
1.02173
2.17368
2.83569
3.11526
3.28573
3.36959
3.39709
3.41246
3.37219
3.42631
3.45924
3.46598
3.56328
3.65108
3.71195
3.7677
3.8696
4.02847
4.22759
4.39796
4.53854
4.69846
4.88118
5.02744
5.15149
5.27391
5.39345
5.50317
5.60282
5.6916
5.77165
5.84333
5.90814
5.9619
6.00235
6.03895
6.06179
6.08977
6.10564
6.11982
6.11935
6.11422
6.09835
6.07861
6.04936
6.01423
5.97014
5.9195
5.8601
5.79159
5.71332
5.62524
5.52832
5.42155
5.30695
5.18365
5.05332
4.91388
4.76741
4.61225
4.45129
4.28293
4.11062
3.93297
3.75261
3.56771
3.38084
3.19066
2.99974
2.80707
2.61565
2.4247
2.23657
2.05016
1.86745
1.6876
1.51219
1.34048
1.17418
1.0127
0.857297
0.707254
0.563416
0.425376