/*--------------------------------*- C++ -*----------------------------------*\
| =========                 |                                                 |
| \\      /  F ield         | OpenFOAM: The Open Source CFD Toolbox           |
|  \\    /   O peration     | Version:  4.1                                   |
|   \\  /    A nd           | Web:      www.OpenFOAM.org                      |
|    \\/     M anipulation  |                                                 |
\*---------------------------------------------------------------------------*/
FoamFile
{
    version     2.0;
    format      ascii;
    class       volScalarField;
    location    "14";
    object      p;
}
// * * * * * * * * * * * * * * * * * * * * * * * * * * * * * * * * * * * * * //

dimensions      [0 2 -2 0 0 0 0];

internalField   nonuniform List<scalar> 
26785
(
12.2244
12.1266
12.3312
12.7179
13.1565
13.8984
14.5547
15.3872
15.9282
16.466
16.8654
17.3751
17.6916
17.9684
18.1722
18.503
18.8767
19.3764
19.8205
20.2862
20.6272
20.9584
21.2768
21.6094
21.8423
21.9506
21.8802
21.6444
21.3286
20.9626
20.5831
20.1789
19.8034
19.4288
19.0611
18.6745
18.294
17.9127
17.5543
17.2103
16.8859
16.5719
16.29
16.0367
15.8181
15.6211
15.469
15.4038
15.3644
15.3691
15.3822
15.4184
15.4514
15.4945
15.5252
15.5413
15.5407
15.5389
15.5383
15.549
15.5563
15.5599
15.5306
15.4746
15.3681
15.2467
15.0836
14.9185
14.7159
14.5158
14.2759
14.0384
13.7692
13.5162
13.2434
12.9873
12.7089
12.4388
12.1356
11.8288
11.4822
11.1298
10.7341
10.3261
9.87
9.39934
8.88277
8.35403
7.78624
7.21208
6.60551
5.99423
5.35322
4.70715
4.03293
3.35136
2.64352
1.92165
1.17578
0.389956
12.2078
12.1245
12.3324
12.718
13.1568
13.8989
14.5549
15.3877
15.9292
16.4664
16.8657
17.3766
17.6932
17.9699
18.1716
18.502
18.8761
19.3769
19.8219
20.288
20.6268
20.9572
21.2763
21.6109
21.8449
21.9539
21.8829
21.6456
21.3288
20.9626
20.5834
20.1793
19.804
19.4302
19.0634
18.6769
18.2958
17.9138
17.555
17.2112
16.8867
16.5725
16.2902
16.0368
15.8178
15.6203
15.4675
15.4025
15.3633
15.368
15.3818
15.4183
15.4517
15.4949
15.5257
15.541
15.539
15.5361
15.5348
15.5463
15.5549
15.5604
15.5322
15.4768
15.3698
15.2481
15.0844
14.9198
14.7173
14.5176
14.2772
14.0393
13.7695
13.5162
13.2434
12.9879
12.7103
12.4411
12.1384
11.8319
11.4855
11.1332
10.7379
10.33
9.87386
9.40278
8.88582
8.35643
7.78833
7.21377
6.60726
5.9959
5.35518
4.70912
4.03523
3.35363
2.64685
1.9238
1.19621
0.371561
12.1769
12.1206
12.3338
12.7172
13.1567
13.8999
14.5552
15.3891
15.9315
16.4676
16.8665
17.3796
17.6963
17.9734
18.1709
18.5006
18.8761
19.3792
19.8265
20.2932
20.6276
20.9559
21.2768
21.6159
21.8524
21.9626
21.8899
21.6491
21.3299
20.9636
20.5849
20.1807
19.8058
19.4333
19.0682
18.6821
18.2999
17.9167
17.5573
17.2138
16.8892
16.5741
16.2912
16.0373
15.8179
15.6193
15.4656
15.4012
15.3623
15.3672
15.382
15.4193
15.4533
15.497
15.5278
15.5414
15.5367
15.5315
15.5293
15.5419
15.5526
15.5613
15.5347
15.4804
15.3723
15.2502
15.0853
14.9217
14.7194
14.5207
14.2794
14.0413
13.77
13.5169
13.2439
12.9899
12.7133
12.4458
12.1437
11.8382
11.4921
11.1411
10.7465
10.3395
9.88345
9.41227
8.89458
8.36454
7.79568
7.22064
6.6138
6.00227
5.36142
4.71515
4.04113
3.35914
2.65271
1.92912
1.20576
0.383326
12.1344
12.1172
12.335
12.7159
13.1566
13.9013
14.5553
15.3913
15.9351
16.4694
16.8678
17.385
17.7019
17.9791
18.1696
18.4983
18.8765
19.3831
19.8342
20.3017
20.6291
20.9537
21.2775
21.6232
21.8638
21.9755
21.9003
21.6541
21.3315
20.9649
20.5872
20.1828
19.8084
19.438
19.0756
18.6901
18.3068
17.9219
17.562
17.2191
16.8947
16.5786
16.2947
16.0404
15.8201
15.6198
15.4648
15.4009
15.3617
15.3669
15.3828
15.4212
15.4556
15.5002
15.5307
15.5431
15.5353
15.528
15.5243
15.5381
15.5508
15.5623
15.5373
15.4835
15.3749
15.2516
15.0867
14.9231
14.7223
14.523
14.282
14.0419
13.7708
13.5161
13.2441
12.9895
12.7149
12.4466
12.1457
11.8385
11.4935
11.1413
10.7482
10.3399
9.88471
9.41122
8.89342
8.36059
7.79141
7.21391
6.60703
5.99358
5.35294
4.7051
4.03138
3.34844
2.642
1.92004
1.18481
0.398074
12.0834
12.1176
12.3365
12.7142
13.1563
13.9028
14.5551
15.3937
15.9397
16.4713
16.8693
17.3916
17.7092
17.9866
18.1679
18.4949
18.8767
19.3874
19.8444
20.3127
20.632
20.952
21.2797
21.6328
21.8778
21.9909
21.9127
21.6597
21.3327
20.9654
20.5884
20.1837
19.81
19.4424
19.0834
18.6991
18.3149
17.9288
17.5687
17.2271
16.9036
16.5872
16.3028
16.0482
15.827
15.6246
15.4678
15.4039
15.363
15.3687
15.3843
15.4236
15.4576
15.5027
15.5322
15.5435
15.5323
15.5232
15.518
15.5325
15.5462
15.5592
15.5349
15.481
15.3721
15.2478
15.0833
14.9198
14.721
14.5212
14.2808
14.039
13.7683
13.5123
13.2416
12.9868
12.7141
12.4454
12.1453
11.8372
11.4933
11.141
10.7497
10.3415
9.8872
9.41273
8.8947
8.36011
7.79018
7.21092
6.60345
5.98862
5.34756
4.69857
4.02457
3.341
2.63398
1.91334
1.17125
0.405087
12.0271
12.1239
12.3384
12.7134
13.1564
13.9044
14.5539
15.3956
15.9448
16.4727
16.8708
17.3993
17.7184
17.9959
18.1664
18.49
18.8755
19.389
19.8527
20.3213
20.6328
20.9475
21.2784
21.6364
21.8841
21.9973
21.9164
21.6574
21.3267
20.959
20.583
20.1787
19.8064
19.4427
19.0877
18.7054
18.321
17.9348
17.5755
17.2364
16.9152
16.5994
16.3148
16.06
15.8376
15.6328
15.4739
15.4094
15.3665
15.3725
15.3877
15.4279
15.4611
15.5065
15.535
15.545
15.5308
15.5193
15.5129
15.5279
15.543
15.5574
15.5344
15.4805
15.3719
15.2465
15.0827
14.9193
14.7227
14.5226
14.2826
14.039
13.7683
13.5109
13.2408
12.9859
12.7145
12.4455
12.1458
11.8368
11.4935
11.1413
10.7511
10.3425
9.88822
9.41199
8.89257
8.35548
7.78387
7.20228
6.59348
5.97687
5.33493
4.68462
4.01016
3.32615
2.6191
1.89998
1.15674
0.40263
11.9651
12.1303
12.336
12.7109
13.1553
13.9046
14.5519
15.3961
15.9495
16.4733
16.8722
17.4067
17.7285
18.0068
18.1661
18.4846
18.8721
19.3848
19.8535
20.3201
20.6248
20.9345
21.2683
21.6288
21.8781
21.9911
21.9089
21.646
21.3136
20.9473
20.5735
20.1706
19.8001
19.4403
19.0893
18.709
18.3246
17.9389
17.5813
17.2457
16.9272
16.6119
16.3268
16.0714
15.8477
15.6408
15.4801
15.4149
15.3711
15.3777
15.3934
15.4347
15.4672
15.512
15.539
15.5468
15.5287
15.5141
15.506
15.5214
15.5382
15.5541
15.5323
15.4786
15.3698
15.2433
15.08
14.9172
14.7228
14.523
14.2831
14.0379
13.7665
13.5079
13.2379
12.9831
12.713
12.4442
12.1446
11.8349
11.4923
11.1407
10.7516
10.343
9.88816
9.40997
8.88846
8.34871
7.77499
7.19117
6.58086
5.96274
5.31991
4.66866
3.99384
3.30984
2.60329
1.88615
1.14431
0.398842
11.911
12.141
12.3325
12.7106
13.1556
13.905
14.5492
15.3939
15.9518
16.4711
16.8717
17.4109
17.7367
18.0162
18.1647
18.4764
18.8645
19.3737
19.8454
20.3091
20.608
20.9143
21.2515
21.6151
21.8663
21.9797
21.8961
21.6294
21.2959
20.9318
20.5611
20.1603
19.7917
19.436
19.0889
18.7104
18.3265
17.9419
17.5871
17.2563
16.9408
16.6259
16.34
16.0838
15.8581
15.6488
15.4862
15.421
15.3773
15.3854
15.4021
15.4448
15.4759
15.5192
15.544
15.5489
15.5264
15.5085
15.4989
15.515
15.534
15.5514
15.531
15.4772
15.3683
15.2405
15.0778
14.9158
14.7237
14.5243
14.2843
14.0374
13.765
13.5051
13.235
12.9804
12.7115
12.4429
12.1432
11.8331
11.4911
11.1403
10.7521
10.3429
9.88657
9.40549
8.88099
8.33797
7.7617
7.17553
6.5637
5.94416
5.30056
4.64863
3.97374
3.29009
2.58464
1.86982
1.13087
0.393257
11.8722
12.1522
12.3262
12.7104
13.1549
13.9033
14.5441
15.3857
15.9466
16.4618
16.8655
17.4078
17.7393
18.0221
18.1611
18.4667
18.8561
19.3618
19.8356
20.2953
20.5882
20.8911
21.2315
21.5984
21.8519
21.9649
21.8786
21.6074
21.2737
20.9138
20.5475
20.1496
19.7839
19.4329
19.0897
18.7121
18.3283
17.945
17.5935
17.2684
16.9558
16.6409
16.3546
16.0975
15.8693
15.6567
15.492
15.4276
15.3848
15.3944
15.4125
15.4565
15.4847
15.5253
15.5472
15.5489
15.5224
15.5019
15.4918
15.5091
15.5301
15.5485
15.5286
15.4747
15.3657
15.2371
15.0751
14.9145
14.7245
14.5255
14.285
14.0367
13.7633
13.5021
13.2318
12.9774
12.7095
12.4411
12.1411
11.8307
11.4898
11.1402
10.7525
10.3421
9.88333
9.39861
8.87043
8.32394
7.74503
7.15673
6.54359
5.92301
5.27887
4.62665
3.95202
3.26921
2.5653
1.85317
1.11783
0.387812
11.8548
12.1577
12.3167
12.7108
13.1535
13.8981
14.5344
15.3695
15.9331
16.445
16.8548
17.4008
17.7386
18.0249
18.1541
18.455
18.8462
19.348
19.8248
20.2809
20.5659
20.8642
21.2082
21.5796
21.8354
21.947
21.8575
21.5815
21.2492
20.8953
20.5347
20.1401
19.7787
19.4333
19.0938
18.7154
18.3315
17.9493
17.6017
17.2829
16.974
16.6591
16.3726
16.1145
15.8828
15.6661
15.4993
15.4358
15.3942
15.4048
15.4246
15.469
15.4935
15.5293
15.5481
15.5473
15.5178
15.4956
15.4861
15.5046
15.5269
15.5454
15.5257
15.4717
15.3633
15.2343
15.0728
14.9134
14.7252
14.5261
14.2851
14.0355
13.7612
13.4992
13.2284
12.9742
12.7073
12.439
12.139
11.8288
11.489
11.1406
10.7526
10.3398
9.87738
9.38818
8.85579
8.30572
7.72428
7.13417
6.52006
5.89877
5.2544
4.60222
3.9283
3.24679
2.54489
1.83579
1.10447
0.382301
11.8611
12.1506
12.3029
12.7099
13.1498
13.8885
14.5186
15.3477
15.9143
16.4236
16.8418
17.3925
17.7357
18.0235
18.1436
18.443
18.8364
19.3343
19.8152
20.267
20.5424
20.8362
21.1849
21.5609
21.8179
21.9269
21.8347
21.5539
21.2238
20.8768
20.5227
20.132
19.7756
19.4365
19.1
18.7193
18.3353
17.9545
17.6107
17.2981
16.9928
16.6788
16.3922
16.1326
15.8964
15.6756
15.5073
15.4445
15.4033
15.4146
15.4365
15.4796
15.4995
15.5306
15.5462
15.5436
15.5121
15.4894
15.4813
15.5009
15.5231
15.5405
15.5208
15.4676
15.3606
15.2313
15.0698
14.9111
14.7243
14.5254
14.2841
14.0337
13.7589
13.4963
13.2251
12.971
12.7048
12.4367
12.1368
11.827
11.4887
11.1411
10.7519
10.3358
9.8689
9.37478
8.83807
8.28464
7.70098
7.1095
6.49475
5.87306
5.2287
4.57688
3.90403
3.22428
2.52464
1.81879
1.09153
0.377327
11.9085
12.1475
12.2939
12.7112
13.1455
13.876
14.4975
15.3221
15.8928
16.3995
16.8288
17.3849
17.7329
18.0195
18.1302
18.4317
18.8267
19.3194
19.8056
20.2513
20.5148
20.8058
21.1614
21.5403
21.7964
21.9036
21.8107
21.5254
21.1981
20.8593
20.5122
20.126
19.7757
19.4442
19.1095
18.725
18.342
17.9635
17.6231
17.3159
17.0153
16.7033
16.416
16.1536
15.9126
15.6882
15.518
15.4544
15.4128
15.4254
15.4493
15.4893
15.5038
15.5308
15.5436
15.5402
15.5079
15.4855
15.4787
15.498
15.5189
15.5347
15.5149
15.4631
15.3576
15.2267
15.0642
14.9061
14.7212
14.523
14.282
14.0314
13.7563
13.4931
13.2214
12.9672
12.7016
12.4335
12.1339
11.825
11.4881
11.1409
10.7495
10.3291
9.85703
9.35773
8.81679
8.26031
7.67484
7.08236
6.46724
5.84539
5.20131
4.5502
3.87895
3.20141
2.50434
1.80192
1.07878
0.372846
11.9669
12.1399
12.2834
12.7091
13.1376
13.8601
14.4734
15.2946
15.8694
16.3744
16.8169
17.3775
17.73
18.0139
18.1151
18.4214
18.8172
19.3048
19.7972
20.2338
20.4845
20.7762
21.1405
21.5191
21.7731
21.8793
21.7876
21.4982
21.1735
20.8433
20.5037
20.1222
19.7779
19.4548
19.1208
18.7315
18.3508
17.9752
17.6388
17.3335
17.0393
16.7299
16.441
16.1759
15.9303
15.7017
15.5283
15.4624
15.4203
15.4356
15.4605
15.4966
15.5051
15.5288
15.5397
15.5367
15.5047
15.4832
15.4769
15.495
15.5133
15.5271
15.507
15.4574
15.3523
15.2184
15.0547
14.8984
14.7163
14.5197
14.2795
14.0289
13.7534
13.4893
13.2169
12.9623
12.6968
12.4286
12.1295
11.8219
11.4868
11.1394
10.7452
10.32
9.84257
9.33823
8.79341
8.23434
7.64746
7.05431
6.43894
5.81708
5.17349
4.52353
3.8543
3.1792
2.48473
1.78578
1.06661
0.369014
12.0228
12.1334
12.2773
12.7084
13.1314
13.8454
14.45
15.2682
15.8451
16.3485
16.8059
17.3697
17.7264
18.0073
18.099
18.412
18.8067
19.2901
19.7892
20.2123
20.4501
20.7473
21.1202
21.4947
21.7463
21.8532
21.765
21.4724
21.1503
20.8294
20.4979
20.1216
19.7832
19.4691
19.1341
18.7389
18.3624
17.9882
17.6587
17.3561
17.0674
16.7615
16.4722
16.2044
15.9535
15.7181
15.5396
15.4705
15.4285
15.4467
15.4724
15.5037
15.5064
15.5272
15.5368
15.5349
15.5042
15.4835
15.4769
15.4925
15.5074
15.5186
15.4989
15.4504
15.3429
15.2053
15.0415
14.8889
14.7105
14.5159
14.2762
14.0254
13.749
13.4838
13.2103
12.9552
12.6897
12.4216
12.1235
11.8178
11.4844
11.1361
10.7383
10.3079
9.82504
9.3158
8.76747
8.20619
7.61827
7.0247
6.40914
5.78746
5.14472
4.49647
3.82978
3.15721
2.46542
1.77006
1.05481
0.365613
12.0689
12.1277
12.2739
12.7081
13.1257
13.8312
14.4272
15.2435
15.8198
16.3232
16.7957
17.361
17.722
18
18.0835
18.4038
18.7963
19.2773
19.7816
20.187
20.4151
20.7223
21.1006
21.4688
21.7195
21.828
21.7441
21.4492
21.1297
20.8186
20.4951
20.1238
19.7906
19.4859
19.1471
18.7435
18.3714
17.9998
17.6784
17.3839
17.0978
16.7947
16.5058
16.2352
15.9777
15.7336
15.5492
15.4771
15.436
15.4562
15.4824
15.5089
15.5064
15.5249
15.5338
15.5338
15.5051
15.4854
15.4776
15.49
15.5006
15.508
15.4904
15.441
15.3288
15.1883
15.0263
14.879
14.7043
14.5114
14.2721
14.0206
13.743
13.4763
13.2017
12.946
12.6803
12.4125
12.1159
11.8127
11.481
11.1312
10.7293
10.2938
9.80561
9.29181
8.74043
8.17736
7.58868
6.99477
6.37909
5.75786
5.11641
4.47039
3.80635
3.13618
2.44689
1.75508
1.04341
0.362472
12.1085
12.1256
12.275
12.7112
13.1233
13.8189
14.4066
15.2209
15.7937
16.2994
16.786
17.3508
17.7167
17.9921
18.0691
18.3967
18.7853
19.2656
19.7717
20.1557
20.3797
20.6998
21.0791
21.4399
21.6916
21.803
21.7235
21.428
21.112
20.8119
20.4965
20.1299
19.8011
19.507
19.1629
18.7485
18.3758
18.0104
17.7007
17.4175
17.1356
16.8342
16.5443
16.2692
16.0041
15.7515
15.5615
15.4859
15.445
15.4665
15.4932
15.5147
15.5077
15.5243
15.5329
15.5351
15.5088
15.49
15.4802
15.4883
15.4946
15.4962
15.4804
15.4278
15.3103
15.1685
15.0102
14.8685
14.6972
14.5057
14.2663
14.0139
13.7348
13.4666
13.1906
12.9343
12.6688
12.4018
12.1073
11.807
11.4767
11.1246
10.7182
10.2773
9.78385
9.26573
8.71162
8.1471
7.55784
6.96357
6.34805
5.7277
5.08822
4.44482
3.78335
3.11538
2.42863
1.74038
1.03228
0.359442
12.144
12.1274
12.2787
12.7158
13.1223
13.8074
14.388
15.2
15.7671
16.2782
16.7767
17.3396
17.7107
17.9833
18.0568
18.3909
18.7747
19.2571
19.7593
20.1208
20.3468
20.6796
21.0571
21.4115
21.6659
21.7801
21.7039
21.409
21.0981
20.8094
20.5016
20.1385
19.8135
19.5299
19.1816
18.7577
18.3781
18.0182
17.723
17.4509
17.1746
16.8756
16.5838
16.3032
16.0298
15.769
15.5739
15.4947
15.4527
15.4752
15.5019
15.5188
15.5085
15.5238
15.5328
15.5373
15.5139
15.4958
15.4836
15.4866
15.4888
15.4837
15.467
15.4093
15.288
15.1474
14.9942
14.8577
14.6891
14.4989
14.2593
14.0058
13.7251
13.4552
13.1779
12.9213
12.6557
12.3899
12.098
11.8007
11.4715
11.1167
10.7057
10.2597
9.76112
9.23908
8.68261
8.11676
7.52697
6.93254
6.31758
5.69864
5.06148
4.42064
3.76121
3.09511
2.41078
1.72604
1.02158
0.356758
12.1778
12.1332
12.2861
12.7233
13.1243
13.7981
14.372
15.1809
15.7394
16.2588
16.7674
17.3281
17.7028
17.9718
18.0455
18.386
18.7634
19.2505
19.7416
20.0829
20.3157
20.6585
21.0332
21.3825
21.6402
21.7568
21.6836
21.389
21.0866
20.8105
20.5098
20.1484
19.8296
19.5537
19.2015
18.7726
18.3834
18.0279
17.749
17.4883
17.2175
16.9212
16.6278
16.341
16.059
15.79
15.5894
15.5059
15.4622
15.4857
15.5119
15.5246
15.5115
15.5264
15.5357
15.5426
15.522
15.504
15.4887
15.4859
15.4837
15.4724
15.4501
15.3863
15.263
15.1257
14.9779
14.8463
14.68
14.4906
14.2509
13.996
13.7139
13.442
13.1634
12.9064
12.6413
12.3771
12.0884
11.7942
11.4652
11.1074
10.6917
10.2407
9.73705
9.21132
8.65256
8.0854
7.49521
6.90104
6.28721
5.6701
5.03539
4.39661
3.73876
3.07456
2.393
1.71226
1.01208
0.355221
12.2075
12.1408
12.2946
12.7312
13.127
13.7902
14.3575
15.1624
15.7115
16.2409
16.7585
17.3171
17.6933
17.9576
18.0354
18.3822
18.7523
19.2465
19.7203
20.0455
20.2879
20.6376
21.0097
21.3561
21.6179
21.7348
21.6636
21.3693
21.0775
20.8142
20.5202
20.1593
19.8527
19.577
19.2182
18.7887
18.3921
18.0392
17.7755
17.5259
17.2607
16.9672
16.6726
16.379
16.0884
15.8117
15.6046
15.5172
15.4711
15.4956
15.5206
15.5296
15.5147
15.5298
15.5399
15.5491
15.5311
15.5129
15.4941
15.4852
15.4776
15.4609
15.4301
15.3602
15.2373
15.1046
14.962
14.8345
14.6703
14.4816
14.2414
13.9854
13.7016
13.4277
13.1478
12.8906
12.6261
12.3639
12.0788
11.7875
11.4582
11.0974
10.6775
10.2216
9.71316
9.18401
8.62282
8.0544
7.46405
6.8707
6.2584
5.64321
5.01045
4.37288
3.71618
3.05407
2.37578
1.69989
1.0043
0.355423
12.2361
12.1524
12.3064
12.7415
13.1328
13.7848
14.3454
15.1443
15.6839
16.2238
16.7494
17.306
17.6825
17.9404
18.0256
18.3789
18.7405
19.2427
19.694
20.0066
20.2606
20.6147
20.9851
21.3306
21.5973
21.7107
21.6416
21.3503
21.0705
20.8205
20.5333
20.1765
19.8823
19.6003
19.2342
18.806
18.4058
18.0554
17.8056
17.5673
17.3079
17.0173
16.7212
16.4206
16.1215
15.8371
15.6228
15.5318
15.4828
15.5085
15.5317
15.5379
15.5215
15.5369
15.5477
15.559
15.5431
15.5241
15.5011
15.4855
15.472
15.4493
15.4076
15.3325
15.2119
15.0842
14.9465
14.8224
14.6599
14.4713
14.2307
13.9734
13.6878
13.4117
13.1304
12.8727
12.6095
12.3501
12.0692
11.7806
11.4502
11.0867
10.6627
10.2017
9.68868
9.15623
8.59254
8.02309
7.43304
6.84096
6.23025
5.61646
4.98486
4.34786
3.69262
3.03352
2.35982
1.68991
0.999028
0.357287
12.2615
12.1654
12.3191
12.7516
13.1397
13.7808
14.3346
15.1262
15.6578
16.2074
16.7407
17.2952
17.6715
17.9217
18.0167
18.3765
18.7292
19.2388
19.6656
19.9678
20.2357
20.5927
20.9616
21.3074
21.5787
21.6852
21.6192
21.333
21.0656
20.8296
20.5489
20.2002
19.9127
19.6195
19.2503
18.822
18.4217
18.0751
17.8374
17.6098
17.3548
17.0663
16.7688
16.4619
16.1545
15.8626
15.6409
15.5465
15.4943
15.5216
15.5423
15.5465
15.529
15.545
15.5567
15.5699
15.5555
15.5352
15.5081
15.486
15.466
15.4366
15.3836
15.3046
15.1878
15.0652
14.9315
14.8103
14.6487
14.4601
14.219
13.9604
13.6729
13.3944
13.112
12.8538
12.5922
12.3362
12.0597
11.7738
11.4424
11.0765
10.6487
10.1824
9.66514
9.12905
8.56308
7.9931
7.40378
6.81308
6.20338
5.5901
4.95856
4.32196
3.66886
3.01406
2.34623
1.68274
0.995926
0.359524
12.2879
12.1828
12.3358
12.764
13.1496
13.7789
14.3258
15.1083
15.6322
16.1914
16.7322
17.2843
17.6599
17.9006
18.0083
18.3744
18.7186
19.2315
19.6345
19.9296
20.2103
20.5699
20.9376
21.2837
21.5572
21.657
21.5968
21.3176
21.0625
20.8427
20.5695
20.23
19.9437
19.6378
19.2724
18.8393
18.4376
18.0996
17.8749
17.6577
17.4047
17.1174
16.8191
16.507
16.1911
15.8916
15.6628
15.5644
15.5094
15.538
15.5564
15.5592
15.5411
15.5572
15.5691
15.584
15.5707
15.548
15.5166
15.4877
15.4611
15.4237
15.359
15.2778
15.1658
15.0474
14.9168
14.7978
14.6364
14.4471
14.2056
13.9457
13.6563
13.3751
13.0911
12.8328
12.5735
12.3218
12.0501
11.767
11.4346
11.0663
10.6347
10.1633
9.64132
9.10126
8.53372
7.96394
7.37551
6.78543
6.17571
5.56188
4.92988
4.29453
3.64534
2.99658
2.3356
1.67796
0.994305
0.360804
12.3115
12.2011
12.3532
12.7762
13.1601
13.7775
14.3179
15.0905
15.607
16.1768
16.7241
17.2733
17.6489
17.8793
18.0014
18.3725
18.7111
19.2221
19.6029
19.896
20.1852
20.5487
20.9153
21.2617
21.5335
21.6269
21.5762
21.3044
21.0614
20.8595
20.5944
20.2622
19.972
19.6573
19.2999
18.8584
18.4508
18.1256
17.9153
17.7067
17.4543
17.1664
16.8675
16.5517
16.2279
15.9207
15.6853
15.5826
15.5247
15.5543
15.5707
15.5724
15.5541
15.5703
15.5822
15.5982
15.5859
15.5603
15.5249
15.4894
15.4559
15.4105
15.3349
15.253
15.146
15.0307
14.9024
14.7845
14.6225
14.4326
14.1905
13.9297
13.6387
13.3547
13.0686
12.8108
12.5546
12.3077
12.0409
11.7603
11.4278
11.0573
10.6217
10.1448
9.61735
9.07405
8.50616
7.93711
7.34914
6.75848
6.14754
5.53215
4.89998
4.2674
3.62392
2.9822
2.32767
1.67432
0.993018
0.360318
12.335
12.2229
12.3736
12.7907
13.1739
13.7773
14.3106
15.0732
15.5821
16.1638
16.715
17.2612
17.637
17.8564
17.9967
18.3695
18.7078
19.2094
19.5674
19.8642
20.1565
20.526
20.8929
21.2389
21.5053
21.5964
21.5561
21.2922
21.0626
20.8811
20.6242
20.2962
19.9976
19.682
19.3303
18.8803
18.4636
18.1533
17.9602
17.7598
17.5083
17.2177
16.917
16.599
16.2685
15.9537
15.7127
15.6049
15.5444
15.5743
15.5892
15.5902
15.572
15.5877
15.5988
15.6153
15.6033
15.5746
15.5347
15.4921
15.4512
15.3976
15.3125
15.2313
15.1294
15.0151
14.8876
14.7699
14.6065
14.4156
14.1728
13.9115
13.6187
13.3315
13.0429
12.7865
12.5346
12.2934
12.0318
11.7534
11.4211
11.049
10.6085
10.125
9.59202
9.04735
8.48023
7.91143
7.3226
6.72976
6.11639
5.49956
4.86897
4.24152
3.60541
2.97058
2.32107
1.6702
0.990919
0.357829
12.3557
12.2445
12.3943
12.8048
13.1879
13.7771
14.3035
15.0572
15.559
16.1522
16.7048
17.2484
17.6252
17.8337
17.9945
18.3666
18.7101
19.1934
19.5304
19.8343
20.128
20.5036
20.873
21.2174
21.4758
21.5669
21.5378
21.2816
21.0673
20.9071
20.6572
20.3276
20.02
19.7098
19.3586
18.9015
18.4767
18.1819
18.005
17.8135
17.563
17.2664
16.9627
16.6444
16.3087
15.9865
15.741
15.6276
15.5647
15.5945
15.6077
15.6083
15.5903
15.6057
15.6155
15.632
15.6198
15.5885
15.5437
15.494
15.4459
15.3853
15.2925
15.213
15.1149
15.0002
14.8721
14.7539
14.5887
14.3964
14.1534
13.8927
13.5973
13.3065
13.0158
12.7615
12.5147
12.2796
12.0234
11.747
11.4154
11.0417
10.5951
10.1045
9.56764
9.02322
8.4567
7.88695
7.29569
6.69942
6.08316
5.46615
4.8394
4.21893
3.59027
2.96079
2.31438
1.66459
0.987633
0.353681
12.3776
12.2683
12.4183
12.8216
13.2037
13.7781
14.2971
15.0417
15.5369
16.1414
16.6929
17.2353
17.6116
17.8094
17.9961
18.3644
18.7154
19.1727
19.4916
19.8039
20.0985
20.4786
20.8528
21.1951
21.4438
21.5368
21.5199
21.2724
21.0755
20.9364
20.6936
20.3566
20.0443
19.742
19.3837
18.9215
18.4895
18.2138
18.0509
17.8717
17.6211
17.3164
17.0093
16.6921
16.352
16.023
15.7734
15.6545
15.5897
15.6191
15.6306
15.6312
15.6138
15.6283
15.6355
15.6517
15.6384
15.6046
15.5544
15.4967
15.4412
15.3739
15.276
15.1988
15.1033
14.9858
14.856
14.7363
14.5685
14.3741
14.1317
13.8723
13.5727
13.2783
12.986
12.7345
12.4938
12.2659
12.0155
11.7409
11.4098
11.0341
10.5794
10.0826
9.54432
9.00065
8.43337
7.86085
7.26546
6.66498
6.04692
5.4324
4.81215
4.19964
3.57725
2.95102
2.30591
1.65643
0.982446
0.348103
12.3989
12.2907
12.442
12.8384
13.2183
13.7796
14.2911
15.0259
15.5167
16.1313
16.6803
17.2237
17.5975
17.7873
18.0011
18.3625
18.7208
19.1505
19.4545
19.7746
20.0717
20.4549
20.8332
21.1738
21.4125
21.5148
21.5023
21.2643
21.0865
20.966
20.7302
20.3825
20.0709
19.778
19.4058
18.9383
18.5025
18.2476
18.0963
17.9303
17.6765
17.3631
17.0536
16.7367
16.3938
16.0589
15.8047
15.6809
15.615
15.6437
15.6529
15.6539
15.6376
15.6512
15.6553
15.6705
15.656
15.6195
15.5643
15.4988
15.4365
15.3639
15.263
15.188
15.0931
14.9718
14.8396
14.7175
14.5465
14.35
14.1093
13.8514
13.5467
13.2494
12.9563
12.7073
12.4731
12.2535
12.0086
11.7356
11.4051
11.0256
10.5627
10.0613
9.52313
8.97957
8.41005
7.83334
7.23274
6.62835
6.01045
5.40093
4.78868
4.18342
3.56517
2.94016
2.2952
1.6459
0.975812
0.341818
12.422
12.3138
12.4682
12.8577
13.2337
13.7827
14.2859
15.009
15.4976
16.122
16.6669
17.2124
17.5814
17.7669
18.0094
18.3606
18.7205
19.1271
19.4182
19.7442
20.0443
20.431
20.8117
21.1507
21.3802
21.4952
21.4847
21.2579
21.0991
20.9939
20.7655
20.41
20.101
19.8164
19.4289
18.9532
18.5176
18.2839
18.1445
17.9922
17.7321
17.41
17.1005
16.782
16.4371
16.0981
15.8394
15.7104
15.6454
15.673
15.6797
15.681
15.6666
15.6786
15.6788
15.6926
15.6761
15.6364
15.5756
15.5024
15.4326
15.3553
15.254
15.181
15.0843
14.9575
14.8222
14.6969
14.5217
14.3232
14.0848
13.8274
13.5178
13.2176
12.9247
12.6779
12.4512
12.2417
12.0019
11.7303
11.3995
11.0134
10.544
10.0402
9.50266
8.95758
8.38396
7.80159
7.19543
6.58888
5.97411
5.37216
4.76839
4.16862
3.55218
2.92676
2.28131
1.63265
0.967404
0.335138
12.4438
12.3351
12.4932
12.8762
13.2486
13.7864
14.2809
14.9915
15.4803
16.1135
16.6542
17.2022
17.5661
17.7513
18.0188
18.3586
18.7157
19.1052
19.3839
19.7156
20.0198
20.4097
20.791
21.1273
21.3493
21.4752
21.4679
21.2532
21.1117
21.0209
20.7972
20.4388
20.1322
19.852
19.4521
18.9675
18.5355
18.32
18.1931
18.0523
17.7834
17.4525
17.144
16.8246
16.4777
16.1351
15.8716
15.7381
15.6755
15.7021
15.7058
15.7073
15.695
15.7051
15.7019
15.7137
15.695
15.652
15.5857
15.5056
15.4291
15.3483
15.2484
15.1765
15.0755
14.9428
14.8042
14.6751
14.495
14.2954
14.0604
13.8027
13.4893
13.1856
12.8931
12.649
12.43
12.2307
11.9948
11.7251
11.3931
10.9986
10.5244
10.0202
9.48269
8.93451
8.35556
7.76683
7.15601
6.54965
5.94052
5.34732
4.75075
4.15409
3.53753
2.91085
2.26507
1.61783
0.958187
0.328745
12.4673
12.3582
12.5198
12.8969
13.2653
13.7916
14.2773
14.9734
15.4637
16.1055
16.6419
17.1921
17.5487
17.7384
18.0277
18.3554
18.7065
19.084
19.3496
19.6862
19.9944
20.3877
20.7694
21.103
21.3198
21.4554
21.4508
21.249
21.1236
21.0482
20.8282
20.4695
20.1659
19.8864
19.4747
18.9811
18.5563
18.3561
18.2435
18.1137
17.834
17.4945
17.1864
16.8686
16.5206
16.1735
15.9056
15.769
15.7105
15.7352
15.7365
15.7385
15.7283
15.7364
15.7286
15.738
15.7166
15.6693
15.5969
15.5109
15.4265
15.343
15.2458
15.1745
15.0664
14.9269
14.7846
14.6505
14.4646
14.264
14.034
13.776
13.4606
13.152
12.8584
12.6179
12.4079
12.2191
11.9858
11.718
11.3832
10.9809
10.503
9.99934
9.46066
8.90776
8.32234
7.72738
7.11405
6.51088
5.90987
5.32542
4.73392
4.1381
3.52005
2.89194
2.2464
1.60156
0.948062
0.322708
12.4893
12.3809
12.5441
12.9166
13.2816
13.7968
14.2746
14.9559
15.448
16.0978
16.6305
17.1823
17.5311
17.729
18.0358
18.3529
18.6949
19.0638
19.3179
19.658
19.9711
20.3683
20.7498
21.0806
21.2934
21.4382
21.434
21.2462
21.1368
21.0727
20.8582
20.5005
20.2018
19.919
19.496
18.9933
18.5804
18.3919
18.2923
18.1711
17.8794
17.5322
17.2236
16.9088
16.561
16.2079
15.9364
15.7985
15.7441
15.7661
15.7661
15.7686
15.7601
15.7671
15.7548
15.7601
15.7361
15.6846
15.606
15.5159
15.4244
15.3391
15.2445
15.1736
15.0568
14.91
14.7637
14.6238
14.432
14.2306
14.0061
13.7494
13.4332
13.1194
12.8225
12.5861
12.3858
12.2065
11.975
11.7084
11.3694
10.961
10.4811
9.9781
9.43666
8.87813
8.28608
7.6862
7.07272
6.47513
5.88309
5.30576
4.7169
4.12028
3.50035
2.87131
2.22686
1.58519
0.938026
0.317383
12.5128
12.4063
12.5698
12.9381
13.2997
13.8034
14.2736
14.94
15.4321
16.0894
16.6193
17.171
17.5123
17.7216
18.0428
18.3501
18.6798
19.0414
19.2859
19.6265
19.9453
20.3487
20.7299
21.0585
21.269
21.4212
21.4165
21.2455
21.1524
21.0943
20.8868
20.5322
20.2407
19.9515
19.5158
19.0051
18.6078
18.4293
18.3418
18.2267
17.9219
17.5688
17.2597
16.9485
16.6016
16.2434
15.9703
15.832
15.781
15.8004
15.801
15.8037
15.7967
15.8025
15.7848
15.7855
15.758
15.7011
15.6155
15.523
15.4235
15.337
15.243
15.1721
15.0456
14.8907
14.7392
14.5934
14.3969
14.1941
13.9731
13.7195
13.4024
13.0844
12.7837
12.5528
12.3623
12.1912
11.9611
11.6937
11.3497
10.9374
10.4571
9.95366
9.40804
8.84349
8.24527
7.64268
7.03189
6.44213
5.85894
5.28657
4.69826
4.09998
3.47831
2.84913
2.20662
1.5688
0.927954
0.312613
12.5341
12.4309
12.594
12.958
13.3174
13.8099
14.2735
14.9263
15.4169
16.0804
16.6078
17.1591
17.4939
17.7163
18.0482
18.3468
18.6641
19.0184
19.2567
19.5952
19.9191
20.3291
20.7114
21.0382
21.2491
21.4048
21.3995
21.2471
21.1698
21.1153
20.911
20.5637
20.2803
19.9827
19.5349
19.0203
18.6376
18.4663
18.3891
18.2764
17.9571
17.6
17.2912
16.9831
16.6373
16.2749
16.0009
15.8631
15.8158
15.8336
15.8347
15.8378
15.8315
15.8351
15.8109
15.8085
15.7774
15.7148
15.6228
15.5289
15.4225
15.335
15.239
15.1682
15.0327
14.8699
14.7119
14.561
14.3607
14.1573
13.9385
13.6881
13.3687
13.0491
12.7471
12.5226
12.3398
12.1734
11.9444
11.6747
11.3256
10.9109
10.4315
9.9264
9.37618
8.80609
8.20307
7.59994
6.99395
6.41281
5.8368
5.26712
4.67812
4.07811
3.45541
2.82697
2.18706
1.55341
0.918586
0.30857
12.5564
12.4572
12.6209
12.9785
13.3372
13.8172
14.2751
14.9141
15.4013
16.0695
16.5949
17.1453
17.4741
17.7128
18.0478
18.3404
18.6492
18.9929
19.2266
19.5622
19.8902
20.3051
20.6899
21.0166
21.2342
21.3889
21.3835
21.2508
21.1885
21.1394
20.9329
20.595
20.3193
20.012
19.553
19.0385
18.669
18.5043
18.436
18.3231
17.9876
17.6285
17.3222
17.0167
16.6711
16.3069
16.034
15.8978
15.8557
15.8716
15.8737
15.8772
15.8714
15.8707
15.8398
15.835
15.799
15.729
15.6314
15.5362
15.4218
15.3322
15.2336
15.1608
15.0167
14.8462
14.6806
14.5248
14.3196
14.1205
13.9031
13.653
13.3287
13.0103
12.7115
12.4958
12.3196
12.1529
11.9231
11.6507
11.2965
10.8807
10.4023
9.89432
9.3394
8.76445
8.15871
7.55736
6.95841
6.38593
5.81514
5.24644
4.65613
4.0548
3.43188
2.80498
2.1682
1.53892
0.909738
0.305106
12.5772
12.4817
12.6466
12.997
13.3566
13.8243
14.2778
14.9035
15.3866
16.0581
16.5831
17.1319
17.4553
17.71
18.0437
18.3343
18.6365
18.9673
19.1995
19.5318
19.8623
20.2805
20.6686
20.996
21.222
21.3748
21.3699
21.2556
21.2082
21.165
20.953
20.625
20.3568
20.0384
19.5708
19.059
18.7
18.5433
18.4794
18.3622
18.0108
17.6514
17.3489
17.045
16.6978
16.3343
16.0643
15.9314
15.8942
15.908
15.9114
15.9145
15.9072
15.9018
15.8669
15.859
15.8178
15.7396
15.638
15.5415
15.4202
15.3264
15.2288
15.1512
14.9994
14.821
14.6494
14.4876
14.2761
14.0855
13.8673
13.6146
13.2873
12.9716
12.6791
12.4738
12.3033
12.1309
11.8983
11.6232
11.2645
10.8485
10.3702
9.859
9.30022
8.72162
8.11507
7.51734
6.92638
6.36115
5.79353
5.22479
4.63328
4.03135
3.40906
2.78432
2.15095
1.52598
0.901885
0.302347
12.5994
12.5073
12.6742
13.0178
13.3774
13.8322
14.2824
14.8939
15.3717
16.0452
16.5723
17.1174
17.4356
17.7081
18.0363
18.3274
18.6237
18.9388
19.1706
19.5002
19.8327
20.254
20.6448
20.9755
21.2073
21.3625
21.3592
21.2616
21.2305
21.1926
20.9747
20.6546
20.3929
20.0602
19.5876
19.0808
18.7307
18.5846
18.521
18.3953
18.029
17.6719
17.3735
17.0708
16.7222
16.3622
16.0985
15.9701
15.9375
15.9499
15.9543
15.9564
15.9464
15.9379
15.8992
15.8863
15.8378
15.7499
15.6448
15.5475
15.419
15.3176
15.2206
15.1375
14.9792
14.7916
14.6162
14.448
14.2342
14.0492
13.8275
13.5668
13.2398
12.9299
12.6496
12.4559
12.2902
12.1084
11.8695
11.5902
11.2285
10.8128
10.3332
9.81899
9.25703
8.67661
8.07125
7.4793
6.89676
6.33721
5.77125
5.20204
4.60974
4.00801
3.3871
2.76503
2.13523
1.51448
0.894879
0.30019
12.6201
12.5313
12.6998
13.0379
13.3972
13.8398
14.2882
14.8855
15.3578
16.0325
16.5638
17.1033
17.4171
17.7072
18.0284
18.3216
18.6106
18.911
19.1425
19.4713
19.8048
20.2299
20.6213
20.9582
21.1918
21.3527
21.3518
21.2686
21.2558
21.2204
20.9974
20.6833
20.4264
20.0785
19.6058
19.1029
18.7635
18.6245
18.5584
18.4201
18.0404
17.6875
17.3927
17.0904
16.7416
16.386
16.1302
16.0082
15.9783
15.9895
15.9935
15.9946
15.9825
15.972
15.929
15.9093
15.8533
15.7564
15.6495
15.5519
15.4173
15.3056
15.208
15.1206
14.9577
14.7599
14.582
14.4096
14.196
14.0113
13.7878
13.5174
13.1918
12.8905
12.6261
12.4413
12.2787
12.0859
11.839
11.5546
11.1911
10.7754
10.2934
9.77694
9.21285
8.63239
8.02971
7.44463
6.86947