/*--------------------------------*- C++ -*----------------------------------*\
| =========                 |                                                 |
| \\      /  F ield         | OpenFOAM: The Open Source CFD Toolbox           |
|  \\    /   O peration     | Version:  4.1                                   |
|   \\  /    A nd           | Web:      www.OpenFOAM.org                      |
|    \\/     M anipulation  |                                                 |
\*---------------------------------------------------------------------------*/
FoamFile
{
    version     2.0;
    format      ascii;
    class       surfaceScalarField;
    location    "14";
    object      phi;
}
// * * * * * * * * * * * * * * * * * * * * * * * * * * * * * * * * * * * * * //

dimensions      [0 3 -1 0 0 0 0];

internalField   nonuniform List<scalar> 
52920
(
1771.36
-69.2628
1825.75
-56.5187
1877.94
-51.5951
1925.36
-49.6184
1974.72
-47.1661
2026.64
-51.5847
2082.34
-58.6761
2151.37
-65.7146
2218.08
-70.5252
2291.66
-73.6908
2360.01
-75.2542
2437.38
-78.8362
2518.83
-84.0238
2598.68
-86.4507
2671.64
-75.9794
2732.57
-64.6554
2787.08
-58.2373
2843.8
-58.134
2903.21
-63.2316
2973.67
-72.2507
3048.17
-79.754
3130.65
-85.7851
3213.1
-90.3753
3306.54
-97.381
3404.41
-107.01
3520.04
-118.759
3639.35
-125.57
3757.4
-124.465
3868.19
-117.916
3972.6
-110.757
4071.6
-105.417
4166.47
-102.479
4260.89
-101.54
4355.47
-101.381
4450.18
-100.881
4542
-99.0409
4631.9
-95.9199
4716.95
-91.9399
4799.84
-88.3665
4879.04
-85.8254
4958.28
-84.341
5034.76
-82.9308
5111.04
-81.3093
5184.76
-78.8923
5257.16
-75.6366
5323.03
-71.5964
5380.57
-67.7782
5449.27
-67.2659
5510.14
-66.6261
5579.99
-68.7132
5647.05
-70.6731
5721.32
-73.6671
5794.79
-75.6123
5872.59
-77.4719
5950.65
-79.0138
6031.63
-80.8104
6113.39
-82.1732
6196.19
-83.075
6279.98
-83.9014
6364.25
-84.8787
6450.88
-86.5952
6538.72
-88.7371
6630
-91.3454
6722.54
-93.6436
6818.09
-95.708
6914.12
-97.2295
7012.38
-98.5914
7110.78
-99.7021
7211.15
-100.759
7311.36
-101.396
7412.31
-101.659
7512.57
-101.413
7612.41
-100.834
7711.37
-99.9972
7809.14
-99.0269
7906.4
-98.1501
8002.37
-97.4811
8098.9
-97.2942
8194.8
-97.5967
8292.73
-98.5414
8390.76
-99.9351
8492.03
-101.692
8593.41
-103.468
8698.2
-104.992
8801.99
-106.077
8908.45
-106.517
9012.79
-106.573
9119.1
-106.142
9222.68
-105.728
9328.11
-105.065
9430.87
-104.707
9535.65
-104.192
9637.99
-104.106
9742.56
-103.823
9845.1
-104.031
9950
-103.969
10053.3
-104.584
10159.9
-105.646
10264.3
-105.437
-96.1597
1906.05
-149.6
1967.28
-119.624
2026.08
-108.765
2079.46
-103.511
2138.63
-102.437
2200.76
-112.823
2268.46
-129.495
2350.27
-144.057
2428.72
-153.231
2515.07
-160.518
2596.7
-164.361
2689.6
-172.812
2788.5
-184.846
2885.46
-189.971
2974.89
-168.344
3051.55
-145.306
3123.77
-134.426
3200.76
-136.825
3283.02
-149.555
3377.4
-168.499
3475.47
-183.594
3580.56
-194.932
3684.3
-203.722
3797.82
-216.597
3914.15
-234.557
4046.28
-255.684
4179.75
-266.693
4310.04
-262.453
4431.69
-248.232
4546.27
-233.213
4655.17
-222.386
4760.1
-216.697
4864.73
-214.918
4969.78
-214.695
5075.11
-213.711
5177.83
-210.234
5278.79
-204.115
5375.25
-196.327
5469.83
-189.384
5561.07
-184.394
5652.44
-181.413
5741.17
-178.568
5829.56
-175.201
5915.27
-170.301
5999.35
-163.653
6076.81
-155.469
6145.78
-147.943
6224.46
-145.448
6294.64
-143.447
6372.01
-145.656
6445.23
-148.036
6523.64
-151.832
6599.6
-153.932
6677.91
-155.573
6754.67
-156.771
6832.39
-158.362
6909.12
-159.226
6985.08
-159.214
7060.29
-159.014
7134.16
-159.136
7208.45
-160.51
7281.9
-162.739
7356.69
-165.784
7430.8
-168.453
7506.18
-170.787
7580.46
-172.277
7655.58
-173.64
7729.6
-174.602
7804.52
-175.656
7878.31
-175.95
7952
-175.591
8024.19
-174.276
8095.22
-172.324
8164.62
-169.871
8232.05
-167.085
8298.06
-164.407
8361.73
-161.938
8424.64
-160.239
8485.39
-159.22
8546.41
-159.367
8605.7
-160.23
8666.41
-162.031
8725.57
-163.882
8786.67
-165.684
8845.54
-166.545
8905.97
-166.576
8963.32
-165.627
9021.77
-164.141
9076.7
-162.41
9132.77
-160.611
9185.54
-159.141
9239.82
-157.845
9291.33
-157.202
9344.94
-156.724
9396.6
-157.042
9451.09
-157.589
9503.76
-158.392
9561.32
-162.409
9618.79
-163.752
-161.349
2048.54
-238.661
2120.24
-193.647
2191.98
-179.957
2261.59
-176.395
2338.59
-178.089
2419.04
-193.477
2503.69
-217.08
2599.38
-236.669
2691.16
-248.626
2790.04
-259.36
2885.41
-266.049
2991.44
-280.248
3103.05
-298.865
3212.77
-305.477
3314.85
-273.07
3405.54
-239.313
3492.58
-225.077
3583.59
-229.301
3677.83
-247.508
3780
-272.484
3881.54
-290.233
3985.1
-301.413
4083.02
-308.735
4185.13
-321.809
4285.26
-342.802
4396.22
-368.998
4506.51
-382.597
4613.41
-374.982
4712.71
-353.947
4806.07
-332.243
4894.46
-316.522
4979.21
-308.264
5063.79
-305.859
5149.3
-306.309
5236.01
-305.959
5321.46
-302.283
5406.44
-294.5
5487.85
-284.105
5567.3
-273.845
5642.71
-266.096
5717.2
-260.709
5788.16
-255.752
5857.85
-249.662
5924.01
-241.388
5987.55
-230.014
6042.93
-216.169
6086.98
-202.588
6137.17
-193.163
6174.38
-186.6
6214.66
-184.046
6246.44
-183.659
6279.93
-184.252
6307.55
-183.923
6334.56
-182.001
6356.71
-180.034
6376.86
-178.273
6393.19
-176.1
6406.2
-172.64
6415.98
-169.031
6421.66
-165.799
6424.98
-163.932
6424.24
-163.499
6422.25
-164.095
6417.2
-165.316
6412.27
-166.334
6405.22
-167.317
6398.97
-168.131
6391.41
-169.364
6385.39
-170.501
6378.53
-171.312
6372.3
-170.812
6364.83
-169.072
6356.5
-166.024
6346.6
-162.098
6334.56
-157.649
6320.99
-152.803
6304.34
-148.477
6286.42
-144.084
6264.61
-141.071
6241.72
-137.964
6214.29
-137.004
6186.88
-135.678
6155.28
-136.888
6125.16
-136.093
6090.62
-137.026
6057.87
-133.994
6020.01
-132.736
5983.79
-127.612
5942.16
-125.592
5902.73
-120.516
5858.78
-119.549
5818.31
-116.328
5774.99
-117.816
5737.23
-117.657
5699.03
-122.115
5669.01
-125.937
5640.52
-132.594
5619.78
-140.181
5607
-152.928
-182.139
2193.48
-329.577
2275.82
-276.824
2359.43
-261.487
2441.83
-258.403
2530.25
-262.537
2619.96
-282.128
2711.11
-310.66
2810.22
-332.711
2904.37
-346.486
3004.03
-359.4
3099.24
-368.061
3202.54
-384.876
3309.28
-407.927
3413.2
-415.381
3508.29
-370.922
3590.61
-325.069
3665.76
-303.409
3738.58
-303.258
3806.2
-318.492
3872.26
-339.927
3928.5
-352.171
3977.94
-354.838
4012.68
-353.451
4042.19
-357.685
4060.63
-373.691
4084.93
-399.222
4108.28
-415.248
4131.82
-408.019
4152.96
-386.061
4173.64
-363.022
4194.07
-347.425
4214.91
-341.025
4240.08
-342.334
4271.62
-348.6
4310.51
-354.654
4354.31
-357.084
4404.06
-353.746
4455.77
-346.128
4509.5
-336.096
4561.03
-327.226
4613.16
-320.427
4662.99
-314.629
4713.29
-307.213
4761.56
-297.169
4808.63
-282.294
4846.81
-263.013
4870.69
-241.878
4899.88
-221.502
4909.99
-206.077
4920.32
-193.607
4916.2
-185.523
4910.89
-178.423
4895.6
-172.138
4877.77
-163.707
4852.1
-155.887
4822.59
-148.425
4787.14
-141.173
4746.54
-132.35
4701.04
-123.357
4649.28
-114.809
4593.66
-107.63
4531.77
-102.757
4468.15
-99.8044
4400.76
-99.4234
4335.1
-100.145
4268.47
-102.401
4205.96
-105.607
4144.67
-110.218
4089.23
-115.169
4036.08
-120.118
3987.53
-122.925
3940.5
-123.764
3895.27
-121.887
3850.66
-118.646
3805.68
-114.104
3761.54
-109.182
3715.74
-104.464
3671.5
-99.7325
3624.27
-95.8488
3578.81
-91.7234
3529.06
-89.6373
3483.47
-88.7694
3435.17
-91.673
3394.86
-94.4484
3352.24
-98.5134
3318.54
-99.2643
3281.55
-100.171
3253.32
-98.3759
3221.66
-98.528
3200
-97.9221
3176.85
-100.732
3165.59
-104.057
3155.12
-111.387
3158.3
-119.756
3164.5
-131.698
3185.07
-145.149
3210.66
-160.999
3247.56
-176.002
3296.92
-204.013
-243.754
2321.11
-429.606
2409.87
-367.35
2497.4
-349.296
2580.77
-344.922
2665.89
-346.441
2747.96
-364.351
2827.5
-392.676
2911.28
-413.636
2987.48
-426.147
3066.07
-437.818
3136.86
-445.129
3211.39
-460.979
3285.86
-485.147
3356.57
-492.138
3417.68
-434.995
3463.65
-374.578
3496.51
-340.339
3516.9
-325.277
3518.56
-324.74
3505.62
-329.558
3470.96
-324.648
3419.62
-307.589
3342.28
-286.743
3249.93
-269.934
3136.59
-273.82
3030.25
-296.573
2930.69
-325.32
2844.72
-332.108
2770.74
-323.597
2711.19
-313.679
2665.46
-311.929
2632.95
-320.669
2617.59
-338.195
2620.71
-362.324
2641.81
-385.261
2675.97
-402.446
2723.97
-410.865
2780.47
-413.237
2844.72
-408.665
2909.38
-402.264
2976.9
-395.849
3043.41
-391.302
3112.81
-384.381
3182.07
-374.358
3252.2
-356.918
3312.61
-332.157
3356.1
-302.625
3408.61
-269.609
3437.67
-244.743
3468.57
-221.193
3480.85
-204.173
3492.15
-187.872
3490.68
-174.636
3486.77
-158.787
3473.26
-144.303
3456.04
-130.86
3432.23
-118.385
3402.63
-103.628
3367.32
-88.6006
3324.32
-73.7776
3277.17
-60.8697
3223.09
-51.7125
3169.19
-46.8186
3112.67
-46.8084
3060.91
-49.6497
3009.38
-55.1144
2964.81
-62.8633
2922.98
-73.11
2890.05
-84.3138
2860.72
-95.4453
2837.91
-103.366
2817.35
-108.085
2799.35
-108.283
2782.32
-106.362
2764.95
-102.237
2749.1
-97.8797
2731.6
-93.553
2717.46
-89.882
2701.66
-87.4283
2691.84
-85.7397
2681.18
-86.966
2680.77
-91.3772
2681.45
-100.418
2694.78
-109.849
2707.12
-118.854
2729.64
-123.218
2747.99
-125.789
2774.35
-125.403
2795.77
-126.489
2825.42
-127.674
2851.6
-132.473
2886.83
-138.839
2920.12
-149.436
2963.12
-161.903
3005.66
-178.02
3057.76
-195.918
3110.93
-217.222
3172.86
-236.752
3237.97
-270.906
-315.385
2402.54
-517.83
2483.77
-448.403
2560.69
-423.26
2630.68
-413.497
2697.69
-408.612
2755.19
-420.223
2803.01
-442.493
2848.62
-455.843
2881.15
-462.57
2911.4
-468.362
2928.92
-470.653
2945.8
-480.218
2960.52
-503.923
2974.81
-514.287
2984.98
-449.128
2983.81
-377.639
2969.02
-329.145
2935.37
-292.393
2871.29
-265.055
2784
-243.894
2668.36
-219.582
2533.81
-181.111
2367.38
-141.517
2187.75
-103.956
1990.5
-104.338
1826.23
-144.842
1695.08
-214.029
1601.54
-259.425
1536.23
-281.531
1497.58
-295.972
1481.13
-316.475
1482.88
-345.86
1505.12
-382.159
1546.17
-423.399
1602.82
-459.927
1667.16
-486.525
1740.37
-500.985
1816.7
-507.583
1897.71
-504.531
1976.09
-497.029
2056.18
-488.905
2133.35
-483.597
2213.12
-476.224
2292.27
-465.766
2372.42
-445.785
2440.66
-414.681
2489.32
-375.955
2553.08
-332.467
2592.5
-298.965
2639.7
-267.492
2669.12
-243.002
2702.17
-220.35
2723.67
-201.568
2745.06
-179.582
2757.15
-158.768
2767.23
-140.517
2771.38
-123.298
2769.79
-102.516
2762.22
-80.7235
2746.41
-59.0527
2726.35
-39.7326
2698.89
-25.8201
2671.98
-18.7371
2641.83
-18.6232
2616
-22.8252
2588.84
-30.2002
2567.36
-41.2313
2546.86
-55.6206
2533.89
-71.3903
2522.52
-86.7444
2515.93
-97.3899
2509.5
-103.705
2503.77
-103.446
2497.07
-100.633
2488.39
-94.7032
2479.67
-89.0383
2467.91
-83.2318
2458.51
-79.3281
2446.84
-77.3052
2441.21
-78.0621
2435.1
-82.843
2440.14
-93.9161
2447.29
-110.519
2467.67
-128.163
2487.42
-142.802
2516.93
-151.392
2542.25
-155.72
2574.95
-157.092
2602.8
-159.158
2638.25
-162.348
2670.21
-168.991
2710.45
-178.321
2748.53
-191.752
2795.43
-207.991
2841.54
-227.701
2896.4
-249.685
2951.44
-275.269
3015.06
-299.525
3079.85
-337.43
-387.18
2384.17
-598.253
2454.91
-521.295
2519.42
-488.145
2571.89
-470.198
2611.45
-447.403
2627.83
-437.24
2621.23
-439.011
2603.16
-434.409
2565.76
-429.654
2523.97
-426.243
2468.18
-423.641
2413.38
-427.558
2361.62
-455.652
2322.79
-483.845
2296.65
-427.166
2274.3
-360.881
2249.67
-311.909
2211.78
-258.036
2140.87
-203.644
2048.17
-157.073
1927.8
-114.679
1795.64
-58.6077
1634.39
-3.75893
1480.34
40.5097
1329.32
21.8833
1243.05
-64.0046
1199.82
-185.023
1190.54
-265.011
1196.86
-304.055
1215.24
-328.424
1241.53
-356.522
1273.36
-393.941
1315.7
-439.295
1368.38
-489.773
1429.26
-533.123
1490.96
-562.645
1556.11
-577.869
1619.9
-585.025
1686.19
-581.704
1748.44
-572.9
1812.26
-563.223
1872.75
-557.57
1936.57
-550.367
2000.5
-539.903
2066.56
-517.507
2120.25
-479.848
2153.03
-431.616
2205.17
-378.33
2232.03
-338.201
2271.16
-301.924
2293.56
-273.705
2323.75
-248.029
2344.33
-227.253
2367.91
-201.829
2383.77
-177.095
2399.88
-156.298
2411.41
-136.203
2417.91
-110.269
2418.75
-82.414
2411.58
-54.4943
2400.47
-29.3591
2381.5
-10.9243
2363.46
-2.22602
2342
-2.483
2324.95
-7.76982
2306.18
-16.9777
2293.23
-30.8534
2281.06
-49.6746
2276.55
-69.7993
2273.33
-89.7972
2274.85
-103.378
2276.15
-111.656
2277.83
-111.108
2278.12
-107.508
2275.75
-99.7403
2272.7
-92.3614
2265.78
-84.9614
2260.91
-80.5885
2253.04
-79.0334
2250.53
-81.1638
2246.78
-88.9587
2254.24
-105.803
2264
-129.601
2287.36
-154.57
2310.16
-174.31
2342.76
-186.091
2371.37
-191.943
2407.62
-194.476
2439.39
-197.602
2478.95
-202.331
2515.19
-210.805
2559.56
-222.472
2601.6
-238.504
2652.02
-257.726
2701.24
-280.614
2758.67
-305.905
2815.48
-335.044
2880.2
-363.17
2945.28
-404.088
-458.417
2295.43
-654.893
2351.26
-575.844
2396.56
-528.929
2419.69
-490.719
2415.61
-436.596
2372.32
-391.365
2293.99
-362.913
2200.81
-336.193
2089.23
-323.715
1981.1
-318.392
1866.35
-321.836
1763.72
-329.543
1676.87
-376.474
1621.38
-442.051
1595.25
-408.454
1585.97
-358.998
1584.39
-316.533
1577.88
-252.241
1543.43
-175.973
1495.46
-111.744
1423.73
-61.8469
1346.36
4.23262
1240.78
68.8027
1147.2
115.679
1055.12
79.032
1024.15
-47.5233
1029.64
-212.644
1061.04
-320.309
1099.07
-368.078
1139.56
-392.159
1179.11
-419.165
1216.91
-457.669
1260.03
-506.508
1309.87
-561.753
1365.23
-608.597
1419.6
-639.099
1476.36
-653.89
1530.89
-660.113
1586.95
-655.061
1637.53
-642.559
1688.52
-629.634
1736.02
-623.017
1788.07
-616.892
1841.5
-608.013
1897.9
-584.666
1941.49
-541.309
1963.15
-483.745
2006.66
-421.478
2023.46
-373.566
2054.14
-332.027
2066.82
-298.461
2089.28
-270.279
2104
-248.899
2125.12
-222.507
2140.56
-195.552
2158.31
-173.741
2172.22
-150.991
2181.08
-119.691
2184.38
-85.2344
2179.53
-50.8104
2170.43
-18.8271
2152.61
5.24108
2136.28
15.8302
2117.66
14.0325
2104.71
6.67177
2090.1
-4.89706
2081.53
-21.9857
2073.39
-45.2113
2073.24
-69.4661
2074.48
-93.9848
2081.21
-110.165
2088.05
-120.256
2095.57
-118.712
2101.49
-113.61
2104.25
-102.717
2105.92
-92.798
2103.38
-82.8711
2102.76
-77.4938
2098.18
-75.0784
2097.93
-77.6148
2095.74
-88.0835
2104.93
-111.639
2116.92
-144.244
2142.91
-178.113
2168.74
-204.232
2204.55
-220.439
2236.89
-228.926
2277.12
-233.725
2313.29
-238.701
2357.2
-245.573
2397.76
-256.071
2446.02
-270.115
2491.59
-288.466
2544.93
-310.387
2596.56
-335.948
2655.76
-364.113
2713.67
-396.068
2778.72
-427.447
2843.53
-470.633
-527.903
2123.96
-692.705
2155.65
-610.1
2174.08
-548.665
2163.98
-486.197
2120.81
-392.203
2031.98
-303.748
1905.33
-241.335
1770.49
-195.889
1623.95
-185.043
1493.45
-187.673
1363.09
-206.721
1255.14
-225.08
1171.32
-297.838
1127
-410.869
1111.65
-399.775
1113.07
-369.832
1122.21
-338.856
1134
-270.17
1130.61
-187.6
1115.62
-106.049
1067.22
-34.8494
1010.14
47.8952
927.576
121.073
862.66
170.858
801.403
116.327
805.887
-55.2355
847.742
-266.179
910.376
-395.849
971.985
-443.826
1028.57
-461.043
1078.28
-480.911
1121.54
-515.686
1166.79
-565.245
1216.23
-623.74
1269.22
-672.984
1320.49
-704.063
1374.48
-719.081
1426.15
-725.136
1478.12
-717.846
1522.94
-701.285
1567.29
-684.903
1608.21
-678.204
1654.28
-673.942
1702.61
-667.052
1754.77
-642.58
1793.81
-592.942
1810.07
-525.346
1849.95
-453.268
1860.89
-398.032
1884.96
-349.971
1887.81
-310.77
1902.23
-281.537
1912.93
-265.364
1934.15
-242.08
1948.97
-213.176
1964.65
-189.137
1976.49
-164.443
1984.52
-129.339
1987.89
-89.6885
1982.73
-48.8731
1972.41
-9.54181
1952.3
20.2332
1935.76
30.214
1919.98
22.9734
1911.41
12.4109
1900.25
-0.896517
1894.68
-19.8063
1888.67
-47.408
1891.19
-75.9518
1895.87
-107.031
1907.59
-127.857
1920.24
-141.74
1933.67
-140.01
1945.12
-133.773
1953
-120.07
1959.69
-107.934
1961.78
-95.8145
1965.36
-89.2441
1963.36
-84.8687
1964.87
-86.5014
1964.06
-98.7728
1975.11
-128.297
1989.63
-169.038
2018.68
-210.93
2047.92
-242.638
2087.36
-262.38
2123.6
-272.991
2167.88
-279.361
2208.15
-285.694
2255.98
-293.916
2300.14
-305.801
2351.53
-321.332
2399.77
-341.365
2455.28
-365.223
2508.61
-392.902
2569.03
-423.293
2627.6
-457.509
2692.64
-491.374
2756.96
-536.401
-595.123
1842.79
-674.233
1846.26
-610.926
1852.41
-547.823
1838.33
-467.528
1798.63
-341.317
1716.34
-216.744
1597.56
-125.892
1476.22
-66.1436
1342.06
-59.8157
1226
-71.9246
1104.31
-105.327
1003.53
-131.834
923.822
-229.973
882.074
-389.54
862.232
-391.861
858.718
-377.87
864.423
-354.277
874.282
-280.234
870.9
-191.767
857.444
-96.9216
806.635
-9.64531
746.793
88.8707
669.024
160.216
626.285
194.496
598.04
108.929
640.866
-112.381
716.61
-363.734
803.188
-506.946
879.368
-546.597
943.809
-549.183
997.502
-558.126
1042.3
-587.189
1087.31
-635.123
1134.75
-694.041
1184.42
-743.58
1232.5
-775.182
1284.28
-791.159
1333.31
-795.881
1380.91
-784.063
1420.89
-761.869
1461.54
-742.428
1498.76
-734.982
1539.98
-731.124
1583.31
-726.699
1631.58
-703.32
1666.96
-648.916
1678.93
-572.271
1716.11
-490.735
1721.51
-425.382
1738.71
-367.155
1733.44
-320.206
1746.23
-294.73
1756.81
-284.413
1773
-258.21
1779.63
-223.567
1790.5
-199.957
1801.3
-176.321
1809.34
-138.132
1812.49
-92.2599
1806.89
-44.6346
1796.08
2.97553
1774.84
39.5528
1760.2
47.1248
1748.51
32.3549
1742.54
20.1946
1730.69
7.6231
1723.23
-11.9479
1714.7
-43.3704
1716.83
-77.261
1723.48
-116.75
1739.69
-143.161
1757.76
-161.049
1777
-158.26
1794.29
-150.327
1808.05
-133.039
1820.6
-118.141
1827.89
-102.645
1835.4
-93.1114
1836.23
-85.4835
1840.53
-86.5386
1842.76
-101.764
1857.42
-139.098
1876.05
-190.108
1909.29
-241.523
1942.75
-280.087
1986.32
-304.395
2026.77
-318.042
2075.16
-326.724
2119.45
-334.894
2170.93
-344.727
2218.38
-357.979
2272.55
-374.902
2323.17
-396.405
2380.64
-422.013
2435.55
-451.516
2497.07
-483.797
2556.21
-519.737
2621.03
-555.377
2684.58
-601.629
-660.225
1445.85
-668.503
1468.57
-637.36
1503
-584.355
1521.5
-494.907
1519.02
-338.078
1475.66
-176.418
1393.85
-52.218
1306.06
29.095
1195.91
39.296
1098.29
25.8297
984.523
-11.4816
882.901
-34.1359
796.256
-148.324
748.541
-356.643
718.34
-369.594
703.753
-376.479
696.279
-367.366
693.606
-286.855
679.24
-197.941
654.995
-85.3698
588.889
28.2417
525.822
135.09
465.787
187.749
454.328
197.952
462.938
79.3329
537.687
-188.045
635.099
-470.309
733.511
-616.22
815.048
-640.39
881.487
-626.365
936.041
-623.302
980.572
-645.201
1023.9
-690.791
1068.23
-749.868
1114.32
-800.089
1159.91
-833.477
1209.8
-851.328
1255.25
-853.987
1297.81
-837.053
1334.55
-812.378
1373.93
-792.662
1408.01
-783.557
1442.66
-776.869
1478.91
-773.546
1522.36
-751.933
1554.7
-693.914
1563.84
-608.504
1599.13
-515.768
1599.66
-440.152
1612.8
-372.372
1605.38
-322.82
1618.62
-303.927
1623.83
-295.919
1629.96
-262.29
1627.57
-224.247
1634.53
-206.641
1644.44
-188.025
1651.99
-147.689
1655.37
-96.9113
1650.44
-43.5798
1639.4
12.6692
1617.4
55.2326
1606.59
55.0481
1598.76
31.5566
1591.33
23.6911
1573.98
15.3102
1561.88
-4.59358
1550.72
-43.3229
1554.54
-86.5086
1565.81
-138.839
1588.91
-173.885
1614.1
-197.301
1640.43
-194.292
1664.3
-185.054
1684.35
-164.579
1702.73
-147.123
1714.87
-127.761
1726.13
-114.571
1729.96
-102.91
1736.83
-102.305
1741.42
-119.089
1758.74
-162.924
1780.5
-222.804
1817.17
-282.451
1854.35
-326.746
1901.84
-354.645
1946.37
-370.509
1998.81
-380.631
2046.94
-389.756
2101.86
-400.208
2152.26
-413.923
2208.92
-431.417
2261.67
-453.757
2320.88
-480.52
2377.1
-511.258
2439.34
-544.723
2498.48
-581.63
2562.38
-618.088
2624.31
-664.894
-722.643
1165.05
-666.686
1202.09
-670.292
1254.07
-626.552
1292.45
-526.459
1309.81
-339.421
1287.05
-147.226
1228.95
2.04522
1166.35
102.194
1075.05
119.27
993.005
107.544
887.145
69.9995
784.073
59.9333
689.029
-67.1325
636.333
-327.651
599.373
-348.277
576.997
-369.851
558.082
-362.076
545.994
-274.589
523.875
-185.195
487.987
-58.5286
405.871
76.9424
347.488
173.364
316.59
181.028
336.127
159.521
374.718
6.30258
468.585
-295.688
575.272
-597.784
676.819
-742.042
759.213
-749.279
826.497
-717.091
882.152
-702.255
926.199
-716.07
966.999
-756.62
1007.94
-813.893
1051.61
-864.911
1095.99
-901.153
1143.63
-919.687
1185.01
-917.681
1224.06
-895.52
1259.28
-869.087
1296.52
-847.68
1325.38
-833.107
1352.91
-821.485
1382.76
-820.983
1422.15
-805.053
1452.3
-746.919
1459.23
-654.397
1493.53
-551.116
1491.37
-463.575
1504.13
-386.113
1495.82
-331.536
1505.57
-314.835
1504.1
-304.558
1505.74
-264.488
1500.05
-223.126
1504.86
-211.852
1513.11
-197.657
1518.9
-154.602
1521.73
-99.2024
1516.51
-40.0844
1503.12
27.8428
1482.16
73.7284
1478.06
61.9177
1467.71
39.1776
1450.47
42.7983
1423.48
37.685
1406.14
13.6791
1394.8
-37.0123
1403.11
-92.8608
1420.14
-158.61
1449.45
-201.167
1479.64
-228.044
1510.34
-222.987
1537.59
-210.756
1561.13
-186.369
1582.92
-165.682
1599.02
-142.481
1614.72
-125.721
1623.66
-110.847
1635.52
-109.21
1645
-128.921
1667
-180.808
1693.48
-251.614
1734.87
-321.116
1776.97
-372.711
1829.39
-405.395
1878.83
-424.388
1935.79
-436.432
1987.95
-446.672
2046.19
-457.676
2099.39
-471.746
2158.38
-489.711
2213.11
-512.761
2273.79
-540.355
2330.82
-571.804
2393.01
-605.751
2451.25
-642.822
2513.32
-679.277
2573.02
-726.223
-782.819
948.882
-688.297
992.798
-719.192
1051.37
-689.109
1097.22
-585.025
1125.85
-368.544
1120.67
-147.038
1079.38
33.9835
1034.48
155.041
960.117
179.29
893.04
174.2
795.104
142.87
691.948
158.763
589.934
30.7512
533.641
-286.422
493.263
-316.82
466.664
-360.553
438.621
-360.851
418.162
-267.574
389.883
-183.139
338.832
-24.2485
244.382
133.42
204.929
195.498
206.796
149.611
253.895
106.058
312.129
-69.7692
414.215
-396.972
522.711
-713.408
623.769
-852.318
706.493
-842.801
775.52
-795.492
832.694
-768.786
875.785
-771.584
913.681
-805.923
952.058
-862.91
995.001
-917.426
1038.52
-956.576
1082.56
-973.345
1120.41
-967.683
1158.35
-943.532
1191.04
-915.373
1222.73
-890.275
1246.54
-871.894
1270.79
-857.165
1297.68
-858.452
1334.57
-846.655
1362.69
-787.9
1366.92
-687.007
1400.42
-571.977
1397.94
-475.493
1411.49
-389.751
1401.46
-331.284
1406.82
-315.059
1401.65
-305.606
1402.97
-263.299
1396.12
-219.316
1399.07
-214.466
1405.23
-205.672
1408.45
-160.151
1409.5
-101.631
1401.84
-36.899
1384.93
43.1545
1366.27
84.7134
1363.25
61.0976
1341.32
50.3693
1313.55
65.2912
1281.57
56.9437
1264.62
24.3131
1258.23
-43.9939
1273.62
-114.774
1296.75
-193.942
1331.87
-244.899
1367.01
-275.569
1402.7
-269.505
1434.46
-254.847
1462.81
-227.56
1489.16
-204.273
1509.86
-177.742
1529.57
-157.331
1541.62
-138.106
1555.33
-133.163
1566.09
-153.511
1590.22
-212.223
1620.4
-293.263
1666.85
-372.252
1714.74
-430.279
1772.99
-466.606
1827.74
-487.12
1889.12
-499.379
1944.71
-508.976
2005.52
-519.145
2060.8
-532.52
2121.46
-550.252
2177.38
-573.189
2238.44
-600.639
2294.9
-631.661
2355.57
-665.007
2411.67
-701.551
2471.17
-737.565
2528.68
-784.978
-841.054
795.421
-707.857
841.081
-759.816
898.776
-734.696
946.987
-624.445
981.283
-384.068
985.593
-144.142
956.333
60.1193
921.496
199.558
858.022
227.158
804.57
226.112
713.721
203.919
610.526
251.807
503.276
122.774
446.491
-255.58
405.318
-294.996
373.711
-349.767
337.581
-341.083
310.767
-240.327
272.415
-159.898
197.369
35.6991
104.681
185.478
109.777
174.231
136.1
87.7527
199.155
22.9577
264.572
-169.13
366.922
-512.996
473.794
-840.382
573.42
-976.148
656.962
-952.909
728.311
-890.089
786.63
-850.27
828.365
-840.456
864.065
-867.09
901.252
-923.555
943.786
-981.358
985.02
-1021.57
1024.71
-1034.63
1060.06
-1026.25
1098.45
-1002.22
1130.21
-969.711
1158.12
-937.254
1178.61
-914.626
1201.92
-898.98
1228.24
-903.868
1263.14
-896.903
1287.89
-837.718
1288.1
-730.084
1320.64
-606.535
1316.44
-500.766
1329.02
-404.904
1317.37
-338.535
1321.25
-321.097
1315.01
-310.78
1316.07
-265.744
1308.38
-216.932
1310.84
-218.041
1315.96
-212.582
1316.91
-162.792
1315.98
-100.399
1304.49
-27.642
1286.58
62.7227
1266.84
101.204
1251.14
79.6997
1215.46
82.5034
1185
97.8545
1153.24
83.2008
1140.32
39.3581
1140.05
-48.0358
1160.55
-132.33
1186.67
-222.301
1224.49
-280.051
1261.91
-313.155
1300.21
-305.241
1334.33
-287.015
1365.42
-256.247
1394.53
-229.583
1418.61
-199.669
1441.9
-175.256
1457.36
-151.819
1473.81
-144.056
1487.63
-167.455
1516.65
-236.989
1553.87
-332.73
1608.34
-423.881
1664.07
-489.611
1728.95
-529.553
1788.86
-551.135
1853.77
-562.887
1911.78
-571.448
1974.31
-580.677
2031.06
-593.569
2092.73
-610.91
2148.85
-633.172
2208.93
-659.563
2263.44
-689.384
2321.65
-721.924
2375.51
-758.264
2433.26
-794.453
2490.27
-843.613
-899.053
689.663
-742.575
733.038
-809.555
786.268
-793.865
832.644
-688.619
868.499
-422.817
876.39
-159.211
855.899
70.6145
827.422
234.883
769.247
268.366
727.086
267.53
642.324
257.016
539.591
349.501
428.28
230.942
370.238
-212.35
329.038
-264.287
293.296
-338.053
250.843
-329.604
217.963
-224.035
163.252
-137.282
63.8254
113.738
-14.7182
225.135
39.5127
106.148
86.1147
15.7239
155.202
-50.6908
220.46
-249.547
320.968
-611.204
426.566
-951.337
525.565
-1082.71
610.45
-1047.04
683.981
-971.66
743.006
-917.579
784.015
-893.007
819.03
-912.669
855.249
-969.56
895.97
-1030.71
934.536
-1071.09
971.927
-1080.72
1006.56
-1072.19
1045.95
-1051.06
1078.96
-1016.03
1105.38
-974.424
1121.45
-945.756
1141.59
-930.329
1167.11
-939.359
1200.33
-933.844
1221.7
-871.191
1218.84
-756.189
1250.52
-623.091
1244.32
-508.576
1255.82
-404.317
1244
-335.405
1248.18
-318.931
1241.23
-309.377
1240.3
-261.724
1230.26
-209.61
1231.6
-218.867
1236.13
-218.79
1236.15
-165.345
1234.07
-99.6305
1217.84
-16.2658
1199.83
79.0314
1176.54
115.891
1145.78
105.725
1103.7
111.668
1077.61
117.134
1048.27
97.7195
1041.04
39.4862
1045.62
-66.7475
1068.24
-162.031
1094.86
-261.833
1134.13
-328.559
1173.69
-366.186
1215.06
-358.45
1252.25
-337.98
1286.68
-304.893
1318.97
-275.887
1346.18
-243.199
1372.11
-215.013
1388.97
-185.774
1406.08
-172.934
1422.24
-198.495
1457.39
-280.145
1503.52
-390.672
1567.06
-492.425
1630.29
-562.564
1700.34
-602.725
1763.35
-622.113
1829.79
-631.047
1888.68
-637.026
1951.92
-644.665
2009.23
-656.318
2070.62
-672.14
2125.15
-692.1
2182.48
-716.047
2233.97
-744.154
2289.9
-776.454
2342.83
-813.771
2400.98
-851.464
2459.69
-903.546
-957.444
617.221
-767.728
658.989
-845.9
706.979
-828.426
748.547
-720.176
780.92
-434.912
787.562
-158.527
772.566
82.9871
749.006
266.195
691.509
307.041
654.628
299.667
575.749
294.683
477.115
436.157
365.699
326.61
308.416
-182.267
268.862
-247.185
226.373
-323.102
175.086
-295.995
136.659
-186.7
56.6079
-82.5683
-38.5653
185.847
-64.7321
223.088
3.42546
22.8815
53.6544
-70.2504
117.012
-135.841
177.929
-344.193
277.107
-723.582
382.749
-1076.12
481.688
-1205.42
567.612
-1159.21
642.659
-1069.38
701.878
-999.523
742.553
-960.879
777.479
-973.18
811.756
-1027.24
849.622
-1089.83
887.236
-1132.74
924.959
-1140.78
959.314
-1130.35
998.142
-1110.57
1032.4
-1073.48
1060.17
-1022.18
1074.23
-983.213
1090.64
-966.223
1113.84
-982.653
1145.39
-981.717
1164.33
-916.848
1158.56
-796.214
1188.78
-656.299
1179.23
-532.431
1189.49
-419.151
1178.43
-344.849
1184.27
-328.065
1176.81
-314.385
1173.27
-260.549
1161.2
-203.595
1162.14
-221.904
1166.24
-225.203
1165.41
-166.918
1162.06
-96.3916
1139.79
3.15544
1127.1
93.2017
1103.51
135.646
1056.94
154.795
1011.42
152.518
992.151
139.347
964.574
120.308
960.587
46.5474
966.508
-76.3844
987.406
-179.664
1011.74
-288.434
1050.65
-364.601
1091.18
-406.923
1134.57
-398.934
1173.67
-374.931
1209.98
-338.201
1243.97
-305.508
1273.42
-269.606
1301.83
-237.064
1320.97
-202.324
1341.02
-186.846
1363.53
-220.882
1408.67
-320.886
1465.56
-449.496
1537.51
-561.234
1606.02
-634.165
1678.46
-672.854
1742.17
-689.461
1808.63
-695.77
1867.82
-700.233
1931.51
-706.932
1988.67
-717.189
2048.31
-730.269
2099.75
-746.92
2153.72
-768.629
2203.18
-796.679
2259.27
-831.294
2314.35
-871.714
2376.02
-912.303
2437.96
-967.019
-1016.15
574.203
-809.123
612.211
-891.418
653.651
-878.265
687.909
-776.744
713.244
-465.279
715.073
-169.592
702.719
84.7634
684.641
290.201
626.568
348.767
587.281
337.239
513.125
326.767
425.808
516.985
317.258
432.676
255.57
-135.093
215.25
-218.729
165.938
-308.995
107.218
-271.453
62.1809
-161.209
-57.5643
-6.27185
-150.869
252.48
-100.528
142.86
-25.8233
-64.7528
18.5288
-138.106
74.335
-194.94
133.895
-416.909
235.155
-821.226
342.468
-1187.31
441.726
-1310.92
528.005
-1253.53
603.463
-1151.74
662.066
-1065.51
702.037
-1011.71
736.406
-1017.47
768.297
-1068.36
804.271
-1133.77
843.515
-1182.23
882.919
-1188.19
915.742
-1173.89
951.763
-1155.63
986.092
-1120.9
1016.84
-1063.65
1032.04
-1013.71
1045.48
-990.876
1065.03
-1011.81
1094.49
-1014.14
1111.22
-945.292
1102.29
-816.328
1129.91
-666.192
1117.3
-532.916
1126.96
-414.048
1117.36
-342.474
1124.78
-327.718
1117.05
-311.012
1111.42
-251.143
1097.59
-191.869
1097.55
-221.015
1101.18
-230.118
1100.16
-168.446
1096.08
-93.3642
1072.04
22.2448
1059.36
104.285
1024.57
161.675
973.698
200.39
937.504
173.568
925.573
143.16
900.499
130.346
896.654
42.8864
900.167
-94.7634
917.161
-204.314
939.289
-324.264
979.663
-414.86
1023.73
-465.6
1071.58
-459.674
1114.49
-433.169
1153.97
-393.339
1190.53
-358.01
1222.44
-319.667
1252.73
-283.322
1272.8
-241.396
1295.18
-222.441
1324.32
-265.547
1378.87
-383.869
1443.96
-526.428
1520.46
-642.9
1590.29
-713.713
1662.08
-747.935
1724.77
-760.166
1790.78
-763.667
1850.22
-766.366
1913.71
-771.207
1969.03
-777.878
2024.99
-786.047
2072.43
-798.712
2124.17
-819.598
2174.53
-850.309
2234.33
-889.861
2294.39
-934.349
2360.97
-977.816
2424.6
-1031.87
-1072.68
534.344
-834.425
569.09
-920.973
606.62
-901.797
635.845
-795.492
656.46
-464.745
654.016
-160.056
642.433
94.0226
628.26
310.739
571.929
385.41
528.889
372.147
451.643
353.448
378.767
573.238
281.915
513.368
218.322
-99.601
179.662
-205.046
116.065
-285.82
46.2188
-218.19
-6.26211
-114.776
-136.908
85.527
-207.917
305.764
-117.746
31.2044
-48.6116
-151.762
-17.5659
-207.706
31.0714
-267.605
92.8395
-512.433
198.271
-939.372
307.126
-1314.59
405.442
-1432.83
490.205
-1364.51
564.466
-1248.43
622.132
-1145.79
661.419
-1078.57
694.206
-1076.31
723.391
-1121.37
759.571
-1191.6
803.361
-1250.77
845.803
-1254.21
876.727
-1229.81
908.936
-1209.39
942.05
-1178.01
974.58
-1117.29
991.398
-1055.42
1004.24
-1024.68
1022.05
-1051.22
1050.01
-1060.02
1064.52
-988.325
1051.7
-852.375
1076.5
-694.995
1059.9
-553.64
1068.19
-429.328
1059.11
-355.835
1067.73
-341.072
1060.19
-316.909
1053.92
-248.405
1040.21