/*--------------------------------*- C++ -*----------------------------------*\
| =========                 |                                                 |
| \\      /  F ield         | OpenFOAM: The Open Source CFD Toolbox           |
|  \\    /   O peration     | Version:  4.1                                   |
|   \\  /    A nd           | Web:      www.OpenFOAM.org                      |
|    \\/     M anipulation  |                                                 |
\*---------------------------------------------------------------------------*/
FoamFile
{
    version     2.0;
    format      ascii;
    class       volVectorField;
    location    "14";
    object      U;
}
// * * * * * * * * * * * * * * * * * * * * * * * * * * * * * * * * * * * * * //

dimensions      [0 1 -1 0 0 0 0];

internalField   nonuniform List<vector> 
26785
(
(1.16208e-15 0.000480751 14.2163)
(1.12498e-15 0.00484894 14.1551)
(1.06699e-15 0.00591235 14.034)
(-1.57632e-15 0.00631285 13.8998)
(2.32384e-15 0.00685483 13.7682)
(-1.44464e-16 0.0053486 13.6588)
(-8.71199e-16 0.00295441 13.581)
(-2.81364e-16 0.000497226 13.562)
(3.40563e-15 -0.00122788 13.5836)
(-1.85285e-15 -0.00229182 13.6177)
(4.00936e-16 -0.00265224 13.6514)
(6.08331e-16 -0.00362592 13.6913)
(7.35435e-16 -0.00515874 13.7647)
(8.59552e-16 -0.00583269 13.8467)
(9.11821e-16 -0.00220722 13.9029)
(8.98421e-16 0.00166828 13.9031)
(8.5717e-16 0.00400428 13.8554)
(8.38817e-16 0.00432755 13.7988)
(1.69603e-15 0.0029038 13.756)
(6.38786e-16 2.51977e-05 13.7488)
(-2.71959e-16 -0.00245085 13.7795)
(1.06708e-15 -0.00445436 13.8379)
(4.21239e-15 -0.00596918 13.9095)
(2.84345e-16 -0.00836279 13.9996)
(-4.92719e-15 -0.0117037 14.1184)
(-1.4564e-15 -0.0157962 14.28)
(-4.44688e-16 -0.0181324 14.4801)
(2.84002e-16 -0.0176177 14.6782)
(-3.43364e-15 -0.015139 14.8509)
(-4.25136e-15 -0.0124357 14.9897)
(8.62201e-16 -0.0103857 15.1008)
(1.70914e-15 -0.00917494 15.1908)
(-8.33264e-16 -0.00867832 15.269)
(4.09371e-15 -0.00847348 15.3439)
(-9.28135e-15 -0.00816427 15.4178)
(-3.25738e-16 -0.00738055 15.485)
(3.54489e-17 -0.00614788 15.5413)
(2.98381e-16 -0.00460983 15.584)
(4.86501e-16 -0.00321564 15.6137)
(8.75065e-17 -0.00220004 15.6326)
(4.12381e-15 -0.00159128 15.6453)
(1.62958e-15 -0.00103048 15.6539)
(1.65694e-15 -0.000409861 15.6578)
(-1.68558e-15 0.000483256 15.6571)
(1.17128e-15 0.0016572 15.6501)
(-1.88649e-15 0.00312665 15.6334)
(7.1501e-16 0.00452621 15.5947)
(6.29548e-16 0.0046723 15.5597)
(8.57895e-16 0.00486396 15.5312)
(6.47715e-16 0.00401589 15.5052)
(3.63947e-15 0.0032112 15.4886)
(1.36604e-15 0.00199151 15.4787)
(1.4479e-15 0.00115747 15.4779)
(1.3601e-15 0.00034973 15.4816)
(1.31441e-15 -0.000320617 15.4906)
(2.10345e-15 -0.00107841 15.5039)
(8.68123e-16 -0.00166086 15.522)
(2.41228e-17 -0.00206294 15.542)
(1.30364e-15 -0.00241567 15.5637)
(5.03721e-15 -0.00281205 15.5866)
(-4.09651e-16 -0.00348936 15.6125)
(8.0293e-17 -0.00433823 15.6418)
(7.13168e-16 -0.00539064 15.6758)
(4.77465e-16 -0.00635575 15.7152)
(-1.66645e-16 -0.0072127 15.7588)
(-2.34763e-16 -0.00785346 15.8055)
(1.00903e-16 -0.00841238 15.854)
(2.37367e-16 -0.00885737 15.9043)
(2.75885e-16 -0.00926585 15.9559)
(1.58975e-17 -0.00951558 16.0082)
(-3.34117e-15 -0.00961637 16.06)
(1.16359e-15 -0.00951668 16.1109)
(6.0713e-16 -0.00927614 16.1596)
(7.10684e-16 -0.00893231 16.2059)
(6.33429e-16 -0.00852894 16.2489)
(2.83689e-15 -0.00815919 16.2893)
(1.11994e-15 -0.00787022 16.327)
(1.2158e-15 -0.00778114 16.3632)
(1.2112e-15 -0.00788726 16.3985)
(1.19086e-15 -0.00825086 16.4347)
(1.46322e-15 -0.00877988 16.4723)
(-5.10517e-16 -0.00945128 16.5126)
(9.5821e-16 -0.0101221 16.5553)
(1.09422e-15 -0.0107066 16.6007)
(2.96184e-15 -0.0111236 16.6477)
(1.01635e-15 -0.0113158 16.6953)
(9.07314e-16 -0.0113657 16.7426)
(1.15187e-15 -0.0112504 16.7889)
(1.13886e-15 -0.0111399 16.8336)
(9.12743e-16 -0.0109521 16.8768)
(8.72879e-16 -0.0108733 16.9185)
(9.84996e-16 -0.0107475 16.9588)
(1.0449e-15 -0.0107689 16.9981)
(1.08183e-15 -0.0107215 17.0365)
(1.25141e-15 -0.0108371 17.0745)
(1.09958e-15 -0.0108205 17.1122)
(1.02759e-15 -0.0111344 17.1497)
(1.16803e-15 -0.0115076 17.1883)
(1.22886e-15 -0.0113256 17.2248)
(1.30969e-15 -0.00839021 17.2671)
(1.6356e-15 -0.00107188 15.2809)
(-1.17961e-15 0.0153726 15.2489)
(4.08671e-16 0.0211555 15.1304)
(8.99814e-17 0.0235579 15.0014)
(3.34505e-15 0.0251399 14.8878)
(3.70786e-16 0.0200835 14.8114)
(5.80218e-16 0.0116492 14.7729)
(3.3099e-15 0.00394901 14.7972)
(-1.5779e-15 -0.00085693 14.8579)
(9.94281e-16 -0.00446954 14.9284)
(1.31469e-15 -0.00617365 14.9999)
(1.39703e-15 -0.0103378 15.0854)
(1.30024e-15 -0.0164095 15.2138)
(2.11056e-15 -0.0187206 15.353)
(9.72383e-16 -0.00621919 15.4592)
(-7.26728e-16 0.00689149 15.5018)
(1.25057e-15 0.0136622 15.4981)
(2.46192e-15 0.0132541 15.496)
(1.23728e-15 0.00712833 15.5187)
(7.56834e-15 -0.00268299 15.5834)
(1.92636e-15 -0.0104833 15.6837)
(2.28048e-15 -0.0163655 15.8048)
(6.70756e-15 -0.0208306 15.9311)
(1.6115e-15 -0.0277106 16.0684)
(2.58869e-15 -0.0374384 16.2271)
(5.4699e-15 -0.0490466 16.4196)
(7.74489e-16 -0.0550512 16.64)
(8.80799e-16 -0.0525178 16.8486)
(1.71643e-15 -0.0443946 17.0251)
(-3.08018e-15 -0.0358359 17.1636)
(3.88415e-15 -0.0295532 17.2729)
(1.69725e-15 -0.0260804 17.361)
(1.63024e-15 -0.0248047 17.4382)
(2.23234e-15 -0.0244013 17.5128)
(-1.72463e-15 -0.0236149 17.5872)
(7.11611e-16 -0.0214691 17.6555)
(1.13927e-15 -0.0179487 17.7138)
(1.33062e-15 -0.0135681 17.7591)
(1.39208e-15 -0.00970783 17.7924)
(1.54471e-15 -0.00699405 17.8159)
(1.19275e-15 -0.00544503 17.8339)
(4.96294e-15 -0.00401713 17.8478)
(2.29514e-15 -0.00237721 17.8569)
(4.96392e-15 4.43736e-05 17.8609)
(2.60765e-15 0.00333096 17.8577)
(3.51679e-15 0.00736972 17.8441)
(1.96657e-15 0.0110391 17.8081)
(1.51163e-15 0.0115964 17.7736)
(-1.03269e-15 0.0119882 17.7425)
(4.86346e-15 0.00985976 17.7105)
(1.50185e-15 0.00774301 17.6837)
(8.15731e-16 0.00475244 17.6591)
(2.12593e-15 0.00279945 17.639)
(4.51283e-16 0.00104774 17.6192)
(1.00812e-15 -0.00042569 17.6003)
(3.16928e-15 -0.00215967 17.5816)
(1.62221e-15 -0.00341697 17.5635)
(-1.2697e-16 -0.0041895 17.5436)
(1.77614e-15 -0.00479563 17.5222)
(2.78272e-15 -0.00557348 17.4986)
(2.96022e-15 -0.00702402 17.4744)
(1.95037e-15 -0.00895545 17.4501)
(1.9173e-15 -0.0113394 17.4267)
(5.1181e-15 -0.0135047 17.4049)
(7.77771e-16 -0.015401 17.3847)
(2.13116e-15 -0.016804 17.365)
(1.99186e-15 -0.018042 17.3454)
(3.40191e-15 -0.0190462 17.3258)
(1.43024e-15 -0.0200197 17.3067)
(2.75035e-16 -0.020591 17.2874)
(1.93869e-15 -0.020825 17.2673)
(1.13002e-15 -0.0205746 17.2459)
(7.54013e-16 -0.0200122 17.2223)
(8.21911e-16 -0.0191879 17.196)
(2.16855e-15 -0.0182433 17.1664)
(9.00834e-16 -0.0173739 17.1338)
(2.33234e-15 -0.0167042 17.0982)
(2.39787e-15 -0.0164932 17.0599)
(4.65595e-16 -0.0167791 17.0194)
(2.22021e-15 -0.0177246 16.9779)
(2.33948e-15 -0.0191417 16.9357)
(4.24051e-15 -0.0209901 16.894)
(2.12206e-15 -0.0228957 16.8529)
(3.28635e-16 -0.0246531 16.813)
(2.60706e-15 -0.0259563 16.7736)
(8.86977e-16 -0.0266989 16.7343)
(4.20787e-16 -0.0269741 16.6942)
(1.68565e-15 -0.0268224 16.6531)
(2.56916e-15 -0.0265494 16.6104)
(2.88033e-15 -0.0260662 16.5664)
(2.42809e-15 -0.0257179 16.521)
(2.46554e-15 -0.0252549 16.4749)
(2.50866e-15 -0.0250426 16.4284)
(1.6012e-15 -0.0246782 16.3821)
(2.3807e-15 -0.0246204 16.3367)
(2.39152e-15 -0.0243551 16.2926)
(2.82856e-15 -0.0243219 16.2513)
(2.37776e-15 -0.025566 16.2098)
(2.36912e-15 -0.0249744 16.1768)
(2.42012e-15 -0.019947 16.1422)
(1.11857e-15 -0.000282604 16.4141)
(4.04006e-15 0.0278843 16.4049)
(4.43049e-15 0.0372029 16.333)
(1.01818e-15 0.0403738 16.2699)
(4.38714e-15 0.0404023 16.2354)
(1.96798e-15 0.031563 16.242)
(4.19555e-15 0.0175859 16.2761)
(2.75748e-15 0.00588915 16.3533)
(2.46013e-15 -0.0009341 16.4496)
(2.19745e-15 -0.00654153 16.5505)
(2.14649e-15 -0.00953639 16.6528)
(2.12043e-15 -0.0169028 16.7707)
(2.02274e-15 -0.0271973 16.927)
(1.93827e-15 -0.0307148 17.0909)
(1.96801e-15 -0.0108855 17.2192)
(-2.18956e-15 0.0097666 17.2865)
(4.24072e-15 0.0189852 17.3125)
(2.5431e-15 0.0167496 17.3399)
(3.03076e-15 0.00566962 17.3845)
(3.34676e-15 -0.010139 17.4549)
(7.94851e-16 -0.0220528 17.5401)
(6.63065e-15 -0.0302319 17.6254)
(5.26052e-15 -0.0361385 17.6971)
(5.48316e-17 -0.0455203 17.7613)
(3.13703e-15 -0.0595004 17.8274)
(6.77008e-15 -0.0762035 17.9095)
(-2.07905e-15 -0.0846124 18.0092)
(9.05933e-16 -0.0799262 18.0978)
(1.9868e-15 -0.0669385 18.1613)
(2.1125e-15 -0.0534507 18.1961)
(1.44859e-15 -0.0436325 18.2088)
(-1.86622e-16 -0.0383433 18.2056)
(4.92803e-15 -0.0365637 18.1949)
(3.59255e-16 -0.0363558 18.1858)
(2.09154e-15 -0.0356331 18.1817)
(2.45211e-15 -0.0329344 18.1783)
(2.39644e-15 -0.0279515 18.1719)
(2.40111e-15 -0.0215764 18.1589)
(2.39844e-15 -0.0157223 18.1372)
(2.41579e-15 -0.0116451 18.1058)
(2.42516e-15 -0.00925148 18.0673)
(2.35548e-15 -0.00714441 18.0234)
(2.55077e-15 -0.0045475 17.9736)
(2.66181e-15 -0.000768927 17.9176)
(2.6609e-15 0.00455286 17.8536)
(2.61894e-15 0.0111133 17.7777)
(2.5946e-15 0.0172142 17.6752)
(2.61985e-15 0.0198884 17.5661)
(2.74305e-15 0.0213264 17.451)
(2.88427e-15 0.0198126 17.3248)
(2.99616e-15 0.0175125 17.1946)
(2.82954e-15 0.0143402 17.0583)
(2.7669e-15 0.012148 16.9205)
(2.59658e-15 0.0106427 16.7776)
(3.42956e-15 0.00929862 16.6306)
(2.19466e-15 0.00768584 16.4784)
(1.84836e-15 0.00651204 16.3229)
(6.49372e-15 0.00608701 16.1622)
(1.58799e-15 0.00584938 15.9972)
(6.59816e-15 0.00538125 15.8271)
(1.44038e-15 0.00402755 15.6532)
(2.49212e-15 0.00186905 15.4752)
(2.56947e-15 -0.000958776 15.2941)
(3.52409e-15 -0.00382846 15.1125)
(2.19727e-15 -0.00641577 14.9318)
(9.71506e-16 -0.00856612 14.753)
(3.12731e-15 -0.0105148 14.5762)
(4.05041e-15 -0.0123432 14.4033)
(3.25405e-15 -0.0141239 14.2339)
(3.05595e-15 -0.0154583 14.0695)
(3.20188e-15 -0.0161754 13.9073)
(2.54069e-15 -0.0161446 13.7492)
(3.2622e-15 -0.0155344 13.591)
(5.30518e-15 -0.0144599 13.4345)
(5.46672e-15 -0.0131613 13.2759)
(4.62094e-15 -0.0117816 13.1181)
(4.51548e-15 -0.010689 12.9572)
(4.4237e-15 -0.0099076 12.7966)
(4.36465e-15 -0.00987336 12.6324)
(4.33273e-15 -0.0103315 12.468)
(4.02659e-15 -0.011697 12.2995)
(4.06393e-15 -0.0133249 12.131)
(1.16601e-15 -0.0155742 11.96)
(3.4206e-15 -0.0172268 11.7909)
(3.07694e-15 -0.0188174 11.6209)
(2.90983e-15 -0.0190062 11.4528)
(2.71747e-15 -0.0190836 11.2834)
(2.5552e-15 -0.0179101 11.115)
(2.32612e-15 -0.0172341 10.9451)
(-6.81914e-17 -0.0157107 10.7761)
(2.77067e-15 -0.0151821 10.607)
(2.45153e-15 -0.0141175 10.4405)
(3.80585e-15 -0.0143755 10.2767)
(2.08202e-15 -0.0142641 10.1185)
(1.8997e-15 -0.0155888 9.96725)
(1.82705e-15 -0.0169023 9.8246)
(2.38816e-15 -0.018837 9.69468)
(1.51798e-15 -0.0230408 9.57467)
(1.42852e-15 -0.0269921 9.45828)
(1.4422e-15 -0.0329531 9.38076)
(1.29372e-15 0.00470525 17.5653)
(3.23444e-15 0.0412228 17.5823)
(2.55079e-15 0.0521108 17.5548)
(4.05255e-15 0.0546376 17.5419)
(3.56087e-15 0.0528858 17.552)
(6.35701e-15 0.0407928 17.5876)
(4.03933e-15 0.0226672 17.6305)
(2.37122e-16 0.00839252 17.6967)
(2.41826e-15 -4.83974e-05 17.7697)
(2.78275e-15 -0.00771752 17.8414)
(2.6583e-15 -0.012619 17.9101)
(2.65146e-15 -0.0232088 17.986)
(1.93006e-15 -0.0377614 18.089)
(3.27758e-15 -0.0426229 18.1919)
(4.23038e-15 -0.0155028 18.2589)
(4.15579e-15 0.0123068 18.2631)
(3.31659e-15 0.0240897 18.2171)
(5.04249e-15 0.0208999 18.1523)
(3.74155e-15 0.00654537 18.0733)
(2.54196e-15 -0.0128439 17.9809)
(2.49914e-15 -0.026728 17.8672)
(3.59308e-15 -0.0349786 17.7223)
(4.37483e-15 -0.040556 17.5353)
(4.04648e-15 -0.0501798 17.3117)
(3.85054e-15 -0.0666436 17.0605)
(3.88259e-15 -0.0876628 16.8054)
(3.64494e-15 -0.100083 16.5698)
(3.56627e-15 -0.0962947 16.3451)
(3.39452e-15 -0.0822778 16.1262)
(2.77944e-15 -0.0673554 15.9109)
(6.79073e-15 -0.0568873 15.7018)
(8.71021e-15 -0.0520715 15.5005)
(4.90023e-15 -0.0518779 15.3129)
(4.7487e-15 -0.0542352 15.1504)
(-7.40321e-16 -0.0561411 15.0189)
(6.47769e-15 -0.0555986 14.9136)
(2.3484e-15 -0.051614 14.8302)
(7.49791e-16 -0.0452258 14.7637)
(6.9821e-15 -0.0382623 14.7066)
(2.31074e-15 -0.0329351 14.6495)
(3.80644e-16 -0.0293617 14.5902)
(5.68066e-15 -0.0262792 14.5303)
(3.47346e-15 -0.0222598 14.4697)
(-4.22676e-16 -0.0166327 14.408)
(2.00064e-15 -0.0083656 14.3434)
(1.85852e-15 0.00214144 14.2689)
(5.04384e-15 0.0129483 14.1624)
(5.3865e-15 0.0216289 14.0436)
(3.837e-15 0.0274251 13.9085)
(3.42719e-15 0.0305378 13.7505)
(3.19048e-15 0.0312039 13.5765)
(5.06101e-17 0.0310569 13.3854)
(1.07517e-15 0.0309231 13.1841)
(8.20196e-15 0.0319933 12.9725)
(5.18591e-16 0.0327229 12.7514)
(2.73546e-15 0.0332192 12.5213)
(1.18469e-15 0.0337256 12.2841)
(6.10212e-15 0.0351859 12.0398)
(-1.89321e-15 0.0366231 11.7879)
(1.55221e-15 0.0377625 11.5294)
(1.77887e-15 0.0378138 11.2635)
(3.10091e-15 0.0366038 10.9922)
(4.12138e-15 0.0343249 10.7144)
(3.25152e-15 0.0311946 10.4389)
(1.96618e-15 0.0278576 10.1656)
(5.32796e-15 0.0242548 9.90165)
(5.35377e-15 0.0205059 9.64449)
(-5.75794e-16 0.0163823 9.40241)
(-1.38833e-15 0.0122339 9.17015)
(-1.91942e-15 0.00839642 8.95517)
(5.82263e-16 0.00576636 8.74842)
(-5.23249e-17 0.00440309 8.55709)
(2.51791e-15 0.00436633 8.36932)
(1.01217e-15 0.00520259 8.19177)
(-8.94494e-15 0.00660658 8.01356)
(7.08925e-15 0.00839916 7.84364)
(-6.08514e-16 0.00985871 7.67223)
(2.23548e-15 0.0114371 7.50814)
(3.31396e-15 0.0121322 7.34217)
(1.62857e-15 0.0130176 7.18193)
(1.40461e-15 0.012307 7.01857)
(1.08382e-15 0.0114566 6.86056)
(1.63857e-15 0.00837254 6.70359)
(-4.99568e-15 0.00637838 6.55726)
(-4.10114e-16 0.00331427 6.4168)
(-1.12165e-15 0.00328474 6.28751)
(-6.60525e-15 0.0025018 6.16381)
(-2.72439e-16 0.00453056 6.04933)
(-6.67553e-16 0.00452157 5.94007)
(-7.91905e-16 0.00625181 5.84016)
(-3.80703e-15 0.00487441 5.74823)
(-1.40129e-15 0.00435179 5.66837)
(8.67571e-16 0.00016363 5.60012)
(9.66267e-16 -0.00368456 5.54661)
(3.60646e-17 -0.0109875 5.50811)
(2.6337e-15 -0.0186388 5.48572)
(-3.51431e-16 -0.0283613 5.47881)
(1.05157e-15 -0.0379549 5.49594)
(-3.70495e-17 -0.0551579 5.49476)
(1.4733e-17 -0.0823985 5.58976)
(1.39089e-15 0.0120404 18.585)
(2.58002e-15 0.0542417 18.6134)
(2.61988e-15 0.065721 18.5903)
(2.95003e-15 0.0678425 18.5605)
(3.88065e-15 0.0654625 18.5286)
(2.31366e-15 0.0514211 18.4941)
(5.16577e-15 0.0301951 18.4435)
(3.62314e-15 0.0137238 18.3968)
(4.00057e-15 0.00335138 18.3455)
(3.67401e-15 -0.00643736 18.2825)
(2.70511e-15 -0.0134803 18.2071)
(4.93452e-15 -0.026926 18.1231)
(2.61654e-15 -0.0459734 18.0518)
(3.81644e-15 -0.0536811 17.9735)
(4.17607e-15 -0.0206646 17.8696)
(2.28678e-16 0.013713 17.7073)
(4.31688e-15 0.0294127 17.4815)
(3.19544e-15 0.0293154 17.2072)
(2.9362e-15 0.0174476 16.869)
(2.49138e-15 0.000695209 16.4613)
(2.16677e-15 -0.0100413 15.9891)
(4.49781e-15 -0.0137348 15.455)
(5.12361e-15 -0.0152574 14.8496)
(4.33519e-15 -0.0208154 14.1796)
(4.39637e-15 -0.0374984 13.4546)
(4.94995e-15 -0.0631633 12.7189)
(7.07119e-15 -0.0854835 12.0402)
(7.80791e-15 -0.091065 11.4361)
(4.24796e-15 -0.085517 10.9109)
(2.85416e-15 -0.0783213 10.457)
(2.27339e-15 -0.0756677 10.0736)
(1.96858e-15 -0.0790782 9.7531)
(1.31885e-15 -0.087687 9.49666)
(7.75051e-15 -0.0997198 9.31167)
(-2.54671e-15 -0.110765 9.19935)
(8.23738e-16 -0.118125 9.14426)
(2.16981e-15 -0.119968 9.13562)
(2.53841e-15 -0.11762 9.16603)
(2.43494e-15 -0.111765 9.22458)
(2.52252e-15 -0.105708 9.29253)
(2.65287e-15 -0.10049 9.36074)
(3.49634e-15 -0.096185 9.4294)
(9.37519e-16 -0.0903816 9.4996)
(-1.03754e-15 -0.0824535 9.57103)
(1.77129e-16 -0.0701643 9.64213)
(4.79481e-16 -0.0536804 9.70262)
(5.35105e-16 -0.0351056 9.72153)
(1.43147e-16 -0.0159298 9.72618)
(5.00906e-16 -0.00168646 9.7096)
(-2.38012e-15 0.010679 9.66415)
(2.15937e-15 0.0186771 9.59548)
(5.87982e-17 0.0257475 9.50116)
(-1.68742e-15 0.0311566 9.39009)
(-1.89119e-15 0.0380339 9.26386)
(-2.98069e-15 0.0439063 9.12298)
(-8.78843e-17 0.0492528 8.96946)
(1.74547e-15 0.0539888 8.80595)
(3.0046e-15 0.0599869 8.63317)
(-5.18233e-16 0.0658372 8.44822)
(-4.12248e-15 0.0712086 8.25321)
(-1.33334e-14 0.0750992 8.04622)
(1.98541e-15 0.0766826 7.83158)
(2.4744e-15 0.0759502 7.60912)
(4.20268e-16 0.0727642 7.3928)
(4.56031e-15 0.0681236 7.18215)
(-9.83538e-17 0.0620686 6.98499)
(-3.85786e-15 0.0548517 6.7972)
(-7.9777e-15 0.0464418 6.62824)
(-7.10058e-15 0.0376412 6.47278)
(3.40859e-15 0.0290629 6.3373)
(-1.17572e-14 0.0225761 6.21224)
(-1.26026e-14 0.0182248 6.10342)
(-8.94202e-15 0.0166215 5.99882)
(-1.73606e-14 0.0164067 5.90301)
(-1.42451e-14 0.0175437 5.80594)
(-6.23402e-15 0.0190242 5.71539)
(-7.8317e-15 0.0205554 5.62345)
(-3.19952e-15 0.0220264 5.53786)
(-7.41346e-15 0.0229846 5.45308)
(1.69651e-15 0.0239084 5.37673)
(-3.56352e-15 0.0231229 5.30477)
(-3.81039e-15 0.0207799 5.24466)
(-5.11442e-15 0.0154675 5.19482)
(-1.36492e-14 0.0102324 5.16086)
(-1.70276e-14 0.00476636 5.13739)
(-8.02645e-16 0.00225763 5.12451)
(-2.18833e-15 0.000248096 5.11604)
(-1.39441e-15 0.000244339 5.11257)
(-2.21901e-15 -0.0011061 5.11078)
(-1.46442e-16 -0.00221937 5.11306)
(8.69088e-16 -0.00587099 5.11853)
(3.33203e-16 -0.0101702 5.12978)
(3.11214e-15 -0.0173179 5.14643)
(-1.43308e-17 -0.0253292 5.17029)
(5.13869e-17 -0.0357368 5.20136)
(-6.08467e-16 -0.0471104 5.2407)
(8.06093e-16 -0.0604847 5.28554)
(2.06428e-16 -0.0721969 5.34803)
(-8.80687e-17 -0.0944642 5.38935)
(-4.26115e-17 -0.123597 5.50314)
(2.08968e-15 0.0180105 19.2806)
(3.95698e-15 0.0659208 19.2284)
(2.71034e-15 0.0798473 19.1136)
(2.45925e-15 0.0828506 18.9792)
(3.06871e-15 0.0812632 18.8255)
(2.59805e-15 0.0663458 18.6375)
(3.59016e-15 0.042748 18.3961)
(7.10618e-15 0.0242695 18.1238)
(4.46884e-15 0.0112764 17.8256)
(1.38335e-15 -0.00109893 17.4983)
(-2.09938e-19 -0.011013 17.148)
(4.06845e-15 -0.0271682 16.7755)
(2.77389e-15 -0.0516027 16.4097)
(2.4522e-15 -0.064892 16.0492)
(2.57311e-15 -0.0283511 15.7098)
(2.17397e-15 0.0120512 15.356)
(2.65669e-15 0.0345527 14.9541)
(1.36385e-15 0.0451681 14.5)
(-1.82479e-16 0.0458049 13.9399)
(2.06077e-15 0.0411219 13.2634)
(5.00913e-15 0.0401603 12.5008)
(4.01218e-15 0.0469273 11.6739)
(1.00167e-14 0.0541262 10.7712)
(1.40871e-14 0.0575057 9.80378)
(1.31769e-14 0.0405308 8.79884)
(3.67314e-15 0.00422272 7.84844)
(3.25194e-15 -0.0420713 7.07654)
(1.99546e-15 -0.0710406 6.49278)
(2.67238e-15 -0.0853259 6.06896)
(-7.01042e-15 -0.0949772 5.76592)
(-1.11794e-15 -0.107947 5.56545)
(-1.35595e-14 -0.126315 5.44604)
(7.50514e-16 -0.14906 5.39817)
(3.92291e-16 -0.174804 5.42009)
(1.28118e-14 -0.197266 5.5035)
(-4.13838e-15 -0.213135 5.62341)
(3.68128e-15 -0.220621 5.76542)
(3.33977e-15 -0.222235 5.92374)
(2.46123e-15 -0.217178 6.09261)
(3.03557e-15 -0.209587 6.2578)
(-1.92723e-15 -0.201699 6.4137)
(-1.6073e-15 -0.195532 6.56267)
(-3.22343e-15 -0.187697 6.70746)
(-6.60247e-15 -0.177421 6.84974)
(-2.60722e-15 -0.160921 6.98953)
(-2.25021e-15 -0.137876 7.11459)
(-1.48641e-15 -0.110871 7.18838)
(-1.08531e-15 -0.0813191 7.25051)
(-7.00581e-16 -0.0585505 7.29776)
(-1.77151e-16 -0.0372284 7.32225)
(2.3075e-16 -0.021263 7.33111)
(8.08777e-16 -0.00661747 7.31918)
(1.3063e-15 0.00512912 7.2968)
(1.619e-15 0.0185392 7.26186)
(1.71971e-15 0.030552 7.21279)
(1.79218e-15 0.0411042 7.15097)
(1.35601e-15 0.0506924 7.08105)
(3.24825e-16 0.0619106 7.0002)
(-8.92255e-15 0.0731184 6.90466)
(4.93779e-15 0.0839428 6.79543)
(3.14341e-15 0.0929477 6.67198)
(1.31299e-14 0.0984939 6.53751)
(-1.55081e-15 0.0999149 6.3936)
(4.18614e-15 0.0970139 6.25356)
(2.81128e-15 0.0916449 6.11728)
(-2.23222e-15 0.0843206 5.98956)
(-5.1652e-15 0.0750106 5.86742)
(-1.14182e-14 0.0637956 5.75805)
(-8.39146e-15 0.051767 5.65878)
(-1.37799e-14 0.0400253 5.57293)
(-1.24512e-14 0.0311255 5.49388)
(-5.50935e-15 0.0250916 5.42451)
(-5.16323e-15 0.0230692 5.35576)
(-6.40886e-15 0.0228026 5.28964)
(1.12955e-14 0.0244497 5.21916)
(-1.99045e-15 0.0261034 5.15024)
(-1.89666e-15 0.0279179 5.07743)
(7.45982e-15 0.0289982 5.00724)
(1.3983e-15 0.029219 4.93674)
(2.5677e-15 0.0283157 4.87321)
(1.63041e-15 0.0250325 4.81487)
(1.12718e-14 0.0187435 4.76892)
(1.08291e-14 0.00922032 4.73532)
(2.45946e-14 -0.000398227 4.71851)
(2.40815e-15 -0.00863858 4.713)
(-6.73477e-16 -0.0130013 4.71738)
(5.72698e-15 -0.0152779 4.72559)
(4.86009e-15 -0.0154695 4.73776)
(4.41947e-15 -0.0164817 4.75101)
(4.13754e-15 -0.0179192 4.76747)
(9.10668e-15 -0.021863 4.78642)
(2.39529e-15 -0.0272633 4.81012)
(5.96956e-15 -0.0355763 4.83819)
(1.57835e-15 -0.045479 4.87226)
(4.0318e-15 -0.057841 4.9123)
(3.53153e-15 -0.0715423 4.9595)
(3.68234e-16 -0.0877469 5.01097)
(3.06031e-16 -0.102627 5.07707)
(4.94063e-16 -0.127765 5.12624)
(7.16629e-16 -0.16021 5.23721)
(2.61366e-15 0.0205706 19.1782)
(2.84244e-15 0.0723164 19.0419)
(5.17464e-15 0.0898244 18.8531)
(1.1e-15 0.0945899 18.6255)
(5.473e-15 0.0967021 18.3332)
(3.45413e-15 0.0850476 17.9296)
(2.28704e-15 0.062911 17.3903)
(3.36179e-15 0.0446958 16.7622)
(2.0888e-15 0.0289502 16.0845)
(-1.85379e-15 0.0132318 15.3741)
(8.09248e-16 -0.000946406 14.6562)
(2.99609e-15 -0.0198293 13.9366)
(2.30028e-15 -0.0517243 13.2555)
(2.26577e-15 -0.0771803 12.6381)
(3.10289e-15 -0.0434096 12.1459)
(1.73624e-15 -0.00143446 11.743)
(-5.22197e-16 0.0275544 11.3538)
(1.02968e-14 0.0544869 10.9632)
(3.4456e-15 0.0759239 10.4646)
(6.00289e-15 0.0893303 9.82971)
(4.24871e-15 0.100245 9.11476)
(-5.19554e-16 0.120583 8.35577)
(1.47342e-14 0.13964 7.5366)
(6.48388e-15 0.153196 6.69399)
(5.13686e-15 0.130309 5.89722)
(5.47917e-15 0.0700726 5.26901)
(1.01447e-14 -0.0116054 4.89068)
(-1.76547e-14 -0.0670747 4.70088)
(2.73885e-15 -0.0967218 4.61937)
(-8.19607e-15 -0.115929 4.59108)
(9.17642e-16 -0.136535 4.59783)
(9.62773e-17 -0.162144 4.62841)
(7.00736e-17 -0.192003 4.68439)
(8.79164e-16 -0.224684 4.77371)
(-3.76819e-16 -0.252384 4.89445)
(1.00935e-14 -0.271064 5.02601)
(4.05182e-15 -0.279964 5.15847)
(2.85181e-15 -0.282963 5.29061)
(2.15869e-15 -0.278556 5.42351)
(4.169e-15 -0.270549 5.54873)
(-9.09688e-16 -0.262025 5.6636)
(-1.83191e-16 -0.255869 5.7719)
(-1.27278e-15 -0.248211 5.87778)
(-3.93614e-15 -0.238176 5.98427)
(-2.60445e-15 -0.220236 6.09223)
(-1.65607e-15 -0.192568 6.18807)
(-2.84886e-15 -0.158686 6.23106)
(-7.17858e-16 -0.121778 6.26659)
(2.18055e-15 -0.0934661 6.29254)
(1.09996e-14 -0.0675274 6.30148)
(1.41966e-14 -0.047386 6.30331)
(2.05903e-14 -0.0292141 6.29103)
(1.5999e-14 -0.0144681 6.27673)
(1.35589e-14 0.00267388 6.25687)
(1.2162e-14 0.0187803 6.22847)
(1.21148e-14 0.0322654 6.19143)
(7.95349e-15 0.0447578 6.1508)
(1.56677e-14 0.0604138 6.10136)
(1.4208e-14 0.0767981 6.03736)
(6.26183e-15 0.0931405 5.95925)
(7.13072e-15 0.107468 5.86742)
(8.33513e-15 0.116959 5.76355)
(9.53875e-15 0.120034 5.64837)
(2.05193e-14 0.117675 5.53753)
(4.68375e-15 0.112273 5.42976)
(2.3546e-14 0.104564 5.32924)
(4.79157e-15 0.0937127 5.23391)
(-8.16566e-17 0.0800157 5.15037)
(-7.1007e-15 0.0653288 5.07685)
(-7.78278e-15 0.0510491 5.01503)
(-2.38279e-15 0.0408318 4.95988)
(-3.21464e-15 0.0342094 4.91289)
(5.93778e-15 0.0331176 4.8658)
(2.52898e-14 0.0340082 4.81979)
(1.27234e-14 0.037401 4.76828)
(-8.73251e-15 0.0406117 4.71607)
(2.87897e-14 0.0439582 4.6585)
(-2.98813e-16 0.0456193 4.60154)
(1.05147e-14 0.0454827 4.54404)
(8.95929e-15 0.042924 4.49113)
(-2.8567e-16 0.0370631 4.44192)
(9.10603e-15 0.0260779 4.40406)
(1.55686e-14 0.011037 4.3786)
(6.29745e-15 -0.00450733 4.37031)
(7.16841e-15 -0.0170785 4.37341)
(6.34927e-15 -0.0247031 4.38638)
(5.09642e-15 -0.0287563 4.40326)
(3.20988e-15 -0.0305535 4.42454)
(2.55862e-15 -0.032756 4.44732)
(1.42658e-15 -0.0358205 4.47378)
(2.33197e-15 -0.0413394 4.50283)
(2.00369e-15 -0.0488074 4.53654)
(-3.16598e-15 -0.0591558 4.57412)
(-1.21595e-15 -0.0714929 4.61707)
(-1.64813e-15 -0.0862449 4.665)
(1.42132e-15 -0.102519 4.71918)
(-2.34365e-15 -0.121389 4.7766)
(-3.58503e-16 -0.139222 4.84624)
(-6.00905e-16 -0.166712 4.90067)
(-1.10157e-15 -0.202325 5.01122)
(4.58338e-15 0.0194852 18.5174)
(3.18664e-15 0.0714726 18.2853)
(3.90769e-15 0.0925819 18.0088)
(5.13407e-15 0.102346 17.6412)
(4.97024e-15 0.115442 17.1287)
(3.92142e-15 0.116053 16.4103)
(5.0334e-15 0.102247 15.4732)
(2.84786e-15 0.0873693 14.4201)
(1.77987e-15 0.0677299 13.3407)
(2.79936e-15 0.045974 12.2804)
(2.81932e-15 0.0230822 11.282)
(3.3865e-15 -0.00186996 10.3515)
(3.81654e-15 -0.0475439 9.53073)
(3.94506e-15 -0.0968396 8.85771)
(1.8349e-15 -0.0753132 8.41797)
(4.27827e-15 -0.0396899 8.15448)
(6.20614e-15 -0.0112622 7.94449)
(4.99436e-15 0.0278607 7.77309)
(4.13771e-15 0.0693655 7.51656)
(3.16089e-15 0.100814 7.13164)
(2.93202e-15 0.125639 6.69151)
(1.47279e-15 0.16014 6.21906)
(1.88259e-14 0.19151 5.68895)
(-6.19957e-15 0.21139 5.13761)
(5.12349e-15 0.179554 4.62525)
(1.97637e-15 0.0929346 4.25983)
(-1.13085e-14 -0.0186488 4.10996)
(1.20459e-14 -0.0923519 4.11466)
(4.58501e-15 -0.127066 4.18646)
(2.03624e-15 -0.145601 4.26877)
(-5.2037e-16 -0.164943 4.34616)
(-1.82315e-15 -0.190898 4.41462)
(-1.82662e-15 -0.22317 4.48488)
(3.53949e-16 -0.259386 4.57307)
(-1.17505e-15 -0.289932 4.68185)
(8.87441e-15 -0.309664 4.79365)
(2.26962e-15 -0.318649 4.90279)
(3.80869e-16 -0.321646 5.00963)
(-3.46705e-16 -0.317107 5.11548)
(4.04284e-16 -0.308312 5.21055)
(-5.86698e-15 -0.29919 5.29087)
(-6.13873e-15 -0.293525 5.36323)
(-8.06318e-15 -0.287257 5.43642)
(-2.93438e-15 -0.278588 5.51559)
(-3.55744e-15 -0.260189 5.60024)
(-2.41359e-15 -0.228805 5.67389)
(-1.35959e-15 -0.188721 5.69365)
(-2.74778e-15 -0.145629 5.70827)
(-1.26478e-15 -0.112868 5.71543)
(2.84096e-15 -0.08421 5.70683)
(4.76101e-15 -0.0618669 5.6916)
(1.31221e-14 -0.0426156 5.66203)
(5.67616e-15 -0.0273528 5.63643)
(6.2393e-15 -0.00838651 5.61421)
(4.41404e-15 0.00979197 5.59054)
(8.80263e-15 0.0244412 5.56348)
(5.58925e-15 0.0390627 5.53629)
(5.96516e-15 0.0588378 5.50058)
(4.27511e-15 0.080411 5.44986)
(3.96542e-15 0.101656 5.38467)
(1.17025e-14 0.120199 5.30517)
(1.31606e-14 0.133173 5.21175)
(1.01929e-14 0.137792 5.10511)
(9.56542e-15 0.135027 5.00512)
(8.18987e-15 0.128345 4.9122)
(4.52518e-15 0.118866 4.82687)
(-3.07922e-15 0.105603 4.74756)
(8.02915e-15 0.0885511 4.6787)
(-3.26285e-15 0.0708378 4.61998)
(-6.77787e-15 0.0533092 4.57213)
(-2.00339e-14 0.0411318 4.53237)
(3.11722e-15 0.0331677 4.50124)
(-1.45199e-16 0.0323291 4.47083)
(-1.77565e-15 0.033771 4.44112)
(-1.14342e-14 0.0388446 4.40489)
(-6.92997e-16 0.0436676 4.36634)
(8.96278e-15 0.0483947 4.32149)
(-1.15758e-14 0.0505684 4.27664)
(4.90912e-16 0.0506096 4.23056)
(1.3292e-15 0.0478232 4.18619)
(1.15896e-14 0.0404318 4.14359)
(-1.07731e-14 0.0255394 4.11152)
(6.55679e-15 0.00514887 4.09241)
(-4.32004e-15 -0.0161405 4.09107)
(-1.12265e-14 -0.0329863 4.10172)
(-8.58528e-16 -0.0435297 4.12269)
(-7.14205e-16 -0.0491354 4.14828)
(-1.68856e-15 -0.0520466 4.17893)
(-2.15531e-15 -0.0550043 4.21161)
(-3.78974e-15 -0.0589773 4.24813)
(-3.4298e-15 -0.0653714 4.28702)
(-9.84488e-17 -0.0739839 4.32995)
(-8.91521e-15 -0.0855241 4.3759)
(-2.32418e-15 -0.0993312 4.42619)
(-2.20114e-15 -0.115626 4.48038)
(6.53891e-16 -0.133602 4.53967)
(-1.52724e-15 -0.154266 4.60122)
(-2.1982e-15 -0.174224 4.6729)
(-1.29034e-15 -0.203184 4.73053)
(-1.60227e-15 -0.241044 4.8389)
(3.18884e-15 0.00898383 17.2197)
(3.34107e-15 0.0577737 16.8392)
(3.73172e-15 0.0851743 16.4353)
(7.04918e-15 0.107168 15.9031)
(4.7434e-17 0.141296 15.1909)
(2.46033e-15 0.164602 14.2491)
(3.74509e-15 0.166452 13.0587)
(3.74353e-15 0.158056 11.7814)
(2.04825e-16 0.13255 10.5387)
(2.1008e-15 0.101347 9.38759)
(3.91699e-15 0.0642361 8.36319)
(4.43435e-15 0.0284896 7.45644)
(5.13603e-15 -0.0383418 6.70722)
(4.81551e-15 -0.121494 6.14163)
(2.91471e-15 -0.118366 5.8315)
(2.15976e-15 -0.0947025 5.69056)
(5.59628e-15 -0.0669066 5.59978)
(-8.49471e-15 -0.0179892 5.53678)
(-4.39102e-15 0.0418084 5.46183)
(-1.11543e-15 0.0931097 5.28665)
(3.68493e-15 0.132071 5.01899)
(-8.34856e-17 0.179216 4.6659)
(-8.27773e-15 0.218916 4.26119)
(-5.44719e-16 0.24359 3.8584)
(-1.67534e-14 0.202737 3.49)
(2.15753e-14 0.0863796 3.28273)
(-6.85585e-15 -0.0560995 3.30204)
(-1.00776e-14 -0.144734 3.46152)
(-2.67454e-15 -0.179455 3.6535)
(1.35705e-15 -0.192801 3.82002)
(-2.22274e-14 -0.207134 3.95312)
(-5.51587e-15 -0.23064 4.05613)
(-1.66451e-14 -0.263466 4.14557)
(-1.45329e-14 -0.3021 4.24235)
(-2.72759e-15 -0.334601 4.35116)
(-1.04089e-14 -0.354791 4.45729)
(-3.87676e-15 -0.363474 4.56149)
(-5.46178e-15 -0.365934 4.66556)
(-5.68009e-15 -0.359916 4.76668)
(-3.79337e-15 -0.348273 4.85107)
(-2.46313e-15 -0.336625 4.916)
(9.57464e-16 -0.330695 4.97284)
(-4.43897e-15 -0.32585 5.03242)
(-8.18631e-15 -0.318839 5.09997)
(-6.88597e-15 -0.29978 5.17671)
(-6.303e-15 -0.264128 5.24373)
(-5.39341e-15 -0.217209 5.25501)
(-4.41624e-15 -0.167413 5.26315)
(-3.90355e-15 -0.129215 5.26399)
(-3.24474e-15 -0.0965501 5.24502)
(-2.48315e-15 -0.0703617 5.21282)
(-1.94901e-15 -0.04932 5.16167)
(-1.45724e-15 -0.0351513 5.12397)
(-1.21762e-15 -0.0174125 5.10655)
(-1.82688e-15 0.00188075 5.09126)
(3.1528e-15 0.0175358 5.06602)
(-1.05318e-15 0.0343483 5.03794)
(-2.74906e-15 0.0580503 5.0047)
(-6.64587e-15 0.0836475 4.95994)
(-1.17341e-14 0.108983 4.90062)
(-1.128e-15 0.132701 4.82541)
(-1.21948e-14 0.149723 4.73275)
(-5.46234e-15 0.154376 4.62644)
(-7.48964e-15 0.149285 4.53487)
(-2.28252e-14 0.140911 4.45751)
(-7.50126e-15 0.129541 4.38636)
(-1.62558e-14 0.114296 4.31998)
(-2.88528e-15 0.0944381 4.26142)
(-1.92905e-14 0.0740273 4.21246)
(-1.9958e-14 0.0528397 4.17496)
(-1.23281e-14 0.0382226 4.14876)
(-6.39825e-15 0.0284642 4.13349)
(-1.24474e-14 0.0284994 4.11982)
(-2.86355e-14 0.0317077 4.10587)
(-2.83543e-14 0.0395195 4.08402)
(-1.46884e-15 0.0461797 4.05926)
(1.23949e-14 0.0527783 4.0272)
(-7.33126e-15 0.0556256 3.99473)
(6.86168e-15 0.0565249 3.95841)
(-2.50153e-15 0.0540506 3.92095)
(-1.31029e-14 0.0453396 3.88383)
(-1.55109e-14 0.025833 3.85705)
(-8.4564e-15 -0.00103007 3.84412)
(3.38232e-16 -0.0289416 3.84999)
(-2.20103e-14 -0.050522 3.86852)
(-1.67951e-14 -0.0641511 3.89803)
(-1.85574e-15 -0.0714601 3.93258)
(-3.44071e-15 -0.0755674 3.97259)
(-3.39153e-15 -0.0793832 4.01459)
(-3.10095e-15 -0.0842629 4.06021)
(-3.13877e-15 -0.0915214 4.10752)
(-6.51642e-15 -0.101158 4.15806)
(-7.6784e-16 -0.113785 4.21058)