/*--------------------------------*- C++ -*----------------------------------*\
| =========                 |                                                 |
| \\      /  F ield         | OpenFOAM: The Open Source CFD Toolbox           |
|  \\    /   O peration     | Version:  4.1                                   |
|   \\  /    A nd           | Web:      www.OpenFOAM.org                      |
|    \\/     M anipulation  |                                                 |
\*---------------------------------------------------------------------------*/
FoamFile
{
    version     2.0;
    format      ascii;
    class       volScalarField;
    location    "2";
    object      p;
}
// * * * * * * * * * * * * * * * * * * * * * * * * * * * * * * * * * * * * * //

dimensions      [0 2 -2 0 0 0 0];

internalField   nonuniform List<scalar> 
26785
(
0.182313
0.174631
0.167046
0.159905
0.153299
0.147265
0.141686
0.136494
0.131561
0.126842
0.122275
0.117851
0.113559
0.109401
0.10538
0.101481
0.0977232
0.0941001
0.0906289
0.0873145
0.0841669
0.0812035
0.0784336
0.07587
0.0735136
0.0713612
0.0693999
0.067616
0.0659973
0.064528
0.0631988
0.0619978
0.0609035
0.0598947
0.0589471
0.0580364
0.057153
0.0562919
0.0554498
0.0546226
0.0537982
0.0529602
0.052091
0.0511852
0.0502408
0.0492644
0.0482615
0.0472343
0.0461823
0.045104
0.0440038
0.0428907
0.041778
0.0406756
0.039589
0.038522
0.037477
0.0364515
0.0354408
0.0344445
0.0334647
0.0325101
0.0315925
0.0307174
0.0298881
0.0291049
0.0283643
0.0276645
0.0270057
0.0263868
0.0258049
0.0252542
0.0247228
0.0241935
0.0236551
0.0231016
0.0225216
0.0219073
0.021254
0.0205594
0.0198229
0.0190455
0.0182292
0.0173758
0.0164869
0.0155641
0.0146092
0.013624
0.0126107
0.0115717
0.0105099
0.00942921
0.0083354
0.00723709
0.00614209
0.00505603
0.00396453
0.00286056
0.00173721
0.000588527
0.182316
0.174631
0.167044
0.159903
0.153298
0.147266
0.141689
0.136498
0.131567
0.126849
0.122283
0.11786
0.113569
0.10941
0.10539
0.101491
0.0977327
0.0941096
0.090638
0.0873233
0.0841751
0.0812113
0.0784412
0.0758776
0.0735214
0.0713691
0.0694082
0.0676246
0.0660062
0.0645376
0.0632091
0.0620089
0.0609155
0.0599075
0.0589606
0.0580505
0.0571675
0.0563065
0.0554644
0.0546372
0.0538124
0.0529745
0.052106
0.0512013
0.0502583
0.0492827
0.0482798
0.047252
0.0461993
0.0451206
0.0440209
0.0429085
0.0417961
0.0406933
0.039606
0.0385381
0.0374918
0.0364654
0.0354537
0.0344566
0.0334765
0.0325212
0.0316028
0.0307268
0.0298961
0.0291117
0.0283703
0.0276698
0.0270105
0.026391
0.0258085
0.0252569
0.0247247
0.0241947
0.0236552
0.0231009
0.0225204
0.0219058
0.0212523
0.0205576
0.0198211
0.019044
0.018228
0.0173748
0.0164861
0.0155635
0.0146086
0.0136236
0.0126103
0.0115712
0.0105094
0.00942857
0.00833469
0.00723654
0.0061419
0.00505599
0.00396452
0.00286067
0.00173714
0.000588344
0.18232
0.17463
0.167039
0.159898
0.153295
0.147266
0.141693
0.136507
0.131579
0.126863
0.1223
0.117878
0.113587
0.10943
0.105409
0.10151
0.0977519
0.0941284
0.0906563
0.0873408
0.0841918
0.0812274
0.0784567
0.075893
0.073537
0.071385
0.0694246
0.0676418
0.0660242
0.0645569
0.0632299
0.062031
0.0609394
0.0599329
0.0589873
0.0580785
0.0571965
0.0563359
0.0554938
0.0546661
0.0538406
0.0530029
0.0521359
0.0512338
0.0502934
0.0493194
0.0483164
0.0472873
0.0462334
0.0451545
0.0440555
0.0429443
0.0418323
0.0407287
0.0396401
0.0385703
0.0375217
0.036493
0.0354793
0.0344808
0.0335
0.0325438
0.0316235
0.0307452
0.0299121
0.0291253
0.0283822
0.0276806
0.0270203
0.0263999
0.0258161
0.0252628
0.0247286
0.0241971
0.0236553
0.0230994
0.0225179
0.0219027
0.021249
0.0205543
0.0198182
0.0190416
0.018226
0.0173733
0.016485
0.0155626
0.0146077
0.0136224
0.012609
0.0115697
0.0105076
0.00942697
0.00833339
0.00723549
0.00614144
0.00505605
0.00396458
0.00286054
0.00173685
0.000588015
0.182326
0.174629
0.167033
0.15989
0.15329
0.147267
0.1417
0.136519
0.131596
0.126885
0.122324
0.117905
0.113616
0.109459
0.105438
0.10154
0.0977806
0.0941566
0.0906836
0.0873671
0.0842168
0.0812516
0.0784802
0.0759162
0.0735606
0.0714088
0.0694492
0.0676677
0.0660513
0.064586
0.0632612
0.0620643
0.0609749
0.0599709
0.0590272
0.0581206
0.0572403
0.0563802
0.0555379
0.0547096
0.0538828
0.0530452
0.0521809
0.0512826
0.0503461
0.0493742
0.0483709
0.0473399
0.0462844
0.0452054
0.0441077
0.0429981
0.0418865
0.0407819
0.0396913
0.0386188
0.0375664
0.0365341
0.0355178
0.0345174
0.0335354
0.0325777
0.0316545
0.0307727
0.0299359
0.0291458
0.0284002
0.0276971
0.0270355
0.0264136
0.0258278
0.0252718
0.0247346
0.0242007
0.0236556
0.0230973
0.0225142
0.021898
0.021244
0.0205494
0.0198138
0.0190378
0.0182231
0.0173711
0.0164832
0.015561
0.0146061
0.0136206
0.0126067
0.0115671
0.0105049
0.00942436
0.00833151
0.00723431
0.00614107
0.00505597
0.00396476
0.00286053
0.00173649
0.000587626
0.182334
0.174627
0.167024
0.15988
0.153284
0.147267
0.141708
0.136536
0.13162
0.126914
0.122357
0.117941
0.113653
0.109498
0.105477
0.101579
0.0978189
0.0941942
0.0907199
0.087402
0.0842501
0.0812839
0.0785116
0.0759472
0.0735921
0.0714405
0.0694819
0.0677021
0.0660874
0.0646246
0.063303
0.0621086
0.0610222
0.0600214
0.0590804
0.0581766
0.0572989
0.0564397
0.055597
0.0547676
0.0539392
0.0531017
0.0522409
0.0513477
0.0504162
0.0494469
0.048443
0.0474097
0.0463523
0.0452734
0.0441775
0.0430698
0.0419589
0.0408528
0.0397595
0.0386833
0.037626
0.0365887
0.0355689
0.0345663
0.0335826
0.0326226
0.0316958
0.0308093
0.0299676
0.0291733
0.0284246
0.0277194
0.0270562
0.0264323
0.0258438
0.0252843
0.0247432
0.0242057
0.0236564
0.0230947
0.0225093
0.0218918
0.0212371
0.0205426
0.0198076
0.0190326
0.0182188
0.0173677
0.0164805
0.0155586
0.0146037
0.0136178
0.0126034
0.0115633
0.0105011
0.00942108
0.00832907
0.00723278
0.00614085
0.00505627
0.00396488
0.00286048
0.00173621
0.000587289
0.182344
0.174625
0.167013
0.159868
0.153276
0.147268
0.14172
0.136557
0.131649
0.12695
0.122399
0.117986
0.113701
0.109547
0.105526
0.101628
0.0978669
0.0942411
0.0907652
0.0874456
0.0842918
0.0813245
0.0785511
0.0759861
0.0736316
0.0714803
0.0695227
0.0677451
0.0661327
0.0646729
0.0633551
0.0621639
0.061081
0.0600844
0.059147
0.0582468
0.0573723
0.0565143
0.0556711
0.0548402
0.05401
0.0531726
0.0523159
0.051429
0.0505033
0.049537
0.0485325
0.0474965
0.0464371
0.0453585
0.0442649
0.0431596
0.0420495
0.0409416
0.0398447
0.0387638
0.0377004
0.0366569
0.0356326
0.0346272
0.0336413
0.0326786
0.0317473
0.0308549
0.0300073
0.029208
0.0284556
0.0277479
0.0270826
0.0264562
0.0258645
0.0253007
0.0247546
0.0242125
0.023658
0.0230919
0.0225034
0.0218838
0.0212282
0.0205338
0.0197995
0.0190255
0.0182128
0.0173629
0.0164765
0.015555
0.0146001
0.0136138
0.0125989
0.0115584
0.0104962
0.00941696
0.00832635
0.00723138
0.00614061
0.00505659
0.00396525
0.00286058
0.00173602
0.000587038
0.182357
0.174622
0.167
0.159853
0.153267
0.14727
0.141733
0.136582
0.131685
0.126994
0.122448
0.11804
0.113757
0.109605
0.105585
0.101687
0.0979245
0.0942973
0.0908194
0.0874977
0.0843418
0.0813732
0.0785988
0.0760331
0.073679
0.071528
0.0695716
0.0677966
0.066187
0.0647307
0.0634174
0.0622301
0.0611514
0.0601598
0.0592269
0.0583311
0.0574607
0.0566043
0.0557604
0.0549276
0.0540953
0.0532579
0.0524058
0.0515263
0.0506071
0.0496442
0.0486391
0.0476002
0.0465387
0.0454607
0.0443698
0.0432674
0.0421581
0.0410482
0.0399469
0.0388602
0.0377895
0.0367384
0.0357087
0.0347
0.0337114
0.0327453
0.0318088
0.0309096
0.0300552
0.0292501
0.0284935
0.0277828
0.027115
0.0264857
0.0258902
0.0253214
0.0247694
0.0242213
0.0236606
0.023089
0.0224963
0.021874
0.0212172
0.0205226
0.019789
0.0190162
0.018205
0.0173563
0.0164709
0.0155499
0.014595
0.0136084
0.0125929
0.0115522
0.0104904
0.00941234
0.00832344
0.0072299
0.0061407
0.00505722
0.00396595
0.00286093
0.001736
0.000586921
0.182373
0.174618
0.166984
0.159835
0.153256
0.147271
0.141749
0.136612
0.131726
0.127045
0.122506
0.118103
0.113823
0.109674
0.105653
0.101756
0.0979917
0.0943628
0.0908824
0.0875585
0.0844002
0.0814302
0.0786547
0.0760881
0.0737343
0.0715838
0.0696287
0.0678565
0.0662504
0.0647981
0.06349
0.0623073
0.0612335
0.0602475
0.0593201
0.0584298
0.057564
0.0567097
0.055865
0.05503
0.0541954
0.053358
0.0525108
0.0516393
0.0507273
0.0497682
0.0487626
0.0477209
0.0466571
0.04558
0.0444924
0.0433934
0.0422849
0.0411723
0.040066
0.0389725
0.0378931
0.0368332
0.035797
0.0347844
0.0337928
0.0328227
0.0318802
0.0309735
0.0301115
0.0292999
0.0285385
0.0278245
0.0271538
0.0265212
0.0259213
0.0253468
0.024788
0.0242326
0.0236646
0.0230862
0.0224881
0.0218624
0.0212038
0.020509
0.0197761
0.0190045
0.0181949
0.0173476
0.0164633
0.015543
0.0145882
0.0136014
0.0125856
0.011545
0.010484
0.00940746
0.0083205
0.0072288
0.00614106
0.00505817
0.00396686
0.00286145
0.00173616
0.000586936
0.18239
0.174614
0.166966
0.159814
0.153243
0.147273
0.141767
0.136646
0.131774
0.127103
0.122573
0.118175
0.113899
0.109752
0.105732
0.101834
0.0980686
0.0944376
0.0909542
0.0876278
0.0844669
0.0814954
0.0787188
0.0761513
0.0737977
0.0716477
0.0696939
0.0679249
0.0663227
0.0648751
0.0635727
0.0623955
0.0613271
0.0603475
0.0594267
0.0585427
0.0576822
0.0568305
0.055985
0.0551473
0.0543105
0.0534729
0.0526307
0.0517678
0.0508637
0.0499088
0.048903
0.0478584
0.0467925
0.0457164
0.0446327
0.0435374
0.0424296
0.0413138
0.0402019
0.0391002
0.0380108
0.036941
0.0358974
0.0348802
0.033885
0.0329105
0.0319615
0.0310466
0.0301763
0.0293578
0.0285912
0.0278733
0.0271993
0.026563
0.0259582
0.0253774
0.0248109
0.0242467
0.02367
0.0230834
0.0224789
0.0218487
0.0211878
0.0204926
0.0197605
0.0189903
0.0181823
0.0173366
0.0164536
0.0155341
0.0145797
0.0135929
0.0125772
0.011537
0.0104772
0.00940246
0.00831754
0.00722778
0.00614165
0.00505937
0.00396798
0.00286212
0.00173644
0.000587026
0.18241
0.174609
0.166945
0.159791
0.153229
0.147275
0.141787
0.136684
0.131827
0.127169
0.122648
0.118257
0.113985
0.10984
0.105821
0.101923
0.0981552
0.0945217
0.0910349
0.0877056
0.084542
0.081569
0.0787912
0.0762227
0.073869
0.0717195
0.0697673
0.0680017
0.0664041
0.0649617
0.0636657
0.0624946
0.0614324
0.0604599
0.0595466
0.0586699
0.0578153
0.0569666
0.0561203
0.0552798
0.0544405
0.0536029
0.0527656
0.0519117
0.0510161
0.0500659
0.0490602
0.0480129
0.0469449
0.04587
0.0447904
0.0436992
0.042592
0.0414724
0.040354
0.0392432
0.0381425
0.0370616
0.0360096
0.0349871
0.0339879
0.0330084
0.0320524
0.031129
0.03025
0.0294241
0.0286519
0.0279298
0.027252
0.0266115
0.0260012
0.0254134
0.0248382
0.024264
0.0236771
0.0230808
0.0224684
0.0218329
0.0211693
0.0204735
0.0197422
0.0189735
0.0181671
0.0173231
0.0164416
0.0155233
0.0145695
0.013583
0.0125678
0.0115285
0.01047
0.00939699
0.00831445
0.00722717
0.00614268
0.00506088
0.00396921
0.0028628
0.00173668
0.000587077
0.182433
0.174604
0.166921
0.159764
0.153213
0.147277
0.14181
0.136727
0.131887
0.127242
0.122731
0.118347
0.114079
0.109938
0.105919
0.102021
0.0982514
0.0946151
0.0911245
0.0877921
0.0846257
0.0816508
0.0788719
0.0763022
0.0739481
0.0717992
0.0698488
0.0680869
0.0664945
0.0650581
0.063769
0.0626047
0.0615494
0.0605846
0.0596798
0.0588113
0.0579631
0.0571179
0.056271
0.0554274
0.0545857
0.0537481
0.0529157
0.052071
0.0511844
0.0502395
0.0492344
0.0481846
0.0471145
0.0460408
0.0449656
0.0438787
0.0427716
0.0416474
0.0405221
0.039401
0.0382877
0.0371946
0.0361333
0.0351048
0.0341011
0.0331163
0.032153
0.0312208
0.030333
0.0294993
0.0287211
0.0279943
0.0273122
0.026667
0.0260507
0.0254552
0.0248703
0.0242844
0.0236857
0.0230781
0.0224565
0.0218149
0.0211482
0.0204517
0.0197212
0.018954
0.0181493
0.0173072
0.0164275
0.0155106
0.0145578
0.0135721
0.0125576
0.0115193
0.0104624
0.00939174
0.00831199
0.00722731
0.00614412
0.00506241
0.00397021
0.00286314
0.00173662
0.000586946
0.18246
0.174597
0.166895
0.159735
0.153195
0.147279
0.141836
0.136775
0.131953
0.127324
0.122823
0.118447
0.114184
0.110045
0.106027
0.10213
0.0983572
0.0947179
0.091223
0.0878872
0.0847179
0.081741
0.0789608
0.0763898
0.0740351
0.0718866
0.0699383
0.0681805
0.0665939
0.0651643
0.0638827
0.0627259
0.0616783
0.0607216
0.0598261
0.0589669
0.0581255
0.057284
0.056437
0.0555902
0.0547462
0.0539088
0.0530812
0.0522457
0.0513687
0.0504297
0.0494258
0.0483737
0.0473016
0.0462291
0.0451581
0.0440753
0.042968
0.0418385
0.0407055
0.039573
0.038446
0.0373398
0.0362683
0.035233
0.0342242
0.0332339
0.0322633
0.0313223
0.0304255
0.0295839
0.0287992
0.028067
0.0273801
0.0267295
0.0261067
0.0255027
0.0249069
0.024308
0.0236957
0.0230753
0.0224432
0.0217947
0.0211245
0.0204272
0.0196977
0.0189319
0.018129
0.017289
0.0164113
0.0154962
0.0145448
0.0135602
0.0125469
0.0115102
0.0104554
0.00938756
0.00831058
0.00722812
0.00614556
0.00506338
0.00397041
0.00286273
0.001736
0.000586521
0.182489
0.174589
0.166865
0.159702
0.153175
0.147282
0.141864
0.136827
0.132026
0.127413
0.122924
0.118557
0.114298
0.110163
0.106146
0.102248
0.0984727
0.09483
0.0913305
0.087991
0.0848187
0.0818396
0.0790578
0.0764855
0.0741298
0.0719818
0.0700359
0.0682824
0.0667024
0.0652806
0.0640071
0.0628583
0.0618192
0.0608712
0.0599855
0.0591363
0.0583023
0.0574648
0.0566181
0.0557684
0.0549221
0.0540852
0.0532622
0.052436
0.0515693
0.050637
0.0496347
0.0485807
0.0475064
0.0464346
0.0453676
0.0442885
0.0431803
0.0420448
0.0409034
0.0397585
0.0386169
0.0374967
0.0364143
0.0353715
0.0343572
0.0333611
0.0323834
0.0314336
0.0305279
0.0296782
0.0288865
0.0281484
0.0274558
0.0267993
0.0261691
0.0255557
0.0249479
0.0243343
0.023707
0.0230722
0.0224286
0.0217723
0.0210984
0.0204004
0.019672
0.0189075
0.0181064
0.0172685
0.0163932
0.0154803
0.0145308
0.013548
0.0125365
0.0115021
0.01045
0.00938492
0.00831022
0.00722914
0.00614631
0.00506309
0.00396926
0.00286125
0.00173468
0.000585767
0.182521
0.17458
0.166833
0.159666
0.153154
0.147285
0.141894
0.136884
0.132105
0.127509
0.123033
0.118676
0.114423
0.11029
0.106274
0.102376
0.0985977
0.0949516
0.0914471
0.0881036
0.0849281
0.0819465
0.0791629
0.0765891
0.0742321
0.0720845
0.0701414
0.0683927
0.06682
0.0654069
0.0641422
0.0630022
0.0619721
0.0610333
0.0601578
0.0593194
0.0584932
0.05766
0.0568141
0.0559619
0.0551136
0.0542775
0.0534591
0.0526422
0.0517863
0.0508615
0.0498615
0.0488058
0.0477292
0.0466576
0.0455936
0.0445174
0.0434077
0.0422656
0.041115
0.0399569
0.0388
0.0376652
0.0365711
0.0355202
0.0344997
0.0334978
0.0325131
0.0315551
0.0306405
0.0297825
0.0289833
0.0282384
0.0275394
0.026876
0.0262375
0.0256135
0.0249924
0.0243627
0.023719
0.0230687
0.0224126
0.0217482
0.0210704
0.0203718
0.0196445
0.0188812
0.0180818
0.0172463
0.0163736
0.0154633
0.0145163
0.013536
0.0125272
0.0114955
0.0104464
0.00938375
0.00831046
0.00722961
0.00614564
0.00506103
0.00396649
0.00285867
0.00173275
0.00058474
0.182557
0.17457
0.166797
0.159627
0.153131
0.147288
0.141928
0.136946
0.13219
0.127614
0.123151
0.118804
0.114557
0.110427
0.106412
0.102514
0.0987324
0.0950827
0.091573
0.0882252
0.0850463
0.0820618
0.079276
0.0767004
0.074342
0.0721947
0.0702548
0.0685113
0.0669468
0.0655434
0.0642883
0.0631576
0.0621373
0.0612079
0.0603431
0.0595159
0.0586979
0.0578695
0.057025
0.056171
0.0553209
0.054486
0.0536724
0.0528647
0.0520202
0.0511037
0.0501065
0.0490493
0.04797
0.0468977
0.0458357
0.0447613
0.0436494
0.0425002
0.0413397
0.0401675
0.0389948
0.037845
0.0367386
0.0356788
0.0346518
0.033644
0.0326526
0.0316867
0.0307636
0.0298969
0.0290897
0.028337
0.0276306
0.0269592
0.0263113
0.0256754
0.0250396
0.0243925
0.0237315
0.0230647
0.0223957
0.0217229
0.0210412
0.0203421
0.0196159
0.0188538
0.0180561
0.017223
0.0163531
0.0154458
0.0145019
0.0135247
0.0125191
0.0114907
0.0104444
0.00938355
0.00831059
0.00722878
0.00614317
0.00505718
0.00396228
0.00285526
0.00173046
0.000583568
0.182598
0.174558
0.166757
0.159584
0.153105
0.147292
0.141964
0.137013
0.132283
0.127727
0.123279
0.118942
0.1147
0.110575
0.10656
0.102661
0.0988766
0.0952232
0.0917082
0.0883558
0.0851733
0.0821855
0.079397
0.0768195
0.0744592
0.0723121
0.0703759
0.0686383
0.0670826
0.0656901
0.0644455
0.0633246
0.0623146
0.0613952
0.0605411
0.0597256
0.0589162
0.058093
0.0572509
0.0563957
0.0555445
0.0547111
0.0539024
0.053104
0.0522714
0.0513639
0.0503699
0.0493114
0.0482289
0.0471546
0.0460932
0.0450193
0.0439043
0.0427477
0.0415767
0.0403898
0.0392012
0.0380363
0.036917
0.0358475
0.0348134
0.0337994
0.0328018
0.0318287
0.0308971
0.0300216
0.0292055
0.0284442
0.0277289
0.0270483
0.0263896
0.0257402
0.0250881
0.0244228
0.023744
0.0230604
0.0223785
0.0216975
0.021012
0.0203124
0.019587
0.0188259
0.0180299
0.0171993
0.0163324
0.0154283
0.0144878
0.0135142
0.0125123
0.0114872
0.0104433
0.00938356
0.00830997
0.00722633
0.00613912
0.00505212
0.00395721
0.00285151
0.0017281
0.000582406
0.182643
0.174545
0.166713
0.159538
0.153078
0.147296
0.142003
0.137085
0.132382
0.127849
0.123415
0.11909
0.114854
0.110732
0.106718
0.102818
0.0990304
0.0953733
0.0918529
0.0884957
0.0853092
0.0823176
0.0795258
0.076946
0.0745837
0.0724368
0.0705046
0.0687735
0.0672276
0.0658471
0.0646136
0.0635032
0.0625041
0.061595
0.0607519
0.0599482
0.059148
0.0583305
0.0574917
0.0566365
0.0557847
0.0549533
0.0541498
0.0533605
0.0525401
0.0516424
0.0506519
0.049592
0.0485057
0.0474281
0.0463653
0.0452905
0.0441717
0.0430076
0.0418255
0.0406236
0.039419
0.0382391
0.0371064
0.0360263
0.0349844
0.0339642
0.0329606
0.0319806
0.0310409
0.0301562
0.0293305
0.0285593
0.0278339
0.0271424
0.0264711
0.0258066
0.0251367
0.0244526
0.0237563
0.0230561
0.0223617
0.021673
0.0209839
0.0202834
0.0195586
0.0187983
0.018004
0.0171757
0.0163117
0.0154107
0.0144738
0.013504
0.012506
0.0114843
0.0104425
0.00938321
0.00830846
0.00722265
0.00613436
0.00504691
0.00395204
0.00284771
0.0017259
0.000581416
0.182691
0.17453
0.166665
0.159487
0.153048
0.1473
0.142045
0.137162
0.132488
0.127979
0.123561
0.119247
0.115018
0.110899
0.106886
0.102985
0.0991938
0.0955329
0.0920072
0.0886449
0.085454
0.0824581
0.0796624
0.07708
0.0747154
0.0725685
0.0706408
0.0689169
0.0673817
0.0660141
0.0647928
0.0636934
0.0627057
0.0618075
0.0609754
0.0601838
0.0593934
0.0585823
0.0577477
0.0568937
0.056042
0.0552131
0.0544152
0.0536347
0.0528265
0.0519391
0.0509524
0.0498908
0.0488
0.0477175
0.0466514
0.0455742
0.0444511
0.0432793
0.0420857
0.0408689
0.0396486
0.0384537
0.0373069
0.0362151
0.0351647
0.0341381
0.0331287
0.0321424
0.0311948
0.0303005
0.0294642
0.0286819
0.0279447
0.0272404
0.0265547
0.0258733
0.0251842
0.0244814
0.0237684
0.0230524
0.0223463
0.0216506
0.0209579
0.0202562
0.0195312
0.0187715
0.0179787
0.0171524
0.0162908
0.0153928
0.0144594
0.0134937
0.0124996
0.0114813
0.0104415
0.00938245
0.0083066
0.00721893
0.00613051
0.00504209
0.00394676
0.00284419
0.00172428
0.000580797
0.182745
0.174513
0.166613
0.159432
0.153017
0.147305
0.14209
0.137245
0.132602
0.128117
0.123716
0.119415
0.115192
0.111076
0.107063
0.103162
0.0993667
0.0957021
0.092171
0.0888034
0.0856077
0.0826069
0.0798068
0.0772212
0.0748542
0.0727073
0.0707844
0.0690685
0.0675447
0.0661911
0.0649827
0.0638951
0.0629194
0.0620324
0.0612117
0.0604323
0.0596523
0.0588487
0.0580195
0.0571679
0.0563173
0.0554913
0.0546992
0.0539273
0.0531308
0.0522537
0.0512708
0.0502072
0.0491112
0.0480222
0.0469507
0.0458697
0.0447419
0.0435627
0.0423574
0.0411259
0.0398904
0.0386804
0.0375189
0.0364142
0.0353543
0.034321
0.0333058
0.0323134
0.031358
0.0304538
0.029606
0.0288112
0.0280605
0.0273413
0.0266391
0.0259389
0.0252299
0.0245089
0.0237806
0.02305
0.0223333
0.0216313
0.020935
0.0202314
0.0195053
0.0187457
0.0179538
0.0171289
0.0162692
0.0153739
0.0144441
0.0134825
0.0124927
0.0114779
0.0104403
0.00938198
0.00830597
0.00721657
0.00612719
0.00503745
0.00394184
0.00284145
0.00172365
0.000580767
0.182803
0.174494
0.166556
0.159373
0.152983
0.147311
0.142138
0.137333
0.132722
0.128264
0.123881
0.119592
0.115376
0.111264
0.107251
0.103348
0.0995492
0.0958809
0.0923445
0.0889715
0.0857704
0.0827642
0.0799588
0.0773698
0.0750001
0.0728532
0.0709355
0.0692281
0.0677164
0.0663776
0.0651831
0.064108
0.0631449
0.0622697
0.0614608
0.0606939
0.0599251
0.0591299
0.0583074
0.0574598
0.0566113
0.0557888
0.0550026
0.0542384
0.0534528
0.0525858
0.0516065
0.0505405
0.0494384
0.0483414
0.0472628
0.0461767
0.0450442
0.0438578
0.0426408
0.0413954
0.0401449
0.0389196
0.0377425
0.0366234
0.0355528
0.0345124
0.0334915
0.0324931
0.03153
0.0306155
0.0297551
0.0289463
0.0281802
0.027444
0.0267229
0.0260027
0.0252734
0.0245351
0.0237934
0.0230498
0.0223238
0.0216158
0.0209157
0.020209
0.0194807
0.0187205
0.0179287
0.0171045
0.0162462
0.0153534
0.0144273
0.0134703
0.0124853
0.0114746
0.0104402
0.0093833
0.00830663
0.00721511
0.00612463
0.0050337
0.00393795
0.0028399
0.00172423
0.000581541
0.182868
0.174471
0.166494
0.159309
0.152946
0.147317
0.142189
0.137427
0.132851
0.128419
0.124056
0.11978
0.115571
0.111462
0.107448
0.103544
0.0997411
0.0960692
0.0925277
0.089149
0.0859421
0.0829298
0.0801186
0.0775255
0.0751531
0.0730061
0.0710938
0.0693956
0.0678968
0.0665735
0.0653935
0.0643318
0.0633819
0.0625194
0.0617229
0.0609688
0.060212
0.0594268
0.0586122
0.0577701
0.0569251
0.0561066
0.0553259
0.0545686
0.0537922
0.0529343
0.0519584
0.0508895
0.0497806
0.0486746
0.0475871
0.046495
0.0453579
0.0441648
0.0429364
0.0416779
0.0404128
0.0391717
0.0379776
0.0368425
0.0357602
0.0347121
0.0336854
0.0326809
0.03171
0.0307847
0.0299107
0.0290863
0.0283029
0.0275474
0.0268055
0.026064
0.0253147
0.0245604
0.0238076
0.0230527
0.0223183
0.0216044
0.0208996
0.0201887
0.0194571
0.0186953
0.0179026
0.0170783
0.0162212
0.0153311
0.0144093
0.0134575
0.012478
0.0114721
0.0104408
0.0093852
0.00830784
0.00721435
0.00612353
0.0050315
0.00393535
0.00283945
0.00172658
0.000583265
0.182939
0.174447
0.166427
0.159241
0.152908
0.147323
0.142244
0.137526
0.132986
0.128584
0.12424
0.119978
0.115775
0.11167
0.107655
0.103749
0.0999426
0.0962672
0.0927205
0.0893359
0.0861228
0.0831037
0.0802861
0.0776886
0.0753132
0.0731662
0.0712594
0.0695708
0.0680854
0.0667781
0.0656136
0.0645661
0.0636303
0.0627813
0.061998
0.0612572
0.0605137
0.0597398
0.0589347
0.0580998
0.0572598
0.0564456
0.0556699
0.0549177
0.0541483
0.0532981
0.0523251
0.0512531
0.050137
0.0490211
0.0479234
0.0468245
0.0456832
0.0444843
0.0432452
0.0419743
0.0406948
0.0394369
0.0382241
0.0370713
0.035976
0.03492
0.0338871
0.0328763
0.0318972
0.0309608
0.0300722
0.0292304
0.0284276
0.0276507
0.0268864
0.0261229
0.0253542
0.0245855
0.0238236
0.0230589
0.0223169
0.0215968
0.0208863
0.0201698
0.0194334
0.0186689
0.0178746
0.0170499
0.0161943
0.0153074
0.0143901
0.0134439
0.0124702
0.0114696
0.0104419
0.00938799
0.00831073
0.00721523
0.00612513
0.00503087
0.00393353
0.0028409
0.00173111
0.000585862
0.183014
0.174419
0.166354
0.159167
0.152866
0.14733
0.142302
0.137632
0.13313
0.128758
0.124434
0.120186
0.115991
0.111888
0.107872
0.103964
0.100154
0.0964746
0.0929228
0.0895321
0.0863123
0.083286
0.0804614
0.0778589
0.0754805
0.0733336
0.0714323
0.0697536
0.0682821
0.0669912
0.0658427
0.0648105
0.0638898
0.0630554
0.0622862
0.0615597
0.0608305
0.0600697
0.0592759
0.0584499
0.0576163
0.0568068
0.056035
0.0552859
0.0545206
0.0536759
0.0527054
0.0516302
0.0505066
0.0493803
0.0482717
0.0471654
0.0460206
0.0448169
0.043568
0.0422854
0.0409913
0.039715
0.0384813
0.0373092
0.0362
0.0351356
0.0340968
0.033079
0.0320913
0.031143
0.0302387
0.0293778
0.0285536
0.0277536
0.0269654
0.0261798
0.0253928
0.0246112
0.0238416
0.0230685
0.0223192
0.0215921
0.0208745
0.0201509
0.0194087
0.0186404
0.0178441
0.0170192
0.0161651
0.0152816
0.0143692
0.0134292
0.0124622
0.0114673
0.0104439
0.00939247
0.00831645
0.00722243
0.00612939
0.0050306
0.00393378
0.00284495
0.00173764
0.000588921
0.183098
0.174388
0.166274
0.159088
0.152823
0.147338
0.142365
0.137744
0.133282
0.128941
0.124639
0.120405
0.116217
0.112117
0.1081
0.104188
0.100374
0.0966915
0.0931347
0.0897377
0.0865106
0.0834764
0.0806445
0.0780365
0.075655
0.0735084
0.0716126
0.0699439
0.0684865
0.0672123
0.0660805
0.0650648
0.0641603
0.0633415
0.0625877
0.0618764
0.061163
0.0604171
0.0596365
0.0588214
0.0579957
0.057191
0.0564216
0.055673
0.0549082
0.0540665
0.0530978
0.0520196
0.0508887
0.0497521
0.0486322
0.0475181
0.0463704
0.0451632
0.0439059
0.0426119
0.0413025
0.0400058
0.0387496
0.0375566
0.0364315
0.0353578
0.0343133
0.0332891
0.0322919
0.0313309
0.0304097
0.029528
0.0286804
0.0278557
0.0270429
0.0262354
0.0254315
0.024638
0.023861
0.0230807
0.022324
0.0215889
0.0208627
0.0201308
0.0193819
0.0186091
0.0178104
0.0169852
0.016133
0.0152534
0.0143469
0.013414
0.0124544
0.0114661
0.0104478
0.00939963
0.00832556
0.00723186
0.00613453
0.00503246
0.0039373
0.00285163
0.00174519
0.000591754
0.183187
0.174353
0.166188
0.159004
0.152777
0.147347
0.142431
0.137862
0.133442
0.129134
0.124854
0.120635
0.116454
0.112357
0.108337
0.104423
0.100604
0.0969179
0.0933559
0.0899523
0.0867176
0.083675
0.0808353
0.0782214
0.0758368
0.0736906
0.0718001
0.0701415
0.0686983
0.0674408
0.0663266
0.0653285
0.0644415
0.0636398
0.0629027
0.0622078
0.0615118
0.0607829
0.0600176
0.059215
0.0583987
0.0575989
0.0568299
0.0560786
0.0553106
0.0544686
0.0535011
0.0524208
0.0512831
0.0501365
0.049005
0.047883
0.0467329
0.0455234
0.0442592
0.0429542
0.0416286
0.0403102
0.0390297
0.0378135
0.0366701
0.0355856
0.0345353
0.0335053
0.0324991
0.0315245
0.0305849
0.0296807
0.028808
0.0279573
0.0271197
0.0262908
0.025471
0.0246663
0.0238807
0.0230943
0.0223299
0.0215854
0.0208492
0.020108
0.0193516
0.018574
0.0177729
0.0169478
0.0160981
0.0152235
0.014324
0.0133992
0.0124478
0.0114667
0.0104539
0.00940914
0.00833631
0.00724396
0.0061431
0.00503834
0.00394452
0.00286011
0.00175221
0.000593589
0.183287
0.174312
0.166095
0.158914
0.152728
0.147357
0.142501
0.137986
0.13361
0.129336
0.125079
0.120876
0.116702
0.112607
0.108585
0.104667
0.100844
0.0971536
0.0935864
0.0901761
0.0869331
0.0838816
0.0810337
0.0784137
0.0760259
0.0738802
0.071995
0.0703462
0.0689173
0.0676766
0.0665805
0.0656017
0.0647336
0.0639503
0.0632313
0.0625542
0.0618772
0.0611675
0.0604197
0.0596315
0.0588257
0.0580305
0.0572598
0.0565024
0.0557272
0.0548816
0.0539146
0.0528331
0.0516897
0.0505335
0.0493908
0.0482607
0.0471087
0.0458982
0.0446282
0.0433126
0.0419703
0.0406288
0.0393218
0.0380797
0.0369154
0.035818
0.0347617
0.0337267
0.0327119
0.0317236
0.0307646
0.0298362
0.0289366
0.028059
0.0271964
0.0263468
0.0255119
0.0246962
0.0239006
0.0231077
0.0223347
0.0215797
0.0208323
0.020081
0.0193168
0.0185343
0.0177313
0.016907
0.0160611
0.0151928
0.014301
0.0133844
0.0124415
0.0114686
0.0104623
0.00942174
0.00835092
0.00726054
0.00615655
0.0050493
0.0039547
0.00286871
0.00175695
0.000593814
0.183394
0.174268
0.165994
0.158818
0.152676
0.147367
0.142576
0.138118
0.133787
0.129548
0.125315
0.121127
0.11696
0.112869
0.108844
0.104921
0.101093
0.0973986
0.093826
0.0904087
0.087157
0.084096
0.0812397
0.0786132
0.0762221
0.0740773
0.0721972
0.070558
0.0691432
0.0679194
0.0668423
0.0658841
0.0650364
0.064273
0.0635737
0.062916
0.0622597
0.0615715
0.0608433
0.0600711
0.0592768
0.0584858
0.0577111
0.0569441
0.0561577
0.0553051
0.0543378
0.0532567
0.0521089
0.0509439
0.0497903
0.0486519
0.0474982
0.0462878
0.0450132
0.0436874
0.0423279
0.0409619
0.039626
0.0383552
0.037167
0.0360546
0.0349916
0.0339523
0.0329296
0.0319276
0.0309488
0.029995
0.029067
0.0281615
0.0272741
0.0264041
0.0255544
0.0247272
0.02392
0.0231191
0.0223367
0.02157
0.0208103
0.0200486
0.0192768
0.01849
0.0176859
0.0168637
0.0160224
0.0151607
0.0142773
0.0133705
0.0124378
0.0114741
0.0104749
0.00943881
0.00837008
0.0072806
0.00617427
0.00506445
0.00396608
0.0028754
0.00175797
0.000592156
0.183508
0.17422
0.165885
0.158715
0.152622
0.147379
0.142655
0.138256
0.133973
0.129769
0.125561
0.121389
0.11723
0.113141
0.109113
0.105185
0.101352
0.0976528
0.0940746
0.0906501
0.0873892
0.0843182
0.0814531
0.0788198
0.0764254
0.0742818
0.0724065
0.0707767
0.069376
0.068169
0.0671117
0.0661758
0.0653501
0.0646083
0.0639302
0.0632935
0.0626598
0.0619953
0.0612889
0.060534
0.0597514
0.058964
0.0581832
0.0574033
0.0566021
0.0557393
0.0547712
0.0536922
0.0525416
0.0513686
0.0502045
0.0490576
0.0479021
0.0466925
0.0454143
0.0440784
0.0427012
0.0413093
0.0399421
0.0386396
0.0374246
0.0362949
0.0352244
0.0341814
0.0331517
0.0321361
0.0311369
0.030157
0.0292
0.0282661
0.0273535
0.0264631
0.0255981
0.0247584
0.0239381
0.0231271
0.0223341
0.0215546
0.0207822
0.0200101
0.0192313
0.0184409
0.0176367
0.0168175
0.0159822
0.0151292
0.0142563
0.013361
0.0124392
0.0114848
0.0104923
0.00946014
0.00839294
0.0073029
0.00619463
0.00508254
0.00397655
0.00287818
0.00175452
0.000588709
0.183634
0.174165
0.165768
0.158606
0.152565
0.147392
0.142738
0.138402
0.134168
0.130001
0.125818
0.121663
0.117511
0.113425
0.109392
0.10546
0.101621
0.0979164
0.0943321
0.0909001
0.0876295
0.0845478
0.0816737
0.0790333
0.0766356
0.0744932
0.0726229
0.0710022
0.0696156
0.0684255
0.067389
0.066477
0.065675
0.0649563
0.0643011
0.0636871
0.063078
0.0624391
0.0617563
0.0610196
0.0602488
0.0594643
0.0586754
0.0578798
0.0570607
0.0561851
0.0552155
0.0541405
0.0529892
0.051809
0.0506347
0.0494791
0.0483211
0.0471127
0.0458314
0.0444853
0.0430896
0.0416705
0.0402698
0.0389327
0.0376882
0.0365389
0.03546
0.0344139
0.033378
0.032349
0.0313289
0.0303221
0.0293352
0.0283724
0.0274347
0.0265238
0.0256427
0.0247892
0.0239539
0.0231307
0.0223254
0.021532
0.0207467
0.0199648
0.01918
0.0183874
0.0175846
0.0167704
0.0159436
0.0151017
0.0142415
0.0133587
0.0124475
0.011501
0.0105136
0.00948398
0.00841716
0.00732504
0.00621462
0.0050992
0.00398239
0.00287545
0.00174661
0.000583829
0.183769
0.174104
0.16564
0.15849
0.152506
0.147407
0.142827
0.138556
0.134372
0.130243
0.126086
0.121948
0.117804
0.113719
0.109683
0.105745
0.1019
0.0981892
0.0945983
0.0911585
0.0878778
0.0847849
0.0819012
0.0792535
0.0768522
0.0747114
0.0728459
0.0712344
0.069862
0.0686891
0.0676744
0.0667879
0.0660114
0.0653176
0.064687
0.0640972
0.0635144
0.0629031
0.0622452
0.0615273
0.060768
0.0599855
0.0591871
0.0583736
0.0575341
0.0566436
0.0556722
0.054603
0.0534533
0.0522669
0.0510825
0.0499176
0.0487559
0.0475481
0.0462638
0.044907
0.0434921
0.0420445
0.0406084
0.0392343
0.0379579
0.0367871
0.0356986
0.0346497
0.0336085
0.0325663
0.0315249
0.0304907
0.0294732
0.028481
0.027518