/*--------------------------------*- C++ -*----------------------------------*\
| =========                 |                                                 |
| \\      /  F ield         | OpenFOAM: The Open Source CFD Toolbox           |
|  \\    /   O peration     | Version:  4.1                                   |
|   \\  /    A nd           | Web:      www.OpenFOAM.org                      |
|    \\/     M anipulation  |                                                 |
\*---------------------------------------------------------------------------*/
FoamFile
{
    version     2.0;
    format      ascii;
    class       surfaceScalarField;
    location    "2";
    object      phi;
}
// * * * * * * * * * * * * * * * * * * * * * * * * * * * * * * * * * * * * * //

dimensions      [0 3 -1 0 0 0 0];

internalField   nonuniform List<scalar> 
52920
(
16.8028
-0.00151052
16.7845
0.0183326
16.7463
0.0382026
16.689
0.057271
16.6136
0.075431
16.5214
0.0921193
16.414
0.107476
16.2926
0.121336
16.1586
0.134011
16.0132
0.145443
15.8573
0.155879
15.6921
0.165221
15.5185
0.173611
15.3373
0.181211
15.1495
0.187762
14.9558
0.193672
14.7572
0.198654
14.5542
0.202975
14.3476
0.206642
14.1378
0.209788
13.9255
0.212252
13.7111
0.214456
13.4949
0.216142
13.2775
0.217382
13.0591
0.218471
12.84
0.219025
12.6207
0.219324
12.4012
0.219507
12.1819
0.219313
11.963
0.218916
11.7446
0.218388
11.5272
0.217408
11.3109
0.21626
11.0959
0.215065
10.8823
0.213524
10.6705
0.211842
10.4605
0.209979
10.2529
0.207593
10.048
0.204939
9.84581
0.202165
9.64658
0.199236
9.45007
0.196513
9.25601
0.194058
9.06436
0.191655
8.87515
0.189206
8.68867
0.186482
8.50536
0.183307
8.32553
0.179834
8.14916
0.176373
7.97601
0.173144
7.80587
0.170142
7.63862
0.167249
7.47436
0.164262
7.31339
0.160969
7.15609
0.157299
7.00277
0.153321
6.85358
0.149192
6.70844
0.145143
6.56711
0.14133
6.42938
0.137728
6.29517
0.134207
6.16457
0.130603
6.03776
0.126807
5.9149
0.122868
5.79599
0.11891
5.68096
0.115023
5.56972
0.111245
5.46218
0.107536
5.35836
0.103829
5.25826
0.10009
5.16196
0.0963073
5.06945
0.092509
4.98066
0.0887876
4.8953
0.0853524
4.81338
0.0819225
4.7352
0.0781783
4.66091
0.0742901
4.59058
0.0703326
4.52424
0.066342
4.4619
0.0623367
4.40359
0.0583192
4.3493
0.0542847
4.29908
0.0502201
4.25298
0.0461033
4.21106
0.0419211
4.17339
0.0376659
4.14007
0.0333254
4.11117
0.0288922
4.08681
0.0243648
4.06706
0.0197463
4.05201
0.0150529
4.04171
0.0103067
4.0362
0.00550346
4.03555
0.000653465
4.03978
-0.00423382
4.04869
-0.00890272
4.06259
-0.0139038
4.08168
-0.0190895
4.1061
-0.0244243
-0.0298349
16.8026
-0.00316465
16.7843
0.0366564
16.746
0.0764183
16.6888
0.114551
16.6133
0.150884
16.5212
0.184247
16.4137
0.214962
16.2923
0.242684
16.1583
0.268024
16.0129
0.290896
15.857
0.311758
15.6917
0.330477
15.5181
0.347234
15.3369
0.36247
15.1491
0.375551
14.9554
0.387383
14.7567
0.397323
14.5537
0.405949
14.3471
0.413259
14.1373
0.419558
13.9251
0.424508
13.7106
0.428925
13.4944
0.432348
13.277
0.43481
13.0584
0.436991
12.8394
0.438091
12.6201
0.438643
12.4005
0.439027
12.1812
0.438651
11.9623
0.437814
11.7439
0.43677
11.5265
0.434827
11.3103
0.432481
11.0952
0.430125
10.8817
0.427081
10.6698
0.423681
10.4598
0.419999
10.2521
0.415257
10.0472
0.409891
9.84501
0.40435
9.64575
0.398502
9.44926
0.393
9.25521
0.388114
9.06352
0.383347
8.8743
0.378429
8.68783
0.372951
8.50458
0.36655
8.32486
0.359561
8.14857
0.352661
7.97544
0.346272
7.80526
0.340322
7.63796
0.334552
7.47363
0.328584
7.31262
0.321986
7.15531
0.314608
7.00203
0.306608
6.8529
0.298316
6.70783
0.29022
6.56651
0.282644
6.42875
0.275492
6.2945
0.268458
6.16388
0.261219
6.0371
0.253588
5.91428
0.24569
5.7954
0.237788
5.68038
0.230048
5.56911
0.222511
5.46154
0.215107
5.35767
0.207699
5.25754
0.200212
5.1612
0.192646
5.06866
0.185051
4.97984
0.177603
4.89448
0.170714
4.81253
0.163868
4.73434
0.156373
4.66005
0.148586
4.58972
0.140657
4.52341
0.132661
4.4611
0.124642
4.40282
0.116602
4.34858
0.108529
4.2984
0.100399
4.25234
0.092167
4.21046
0.0838008
4.17283
0.0752909
4.13954
0.0666179
4.11067
0.0577558
4.08634
0.0486989
4.06662
0.039465
4.05159
0.0300892
4.04128
0.020612
4.03575
0.0110327
4.03505
0.00136082
4.03921
-0.00839521
4.04805
-0.0177438
4.06189
-0.0277483
4.08091
-0.038104
4.10524
-0.048757
-0.0595686
16.8021
-0.00485362
16.7838
0.0549838
16.7456
0.114649
16.6883
0.171856
16.6128
0.226367
16.5206
0.276401
16.4131
0.322464
16.2918
0.364056
16.1577
0.402044
16.0123
0.436369
15.8564
0.467643
15.6911
0.49578
15.5174
0.520916
15.336
0.543811
15.1482
0.563426
14.9544
0.581148
14.7557
0.596004
14.5528
0.608894
14.3462
0.619815
14.1365
0.629297
13.9242
0.636812
13.7096
0.643469
13.4933
0.648683
13.2757
0.65236
13.0572
0.655574
12.838
0.657226
12.6187
0.657994
12.3991
0.658551
12.1798
0.658018
11.9609
0.656698
11.7426
0.655096
11.5252
0.652239
11.309
0.648688
11.0939
0.645153
10.8803
0.640677
10.6685
0.635554
10.4584
0.630048
10.2506
0.623028
10.0456
0.614925
9.84337
0.606588
9.64402
0.597855
9.44749
0.589532
9.25344
0.582172
9.06175
0.575037
8.8726
0.567579
8.68627
0.559274
8.50318
0.549645
8.32355
0.539193
8.14729
0.528924
7.97414
0.519419
7.80391
0.510543
7.63658
0.501888
7.47225
0.492914
7.31124
0.482999
7.15397
0.471878
7.00075
0.459827
6.85167
0.447396
6.7066
0.435288
6.56528
0.423973
6.4275
0.41327
6.29328
0.402683
6.16273
0.391769
6.03601
0.380305
5.91323
0.368471
5.79435
0.356664
5.67929
0.345111
5.56797
0.333832
5.46035
0.322729
5.35642
0.311624
5.25623
0.300397
5.15982
0.289057
5.06719
0.277678
4.9783
0.266497
4.89289
0.256118
4.81089
0.245871
4.73266
0.234607
4.65836
0.222889
4.58805
0.210962
4.52178
0.198933
4.45955
0.186874
4.40135
0.174801
4.3472
0.162681
4.29713
0.150471
4.25118
0.138119
4.2094
0.12558
4.17186
0.112825
4.13866
0.0998248
4.10987
0.0865461
4.08559
0.0729777
4.0659
0.0591503
4.05086
0.0451298
4.0405
0.0309743
4.03488
0.0166557
4.03407
0.00217442
4.0381
-0.0124308
4.04679
-0.0264311
4.06048
-0.0414413
4.07932
-0.0569466
4.10345
-0.0728867
-0.0891277
16.8014
-0.00647124
16.7831
0.07332
16.7448
0.152901
16.6875
0.229195
16.612
0.30189
16.5198
0.368594
16.4123
0.429995
16.2909
0.485461
16.1568
0.536077
16.0113
0.581872
15.8554
0.623551
15.69
0.661145
15.5163
0.694693
15.3348
0.725258
15.1468
0.751429
14.953
0.774978
14.7543
0.794686
14.5514
0.811798
14.3449
0.826306
14.1352
0.839008
13.9228
0.849205
13.7081
0.858138
13.4916
0.865188
13.2739
0.870081
13.0552
0.874236
12.836
0.876444
12.6166
0.877412
12.3971
0.878081
12.1777
0.877405
11.9588
0.875577
11.7405
0.87336
11.5231
0.869637
11.3069
0.864901
11.0919
0.860145
10.8783
0.854307
10.6664
0.847489
10.4563
0.840131
10.2484
0.830918
10.0432
0.820092
9.84093
0.808901
9.64147
0.797312
9.44486
0.786144
9.2508
0.776236
9.05916
0.766684
8.87013
0.756603
8.684
0.745406
8.50108
0.73257
8.32153
0.71874
8.14527
0.705186
7.97209
0.692595
7.80183
0.680802
7.63447
0.669251
7.47015
0.657232
7.30918
0.643969
7.15198
0.629081
6.99885
0.612959
6.84982
0.596426
6.70475
0.580356
6.56342
0.565305
6.42566
0.551032
6.29149
0.536851
6.16104
0.522225
6.0344
0.506944
5.91164
0.491226
5.79275
0.475558
5.67763
0.460227
5.56624
0.445223
5.45854
0.430423
5.35454
0.415631
5.25425
0.400681
5.15773
0.385576
5.06498
0.370424
4.97597
0.355504
4.89051
0.341581
4.80844
0.327943
4.73016
0.312891
4.65585
0.297197
4.58558
0.28123
4.51937
0.265143
4.45723
0.249018
4.39915
0.232883
4.34513
0.216703
4.29519
0.200407
4.24938
0.183932
4.20773
0.167227
4.17031
0.150248
4.1372
0.132937
4.10849
0.115257
4.08426
0.0972101
4.06457
0.0788375
4.04948
0.0602167
4.03903
0.0414268
4.03326
0.0224303
4.03227
0.00316352
4.03612
-0.0162802
4.04464
-0.0349504
4.05812
-0.0549208
4.07673
-0.0755566
4.10063
-0.096787
-0.1185
16.8005
-0.007914
16.7822
0.0916688
16.7439
0.191179
16.6865
0.286582
16.6109
0.377462
16.5187
0.460841
16.4111
0.53757
16.2897
0.606916
16.1556
0.670136
16.01
0.727421
15.8541
0.779497
15.6887
0.826591
15.5148
0.868591
15.3332
0.906829
15.145
0.939581
14.9511
0.968885
14.7524
0.993366
14.5496
1.01466
14.3431
1.03275
14.1334
1.04871
13.9209
1.06172
13.7061
1.07297
13.4894
1.08188
13.2715
1.088
13.0527
1.09299
12.8334
1.09575
12.6139
1.09692
12.3943
1.09763
12.1749
1.09681
11.956
1.09447
11.7378
1.09158
11.5204
1.08702
11.3042
1.08114
11.0892
1.07511
10.8756
1.06796
10.6636
1.0595
10.4534
1.05026
10.2454
1.03892
10.0401
1.02541
9.83773
1.0113
9.63817
0.996873
9.44146
0.982854
9.24739
0.970311
9.05582
0.95826
8.86695
0.945472
8.68101
0.931339
8.49824
0.915344
8.31876
0.898227
8.14247
0.88147
7.96925
0.865814
7.79896
0.851089
7.63159
0.836626
7.46731
0.821513
7.30642
0.804852
7.14933
0.786174
6.99631
0.765982
6.84735
0.74539
6.70229
0.725415
6.56097
0.706627
6.42325
0.688746
6.28917
0.670938
6.15881
0.652579
6.03225
0.633506
5.90951
0.613971
5.79057
0.594492
5.67538
0.575414
5.5639
0.556707
5.4561
0.538216
5.35199
0.519747
5.25157
0.501093
5.15491
0.482234
5.06203
0.46331
4.97289
0.444645
4.88735
0.427117
4.80521
0.410081
4.72689
0.39122
4.65257
0.371512
4.58234
0.351458
4.51621
0.331277
4.45417
0.311063
4.39621
0.290842
4.34233
0.270581
4.29254
0.250198
4.24686
0.229611
4.20533
0.208755
4.16801
0.187568
4.13497
0.165977
4.10631
0.143925
4.08209
0.121431
4.06236
0.0985665
4.04716
0.0754178
4.03653
0.052053
4.03056
0.0284036
4.02937
0.00435277
4.033
-0.0199097
4.0413
-0.0432488
4.05458
-0.0682029
4.07298
-0.0939583
4.09668
-0.120482
-0.147707
16.7994
-0.0092227
16.781
0.110019
16.7427
0.229482
16.6853
0.344024
16.6096
0.453097
16.5173
0.553156
16.4097
0.645203
16.2882
0.728436
16.154
0.804237
16.0084
0.873037
15.8524
0.935502
15.6869
0.992131
15.5129
1.04263
15.3312
1.08853
15.1428
1.12789
14.9489
1.16288
14.7502
1.19205
14.5473
1.21752
14.3409
1.23918
14.1312
1.25844
13.9185
1.2744
13.7035
1.28799
13.4866
1.29876
13.2685
1.30612
13.0496
1.31185
12.8302
1.31514
12.6106
1.31654
12.391
1.31721
12.1716
1.31622
11.9526
1.31341
11.7344
1.3098
11.517
1.30441
11.3007
1.29743
11.0858
1.29007
10.8721
1.28162
10.66
1.2716
10.4499
1.26043
10.2418
1.247
10.0363
1.23086
9.83384
1.2138
9.63418
1.19653
9.43736
1.17967
9.24327
1.1644
9.05178
1.14976
8.86306
1.13419
8.6773
1.1171
8.49463
1.09801
8.31516
1.0777
8.13883
1.0578
7.96555
1.03909
7.79525
1.0214
7.62789
1.00398
7.46369
0.985711
7.30296
0.965584
7.14603
0.943103
6.99315
0.918863
6.84428
0.894266
6.69925
0.870445
6.55796
0.84792
6.42032
0.826388
6.28633
0.804929
6.15606
0.782844
6.02955
0.760015
5.90679
0.73673
5.78779
0.713492
5.67251
0.690689
5.56092
0.668301
5.453
0.646132
5.34876
0.623991
5.2482
0.601651
5.15138
0.579049
5.05834
0.556346
4.96907
0.533917
4.88346
0.512726
4.80126
0.492282
4.7229
0.469581
4.64858
0.445828
4.57839
0.421652
4.51233
0.397341
4.45038
0.373014
4.39253
0.348694
4.33877
0.324339
4.2891
0.299865
4.24352
0.275188
4.20207
0.250207
4.16481
0.224834
4.1318
0.198983
4.10312
0.1726
4.07884
0.145715
4.05899
0.11842
4.04361
0.0908028
4.03275
0.0629081
4.02652
0.0346348
4.02508
0.0057895
4.02849
-0.0233213
4.03661
-0.0513683
4.04973
-0.0813156
4.06798
-0.112211
4.09154
-0.144048
-0.176799
16.798
-0.010641
16.7796
0.128389
16.7413
0.267815
16.6838
0.401531
16.6081
0.528803
16.5157
0.645554
16.408
0.752912
16.2863
0.850043
16.1522
0.938406
16.0065
1.01874
15.8504
1.09159
15.6847
1.15778
15.5106
1.2168
15.3287
1.27035
15.1403
1.31633
14.9462
1.35695
14.7475
1.39076
14.5446
1.4204
14.3381
1.44566
14.1283
1.46824
13.9155
1.48726
13.7003
1.5032
13.4832
1.51582
13.2649
1.52444
13.0459
1.53082
12.8264
1.53462
12.6067
1.53628
12.3871
1.53684
12.1676
1.53567
11.9486
1.53244
11.7303
1.52806
11.5129
1.52184
11.2965
1.51381
11.0816
1.50505
10.8679
1.49528
10.6558
1.48375
10.4456
1.47063
10.2374
1.4551
10.0319
1.43642
9.82931
1.41638
9.62956
1.39629
9.43263
1.3766
9.23851
1.35853
9.04708
1.34119
8.85848
1.32279
8.67283
1.30275
8.49021
1.28064
8.3107
1.2572
8.13429
1.23421
7.96094
1.21244
7.79062
1.19171
7.62334
1.17127
7.45929
1.14976
7.29878
1.1261
7.14208
1.0998
6.98938
1.07157
6.84061
1.04303
6.69564
1.01542
6.5544
0.989166
6.41684
0.963944
6.28295
0.938822
6.15276
0.913041
6.02627
0.886501
5.90347
0.859527
5.78437
0.832586
5.66898
0.806081
5.55726
0.780024
5.4492
0.754192
5.34481
0.728377
5.24411
0.702352
5.14714
0.676017
5.05396
0.649527
4.96457
0.623303
4.8789
0.598397
4.79665
0.574533
4.71827
0.547966
4.64396
0.520139
4.57378
0.491823
4.50776
0.463363
4.44587
0.434904
4.38809
0.406476
4.3344
0.378029
4.28479
0.349478
4.23925
0.320729
4.19781
0.291648
4.16053
0.26211
4.12749
0.23203
4.09873
0.201362
4.0743
0.170144
4.05424
0.138479
4.03859
0.106452
4.02744
0.0740619
4.02092
0.041157
4.01925
0.00745502
4.02247
-0.0265405
4.03046
-0.0593582
4.04349
-0.09435
4.0617
-0.130416
4.08523
-0.16758
-0.205827
16.7964
-0.0120601
16.778
0.146768
16.7396
0.306181
16.6821
0.459111
16.6063
0.604595
16.5138
0.73805
16.406
0.860719
16.2842
0.971764
16.15
1.07267
16.0041
1.16457
15.8479
1.24778
15.6822
1.32354
15.5079
1.39111
15.326
1.45228
15.1374
1.50489
14.9432
1.55112
14.7444
1.58953
14.5415
1.62336
14.3349
1.65226
14.125
1.67816
13.9119
1.70032
13.6965
1.71862
13.4793
1.73302
13.2608
1.74293
13.0417
1.7499
12.8222
1.75417
12.6023
1.75612
12.3826
1.75656
12.1631
1.75518
11.9439
1.75158
11.7256
1.74643
11.5081
1.73933
11.2916
1.73028
11.0766
1.72008
10.8629
1.70893
10.6507
1.69594
10.4405
1.68084
10.2325
1.66318
10.0268
1.64202
9.82419
1.61904
9.62436
1.59612
9.42731
1.57364
9.23313
1.55271
9.04173
1.53259
8.8532
1.51133
8.66759
1.48836
8.48493
1.46331
8.30532
1.43681
8.1288
1.41074
7.95537
1.38587
7.78507
1.362
7.61792
1.33842
7.45408
1.31359
7.29387
1.28631
7.13748
1.25618
6.98499
1.22406
6.83636
1.19166
6.69148
1.1603
6.5503
1.13035
6.41283
1.10142
6.27902
1.07263
6.14887
1.0432
6.02237
1.013
5.8995
0.982392
5.78028
0.951804
5.66474
0.921617
5.55287
0.891892
5.44466
0.862403
5.34013
0.832909
5.2393
0.803181
5.14221
0.773107
5.04891
0.742822
4.95944
0.712775
4.87373
0.684105
4.79146
0.656804
4.71306
0.626365
4.63875
0.594449
4.56858
0.561993
4.50255
0.529386
4.44067
0.49679
4.38289
0.464257
4.32918
0.431737
4.27953
0.39913
4.23393
0.366326
4.19241
0.333166
4.15504
0.299487
4.12187
0.265203
4.09293
0.230295
4.06827
0.194804
4.04793
0.158828
4.03195
0.122428
4.02047
0.0855478
4.01365
0.0479723
4.01178
0.00932729
4.01489
-0.0296555
4.02286
-0.0673293
4.03594
-0.107423
4.05421
-0.148685
4.07779
-0.191159
-0.234827
16.7946
-0.0133887
16.7762
0.165161
16.7378
0.344583
16.6801
0.516772
16.6042
0.680482
16.5116
0.830661
16.4037
0.968644
16.2818
1.09363
16.1474
1.20707
16.0014
1.31054
15.8451
1.4041
15.6792
1.48942
15.5048
1.56554
15.3228
1.63428
15.1342
1.69354
14.9399
1.74539
14.741
1.7884
14.5379
1.82647
14.3311
1.85906
14.121
1.88826
13.9077
1.9136
13.6921
1.93422
13.4748
1.95034
13.2562
1.96156
13.037
1.9691
12.8174
1.97378
12.5974
1.97608
12.3776
1.97637
12.158
1.97479
11.9387
1.97089
11.7201
1.96498
11.5025
1.95696
11.2859
1.94689
11.0708
1.93518
10.8572
1.92255
10.645
1.90811
10.4348
1.89101
10.2268
1.87118
10.0212
1.84761
9.81853
1.82176
9.61861
1.79605
9.42144
1.77082
9.22717
1.74698
9.03575
1.72401
8.8472
1.69988
8.66155
1.67401
8.47877
1.64608
8.299
1.61659
8.12233
1.5874
7.94883
1.55938
7.77857
1.53226
7.61162
1.50537
7.44809
1.47712
7.28824
1.44616
7.13222
1.4122
6.97998
1.37629
6.8315
1.34014
6.68673
1.30508
6.54563
1.27145
6.40823
1.23882
6.27449
1.20637
6.14434
1.17335
6.01778
1.13956
5.89482
1.10536
5.77545
1.07117
5.65975
1.03732
5.54772
1.00392
5.43936
0.970762
5.33469
0.937575
5.23376
0.904115
5.13659
0.870272
5.04324
0.836174
4.95373
0.802285
4.86801
0.769819
4.78575
0.739062
4.70735
0.704767
4.63302
0.668774
4.56282
0.632197
4.49674
0.595469
4.43477
0.55876
4.37688
0.522139
4.32305
0.485575
4.27324
0.448939
4.22747
0.412091
4.18578
0.374861
4.14821
0.337059
4.11482
0.298596
4.08563
0.259485
4.06066
0.219774
4.03996
0.179529
4.02362
0.138769
4.0118
0.0973636
4.00476
0.0550105
4.00281
0.0112847
4.00594
-0.0327867
4.01401
-0.0753997
4.02722
-0.120637
4.04563
-0.167091
4.0693
-0.214825
-0.263805
16.7925
-0.0145168
16.7741
0.183546
16.7357
0.383021
16.6779
0.57452
16.6019
0.756477
16.5092
0.923405
16.4011
1.07671
16.2791
1.21566
16.1445
1.34165
15.9983
1.45671
15.8419
1.56059
15.6759
1.65542
15.5013
1.74006
15.3193
1.81632
15.1306
1.88224
14.9362
1.93974
14.7372
1.98743
14.5339
2.0298
14.3268
2.06614
14.1165
2.09861
13.903
2.12709
13.6872
2.15001
13.4698
2.16776
13.251
2.1803
13.0317
2.18839
12.8121
2.19346
12.592
2.19613
12.3721
2.19632
12.1523
2.19452
11.9328
2.19041
11.714
2.18377
11.4962
2.17475
11.2795
2.16364
11.0643
2.15039
10.8507
2.13616
10.6386
2.12022
10.4285
2.1011
10.2206
2.07903
10.0151
2.05315
9.81233
2.02453
9.61232
1.99606
9.415
1.96814
9.22059
1.94139
9.02909
1.91551
8.84045
1.88852
8.65468
1.85979
8.47172
1.82904
8.29173
1.79658
8.11491
1.76423
7.94134
1.73294
7.77116
1.70244
7.60446
1.67207
7.44131
1.64027
7.28189
1.60558
7.12627
1.56782
6.97432
1.52824
6.82602
1.48845
6.68136
1.44974
6.54034
1.41246
6.403
1.37617
6.26928
1.34009
6.13911
1.30352
6.01246
1.26621
5.88936
1.22846
5.76983
1.19069
5.65394
1.15321
5.54175
1.11611
5.43326
1.07925
5.32849
1.04234
5.22749
1.00511
5.13031
0.967455
5.03697
0.929515
4.94748
0.891767
4.86181
0.855496
4.7796
0.821267
4.70121
0.78316
4.62684
0.743142
4.55654
0.70249
4.49032
0.661692
4.42816
0.620917
4.37005
0.580243
4.31596
0.53967
4.26587
0.499034
4.21981
0.458149
4.17783
0.416841
4.13997
0.374918
4.10628
0.332292
4.07676
0.289001
4.05144
0.245101
4.03036
0.200603
4.01371
0.155426
4.0017
0.109369
3.99459
0.0621194
3.99266
0.0132165
3.99591
-0.036037
4.00416
-0.0836526
4.01757
-0.134047
4.03613
-0.18565
4.05987
-0.238559
-0.292725
16.7902
-0.0153977
16.7718
0.201888
16.7334
0.421484
16.6755
0.632362
16.5994
0.832592
16.5065
1.0163
16.3983
1.18495
16.2761
1.3379
16.1413
1.47645
15.9949
1.60309
15.8382
1.71726
15.6721
1.82156
15.4975
1.91465
15.3154
1.99837
15.1267
2.07096
14.9323
2.13418
14.733
2.18665
14.5294
2.23342
14.322
2.27358
14.1113
2.30925
13.8976
2.34082
13.6817
2.36595
13.4642
2.38525
13.2454
2.3991
13.026
2.40778
12.8063
2.41318
12.5861
2.41627
12.366
2.41641
12.1461
2.41442
11.9264
2.41017
11.7073
2.40283
11.4893
2.39277
11.2724
2.38056
11.0571
2.36571
10.8435
2.34974
10.6315
2.33222
10.4215
2.31107
10.2138
2.28671
10.0084
2.25858
9.80558
2.22735
9.60546
2.19618
9.40797
2.16563
9.21337
2.13598
9.02173
2.10716
8.83293
2.07733
8.64695
2.04576
8.46377
2.01221
8.28354
1.97681
8.10655
1.94123
7.93295
1.90655
7.76289
1.8725
7.59649
1.83846
7.43378
1.80298
7.27483
1.76454
7.11963
1.72302
6.96798
1.67988
6.81984
1.63659
6.67529
1.59429
6.53436
1.5534
6.39704
1.51349
6.26331
1.47381
6.13309
1.43374
6.00632
1.39297
5.88306
1.35172
5.76336
1.31039
5.64729
1.26928
5.53494
1.22847
5.42634
1.18785
5.32151
1.14717
5.22051
1.10612
5.12337
1.06459
5.03012
1.02277
4.94073
0.981152
4.85513
0.941096
4.77301
0.903388
4.69464
0.861527
4.6202
0.817581
4.54975
0.77294
4.48329
0.728147
4.42083
0.683377
4.36237
0.638701
4.30789
0.594151
4.25739
0.549535
4.21093
0.504614
4.16857
0.459203
4.13035
0.413139
4.0963
0.366346
4.06643
0.318871
4.04078
0.270752
4.01945
0.221927
4.00264
0.172235
3.99058
0.121428
3.98351
0.069188
3.9817
0.0150315
3.98514
-0.0394762
3.99361
-0.0921259
4.00722
-0.147651
4.02589
-0.204318
4.04961
-0.262283
-0.321515
16.7877
-0.0164313
16.7694
0.220255
16.7309
0.459984
16.6729
0.690308
16.5967
0.908839
16.5036
1.10937
16.3952
1.29338
16.2727
1.46037
16.1377
1.6115
15.991
1.74974
15.8341
1.87415
15.6678
1.98783
15.4932
2.08929
15.3112
2.1804
15.1225
2.25965
14.928
2.32871
14.7285
2.38611
14.5245
2.43739
14.3166
2.48145
14.1056
2.52026
13.8917
2.55478
13.6756
2.58205
13.458
2.6028
13.2392
2.61796
13.0197
2.62724
12.7999
2.63296
12.5797
2.63648
12.3595
2.63665
12.1394
2.63452
11.9194
2.63018
11.7
2.6222
11.4817
2.61103
11.2646
2.59764
11.0492
2.58115
10.8356
2.5633
10.6238
2.54409
10.414
2.52089
10.2065
2.49421
10.0011
2.4639
9.79825
2.43023
9.59799
2.39644
9.40029
2.36333
9.20546
2.33082
9.01361
2.29901
8.82458
2.26636
8.63836
2.23199
8.45494
2.19563
8.27447
2.15728
8.09732
2.11837
7.92373
2.08014
7.75382
2.04241
7.58777
2.00452
7.42553
1.96522
7.26705
1.92301
7.11226
1.87781
6.96091
1.83124
6.81293
1.78458
6.66846
1.73876
6.52757
1.69428
6.39025
1.65081
6.25648
1.60759
6.12617
1.56405
5.99928
1.51987
5.87585
1.47515
5.75598
1.43026
5.63975
1.3855
5.52726
1.34096
5.41858
1.29652
5.31376
1.25199
5.21281
1.20706
5.11579
1.16161
5.02269
1.11586
4.93346
1.07038
4.84797
1.02659
4.76594
0.985414
4.68759
0.939876
4.61305
0.892122
4.54237
0.843611
4.4756
0.794919
4.41274
0.746237
4.35382
0.697622
4.29885
0.649122
4.24786
0.600526
4.20093
0.551547
4.15814
0.501991
4.11954
0.451739
4.08515
0.400738
4.055
0.349025
4.02914
0.296611
4.00769
0.24337
3.99085
0.189073
3.97885
0.133435
3.9719
0.0761305
3.97026
0.0166714
3.97392
-0.043132
3.9826
-0.100805
3.99634
-0.161387
4.01501
-0.222989
4.03859
-0.285869
-0.350069
16.7851
-0.0175037
16.7667
0.238615
16.7282
0.498522
16.6701
0.748366
16.5937
0.98523
16.5005
1.20262
16.3918
1.40204
16.2691
1.5831
16.1337
1.74685
15.9868
1.89667
15.8296
2.03129
15.6632
2.15426
15.4885
2.26396
15.3066
2.36238
15.1179
2.44831
14.9233
2.52331
14.7236
2.58585
14.5192
2.64177
14.3108
2.6898
14.0994
2.73167
13.8852
2.76898
13.669
2.79831
13.4513
2.82042
13.2325
2.83685
13.0129
2.84678
12.7931
2.85279
12.5728
2.85677
12.3524
2.85705
12.1321
2.85484
11.9118
2.85045
11.6921
2.84188
11.4736
2.82956
11.2564
2.81488
11.0408
2.79671
10.8272
2.77686
10.6155
2.75582
10.4058
2.73058
10.1985
2.70155
9.99326
2.66913
9.79029
2.63321
9.58983
2.5969
9.39189
2.56127
9.19677
2.52594
9.00467
2.49112
8.8154
2.45564
8.6289
2.41849
8.44524
2.37929
8.26457
2.33796
8.0873
2.29564
7.91376
2.25368
7.74406
2.21211
7.57835
2.17023
7.41658
2.12698
7.25858
2.08102
7.10415
2.03224
6.95304
1.98235
6.80518
1.93244
6.66075
1.88319
6.51988
1.83515
6.38254
1.78815
6.24869
1.74143
6.11829
1.69446
5.99127
1.64689
5.86768
1.59874
5.74765
1.55029
5.63129
1.50186
5.5187
1.45354
5.41
1.40523
5.30523
1.35675
5.20441
1.30787
5.10757
1.25846
5.01468
1.20875
4.92564
1.15942
4.84027
1.11196
4.75833
1.06735
4.67998
1.01823
4.6053
0.966802
4.53435
0.914561
4.46719
0.862078
4.40385
0.809568
4.3444
0.757076
4.28888
0.704642
4.23737
0.652033
4.18998
0.598944
4.14679
0.545182
4.10786
0.490672
4.07321
0.435391
4.04287
0.379362
4.01692
0.32256
3.99547
0.264815
3.97871
0.205839
3.96683
0.145311
3.96006
0.0828956
3.95862
0.0181138
3.96248
-0.0469871
3.9713
-0.109623
3.98505
-0.175134
4.00356
-0.241505
4.02685
-0.309154
-0.378265
16.7822
-0.0185555
16.7638
0.256987
16.7252
0.5371
16.6671
0.806544
16.5905
1.06178
16.4971
1.29609
16.3882
1.51093
16.2651
1.70612
16.1295
1.88254
15.9822
2.04393
15.8248
2.1887
15.6582
2.32087
15.4835
2.43866
15.3015
2.5443
15.1129
2.63691
14.9183
2.71798
14.7182
2.78588
14.5134
2.84659
14.3046
2.89866
14.0927
2.94352
13.8783
2.98345
13.6618
3.01473
13.4441
3.03814
13.2252
3.05577
13.0056
3.0664
12.7857
3.0727
12.5653
3.07712
12.3448
3.07762
12.1242
3.07537
11.9037
3.07095
11.6838
3.06183
11.465
3.04833
11.2476
3.03228
11.0319
3.01238
10.8183
2.99044
10.6067
2.96743
10.3972
2.94014
10.1899
2.9088
9.98475
2.87432
9.78162
2.83633
9.58091
2.79761
9.38269
2.75949
9.18725
2.72139
8.99486
2.68351
8.80533
2.64516
8.61858
2.60524
8.43473
2.56314
8.25392
2.51877
8.07659
2.47297
7.90315
2.42713
7.73368
2.38157
7.56831
2.33561
7.40698
2.28831
7.24939
2.2386
7.09524
2.1864
6.9443
2.13328
6.79652
2.08023
6.65207
2.02764
6.51117
1.97606
6.37379
1.92553
6.23986
1.87537
6.10935
1.82496
5.98222
1.77402
5.85851
1.72245
5.73834
1.67045
5.6219
1.61831
5.50927
1.56616
5.40059
1.51391
5.29593
1.46141
5.19531
1.40849
5.0987
1.35507
5.00604
1.3014
4.9172
1.24826
4.83194
1.19722
4.75007
1.14921
4.67169
1.09661
4.59684
1.04166
4.52557
0.985827
4.45798
0.929665
4.39414
0.873404
4.33413
0.817084
4.27807
0.760705
4.22608
0.70402
4.17829
0.646744
4.13477
0.588697
4.0956
0.529845
4.06079
0.470199
4.03039
0.409765
4.00446
0.348489
3.98311
0.286166
3.96648
0.222462
3.95478
0.157012
3.94821
0.0894668
3.94695
0.019374
3.95094
-0.0509747
3.95977
-0.118456
3.97336
-0.18872
3.99153
-0.259677
4.01434
-0.331963
-0.405979
16.7791
-0.0194639
16.7608
0.275325
16.7221
0.575723
16.6638
0.864855
16.5871
1.1385
16.4934
1.38978
16.3842
1.62009
16.2609
1.82945
16.1249
2.01859
15.9773
2.19154
15.8195
2.34643
15.6527
2.48767
15.478
2.6134
15.2961
2.72619
15.1076
2.82545
14.9128
2.9127
14.7125
2.98621
14.5073
3.05184
14.2979
3.10803
14.0856
3.15584
13.8708
3.19821
13.6542
3.23133
13.4364
3.25598
13.2174
3.27476
12.9977
3.2861
12.7777
3.2927
12.5572
3.29755
12.3365
3.29832
12.1158
3.29612
11.8951
3.29166
11.6749
3.28199
11.4559
3.26732
11.2384
3.24979
11.0227
3.22815
10.809
3.20406
10.5975
3.17895
10.388
3.14963
10.1808
3.11604
9.97554
3.07956
9.7722
3.03968
9.57116
2.99864
9.37261
2.95805
9.17681
2.91718
8.98412
2.8762
8.79437
2.83492
8.60743
2.79218
8.42346
2.74712
8.2426
2.69963
8.06528
2.65028
7.89197
2.60044
7.72276
2.55078
7.55771
2.50067
7.39674
2.44928
7.23948
2.39586
7.08551
2.34037
6.93463
2.28416
6.78685
2.22802
6.64234
2.17215
6.50135
2.11704
6.3639
2.06298
6.22989
2.00938
6.09929
1.95556
5.97209
1.90122
5.8483
1.84625
5.72806
1.79069
5.61157
1.73479
5.49898
1.67875
5.39038
1.6225
5.28589
1.5659
5.1855
1.50888
5.08914
1.45143
4.99671
1.39383
4.90804
1.33693
4.82287
1.28239
4.74105
1.23103
4.6626
1.17506
4.58754
1.11671
4.51594
1.05742
4.44792
0.997686
4.38359
0.937733
4.32306
0.877606
4.26653
0.817243
4.21415
0.756398
4.16606
0.694841
4.12233
0.632425
4.08303
0.569146
4.04819
0.505046
4.01783
0.440126
3.99201
0.374308
3.97081
0.30736
3.95437
0.238905
3.94285
0.168528
3.93645
0.0958628
3.93532
0.0205106
3.93931
-0.0549694
3.94797
-0.127115
3.96118
-0.201927
3.9788
-0.277299
4.00098
-0.354136
-0.433106
16.7756
-0.0199825
16.7575
0.293462
16.7188
0.614378
16.6603
0.92331
16.5834
1.21541
16.4895
1.48372
16.3801
1.72952
16.2564
1.9531
16.12
2.15501
15.972
2.33952
15.8139
2.50449
15.6469
2.65472
15.4721
2.78822
15.2902
2.90805
15.1017
3.01394
14.907
3.10746
14.7063
3.18682
14.5007
3.25752
14.2908
3.31789
14.078
3.36863
13.8629
3.41327
13.6461
3.44814
13.4281
3.474
13.209
3.49385
12.9892
3.50593
12.7691
3.51284
12.5485
3.51807
12.3277
3.51917
12.1068
3.51703
11.8859
3.51249
11.6656
3.50229
11.4465
3.48646
11.2289
3.4674
11.0131
3.44399
10.7994
3.41776
10.5879
3.39045
10.3784
3.35913
10.171
3.3234
9.9656
3.28496
9.76194
3.24334
9.5605
3.20009
9.36157
3.15698
9.16542
3.11333
8.97245
3.06918
8.78252
3.02484
8.59548
2.97923
8.41147
2.93112
8.23067
2.88043
8.05345
2.82751
7.88031
2.77359
7.71136
2.71972
7.54658
2.66546
7.38586
2.60999
7.22882
2.5529
7.0749
2.49429
6.92397
2.43509
6.77609
2.3759
6.63146
2.31679
6.49033
2.25817
6.35279
2.20052
6.21872
2.14345
6.08806
2.08622
5.96083
2.02845
5.83703
1.97005
5.71678
1.91093
5.60033
1.85125
5.48783
1.79125
5.37939
1.73094
5.27509
1.6702
5.17495
1.60902
5.07885
1.54753
4.98662
1.48605
4.89807
1.42548
4.81294
1.36752
4.73113
1.31284
4.65256
1.25363
4.57728
1.19199
4.50536
1.12934
4.43694
1.06611
4.37218
1.00249
4.31124
0.938542
4.25436
0.874126
4.20173
0.809028
4.15348
0.743096
4.10968
0.67623
4.07037
0.608451
4.0356
0.539823
4.00536
0.470357
3.97971
0.399959
3.9587
0.32837
3.94244
0.255165
3.93108
0.179881
3.9248
0.102147
3.92367
0.0216396
3.92748
-0.0587728
3.93571
-0.13535
3.9483
-0.214513
3.96518
-0.294184
3.98661
-0.375564
-0.459584
16.7722
-0.0207898
16.754
0.311646
16.7153
0.653088
16.6566
0.981926
16.5795
1.29252
16.4853
1.57793
16.3756
1.83926
16.2516
2.07709
16.1148
2.29183
15.9664
2.48787
15.808
2.66291
15.6407
2.82203
15.4658
2.96317
15.2839
3.08994
15.0954
3.20242
14.9006
3.30227
14.6997
3.38768
14.4937
3.46358
14.2833
3.5282
14.0701
3.5819
13.8547
3.62867
13.6376
3.6652
13.4194
3.69226
13.2001
3.7131
12.9801
3.72591
12.7598
3.73315
12.5392
3.73871
12.3182
3.74013
12.0972
3.73808
11.8763
3.73338
11.656
3.72262
11.4367
3.70568
11.2191
3.68506
11.0032
3.65991
10.7894
3.63158
10.5778
3.60202
10.3682
3.56874
10.1606
3.53099
9.95488
3.49068
9.75081
3.4474
9.54888
3.40202
9.34954
3.35632
9.15305
3.30982
8.95982
3.26242
8.7698
3.21486
8.58275
3.16627
8.39883
3.11505
8.2182
3.06105
8.04116
3.00455
7.86821
2.94654
7.69951
2.88842
7.53493
2.83003
7.37434
2.77058
7.21735
2.70989
7.06336
2.64828
6.91225
2.5862
6.76418
2.52397
6.61936
2.46162
6.47805
2.39948
6.3404
2.33817
6.2063
2.27756
6.07563
2.21688
5.94843
2.15566
5.82469
2.09378
5.70453
2.03109
5.58818
1.9676
5.47584
1.90358
5.36761
1.83917
5.26354
1.77426
5.16365
1.70892
5.06777
1.6434
4.97568
1.57814
4.88717
1.51399
4.80204
1.45266
4.72019
1.39469
4.64148
1.33234
4.56597
1.2675
4.49376
1.20155
4.42501
1.13485
4.35992
1.06757
4.29872
0.999741
4.24167
0.931184
4.18895
0.861743
4.1407
0.791354
4.09695
0.719974
4.05776
0.647642
4.02315
0.574442
3.9931
0.500402
3.96764
0.425422
3.9468
0.349207
3.93068
0.271281
3.91942
0.191142
3.91312
0.108442
3.91181
0.0229527
3.91514
-0.0621051
3.92264
-0.142847
3.93437
-0.226237
3.95041
-0.310224
3.97107
-0.396226
-0.485414
16.7685
-0.0217512
16.7503
0.329821
16.7115
0.69186
16.6527
1.04072
16.5754
1.36985
16.4809
1.67242
16.3709
1.9493
16.2465
2.2014
16.1093
2.42903
15.9606
2.6366
15.8018
2.82171
15.6342
2.98967
15.459
3.1383
15.277
3.27192
15.0885
3.39094
14.8937
3.49712
14.6926
3.58876
14.4862
3.66995
14.2755
3.73891
14.0618
3.79561
13.8461
3.84441
13.6287
3.88254
13.4102
3.9108
13.1907
3.93256
12.9705
3.9461
12.75
3.95369
12.5292
3.95949
12.3081
3.96119
12.087
3.95921
11.8661
3.95424
11.6459
3.94289
11.4267
3.92489
11.209
3.90272
10.993
3.87587
10.7791
3.84553
10.5673
3.81375
10.3575
3.77857
10.1495
3.73897
9.94336
3.69686
9.73878
3.65198
9.5363
3.6045
9.33651
3.55612
9.13971
3.50662
8.94627
3.45585
8.75624
3.4049
8.56932
3.3532
8.38558
3.29879
8.20522
3.24141
8.02844
3.18133
7.8557
3.11929
7.6872
3.05692
7.52275
2.99448
7.36215
2.93118
7.20505
2.86699
7.05085
2.80249
6.89944
2.7376
6.75108
2.67233
6.606
2.6067
6.46447
2.54101
6.3267
2.47594
6.19259
2.41167
6.06198
2.34749
5.93488
2.28277
5.81129
2.21737
5.69131
2.15108
5.57514
2.08377
5.46302
2.0157
5.35505
1.94715
5.25122
1.87808
5.15154
1.8086
5.05582
1.73912
4.9638
1.67015
4.87526
1.60252
4.79006
1.53787
4.70813
1.47662
4.62925
1.41122
4.55351
1.34325
4.48106
1.274
4.41208