/*--------------------------------*- C++ -*----------------------------------*\
| =========                 |                                                 |
| \\      /  F ield         | OpenFOAM: The Open Source CFD Toolbox           |
|  \\    /   O peration     | Version:  4.1                                   |
|   \\  /    A nd           | Web:      www.OpenFOAM.org                      |
|    \\/     M anipulation  |                                                 |
\*---------------------------------------------------------------------------*/
FoamFile
{
    version     2.0;
    format      ascii;
    class       volScalarField;
    location    "1";
    object      p;
}
// * * * * * * * * * * * * * * * * * * * * * * * * * * * * * * * * * * * * * //

dimensions      [0 2 -2 0 0 0 0];

internalField   nonuniform List<scalar> 
26785
(
-2.40925
-1.95966
-1.69745
-1.47833
-1.31798
-1.14202
-1.03452
-0.941273
-0.881415
-0.823673
-0.778416
-0.728397
-0.679396
-0.62551
-0.580215
-0.536166
-0.495632
-0.455033
-0.416401
-0.37717
-0.339284
-0.300647
-0.263155
-0.225461
-0.189396
-0.153834
-0.120147
-0.0875386
-0.0571025
-0.028141
-0.00141372
0.023637
0.0465193
0.0678755
0.0875513
0.105899
0.122566
0.137886
0.151759
0.164393
0.175624
0.185662
0.194494
0.202287
0.209036
0.214882
0.219556
0.222809
0.225943
0.227996
0.229908
0.231006
0.23192
0.232133
0.232061
0.231403
0.230429
0.228945
0.2271
0.224824
0.222197
0.219222
0.215911
0.212314
0.208413
0.204292
0.199894
0.195316
0.190491
0.185531
0.180352
0.175065
0.169586
0.164031
0.158312
0.152538
0.146627
0.140683
0.134628
0.128555
0.122391
0.116226
0.109991
0.103762
0.0974798
0.0912138
0.0849075
0.0786215
0.0723056
0.0660136
0.0596999
0.05341
0.0471038
0.0408206
0.0345246
0.0282478
0.0219621
0.0156856
0.00943143
0.00305126
-2.40961
-1.96084
-1.69834
-1.47933
-1.31853
-1.14291
-1.03499
-0.941818
-0.881712
-0.824024
-0.778628
-0.728629
-0.679576
-0.625735
-0.580364
-0.536309
-0.495719
-0.455126
-0.416453
-0.377228
-0.339312
-0.300687
-0.263171
-0.225484
-0.189397
-0.15384
-0.120134
-0.0875291
-0.0570769
-0.0281192
-0.00137997
0.0236673
0.0465609
0.067916
0.0875958
0.105936
0.122607
0.137925
0.151799
0.164428
0.175661
0.185698
0.194531
0.202323
0.209072
0.214909
0.219571
0.222852
0.225963
0.228036
0.229928
0.231039
0.231938
0.232161
0.23208
0.231429
0.230448
0.228969
0.22712
0.224846
0.222216
0.219243
0.21593
0.212333
0.208431
0.204308
0.19991
0.195331
0.190506
0.185544
0.180366
0.175076
0.169598
0.164041
0.158324
0.152548
0.146637
0.140692
0.134638
0.128563
0.122401
0.116234
0.11
0.10377
0.0974886
0.091221
0.0849162
0.078629
0.0723146
0.0660216
0.0597094
0.0534187
0.047114
0.0408302
0.0345357
0.0282584
0.0219744
0.0156973
0.00944621
0.00305367
-2.41146
-1.96233
-1.69961
-1.48046
-1.31929
-1.14377
-1.03558
-0.942432
-0.882159
-0.82448
-0.778969
-0.728949
-0.679852
-0.626019
-0.580589
-0.536514
-0.495874
-0.455267
-0.416555
-0.377319
-0.339373
-0.300741
-0.263199
-0.225502
-0.189391
-0.153826
-0.1201
-0.0874851
-0.0570155
-0.0280513
-0.00129974
0.0237518
0.0466556
0.0680138
0.0876962
0.106033
0.122706
0.138022
0.151897
0.164522
0.175755
0.18579
0.194622
0.202411
0.209157
0.214985
0.219642
0.222933
0.226033
0.228112
0.229994
0.231109
0.231999
0.232226
0.23214
0.231492
0.230506
0.229027
0.227175
0.224901
0.222267
0.219292
0.215976
0.212377
0.208472
0.204347
0.199946
0.195364
0.190537
0.185572
0.180393
0.1751
0.169621
0.164061
0.158343
0.152564
0.146653
0.140705
0.134651
0.128574
0.122412
0.116243
0.110009
0.103778
0.0974973
0.0912289
0.0849247
0.078637
0.0723234
0.0660302
0.0597191
0.0534286
0.0471252
0.0408419
0.0345488
0.0282721
0.0219898
0.0157124
0.00946895
0.00304627
-2.41445
-1.96465
-1.7016
-1.48218
-1.32056
-1.14508
-1.03659
-0.943451
-0.882997
-0.825291
-0.779637
-0.729552
-0.680388
-0.626546
-0.581045
-0.536923
-0.496211
-0.45556
-0.416788
-0.377514
-0.339518
-0.300854
-0.263269
-0.225541
-0.189391
-0.153799
-0.120041
-0.0874032
-0.0569072
-0.0279254
-0.0011555
0.0239073
0.0468243
0.0681894
0.0878749
0.10621
0.122883
0.138199
0.152071
0.164693
0.175922
0.185954
0.194783
0.202566
0.209306
0.215123
0.219771
0.223065
0.226155
0.228235
0.230108
0.231223
0.232106
0.232332
0.232242
0.231592
0.230602
0.22912
0.227263
0.224985
0.222347
0.219366
0.216046
0.212442
0.208532
0.204401
0.199996
0.195409
0.190579
0.185609
0.180426
0.175129
0.169647
0.164083
0.158362
0.15258
0.146667
0.140716
0.134661
0.128581
0.122418
0.116248
0.110013
0.103781
0.0975006
0.0912318
0.0849281
0.0786405
0.072328
0.0660354
0.0597258
0.0534364
0.0471349
0.0408532
0.0345622
0.0282873
0.0220074
0.0157303
0.00949442
0.00303565
-2.41825
-1.96772
-1.70423
-1.48445
-1.32232
-1.14683
-1.03804
-0.94486
-0.884218
-0.826449
-0.780624
-0.730431
-0.681184
-0.627311
-0.581729
-0.537535
-0.496729
-0.456007
-0.417153
-0.377816
-0.339748
-0.301028
-0.26338
-0.225599
-0.189395
-0.153758
-0.119958
-0.087285
-0.056755
-0.0277465
-0.000953771
0.0241256
0.0470576
0.0684318
0.08812
0.106453
0.123125
0.138439
0.152308
0.164924
0.176148
0.186174
0.194996
0.202771
0.2095
0.215305
0.219942
0.223233
0.226312
0.228389
0.230254
0.231366
0.232243
0.232467
0.232371
0.231719
0.230723
0.229236
0.227372
0.225089
0.222444
0.219456
0.216129
0.212518
0.208601
0.204463
0.200052
0.195458
0.190622
0.185646
0.180458
0.175156
0.169669
0.1641
0.158376
0.152589
0.146673
0.14072
0.134661
0.12858
0.122415
0.116244
0.110009
0.103776
0.0974952
0.0912264
0.0849235
0.0786366
0.0723256
0.0660345
0.0597269
0.0534397
0.0471408
0.0408617
0.0345736
0.0283014
0.0220246
0.0157482
0.00951842
0.00302507
-2.42243
-1.97151
-1.70748
-1.48726
-1.32458
-1.14901
-1.03992
-0.946693
-0.885865
-0.828005
-0.781988
-0.731644
-0.682296
-0.628375
-0.582697
-0.538401
-0.497475
-0.456648
-0.417686
-0.378253
-0.340091
-0.301283
-0.263549
-0.225689
-0.189412
-0.153712
-0.119856
-0.0871341
-0.0565609
-0.0275156
-0.000694587
0.024407
0.0473557
0.0687412
0.0884314
0.106762
0.123432
0.138745
0.152608
0.165216
0.176431
0.186449
0.19526
0.203024
0.209739
0.215528
0.220152
0.223434
0.226501
0.22857
0.230427
0.231533
0.232403
0.232622
0.23252
0.231862
0.230858
0.229364
0.227491
0.225199
0.222545
0.219548
0.216212
0.212591
0.208665
0.204518
0.200099
0.195496
0.190652
0.185669
0.180473
0.175165
0.169672
0.164098
0.158369
0.152578
0.146659
0.140702
0.134641
0.128558
0.122392
0.116219
0.109984
0.103751
0.0974713
0.0912034
0.0849021
0.0786172
0.0723086
0.0660202
0.0597158
0.0534321
0.0471371
0.0408619
0.0345781
0.02831
0.0220374
0.0157629
0.00953814
0.00301587
-2.42696
-1.97597
-1.71132
-1.49058
-1.32732
-1.1516
-1.04223
-0.948904
-0.887887
-0.8299
-0.783663
-0.733125
-0.683658
-0.629668
-0.583883
-0.539461
-0.498397
-0.457436
-0.418346
-0.378791
-0.340513
-0.301593
-0.263753
-0.225794
-0.18943
-0.153652
-0.119731
-0.0869505
-0.0563286
-0.0272406
-0.000388562
0.0247376
0.0477033
0.0691005
0.0887913
0.107119
0.123785
0.139095
0.15295
0.165548
0.176751
0.186757
0.195554
0.203303
0.210001
0.215773
0.22038
0.223649
0.226703
0.228762
0.230609
0.231708
0.232571
0.232783
0.232674
0.232008
0.230995
0.229492
0.22761
0.225307
0.222642
0.219633
0.216285
0.212653
0.208716
0.204558
0.200128
0.195515
0.190662
0.18567
0.180467
0.175151
0.169652
0.164071
0.158337
0.152542
0.14662
0.14066
0.134597
0.128512
0.122345
0.116172
0.109937
0.103705
0.0974269
0.091161
0.0848622
0.0785802
0.0722751
0.0659906
0.0596907
0.0534117
0.0471219
0.0408522
0.034574
0.0283113
0.0220441
0.0157727
0.00955258
0.00300801
-2.43166
-1.98095
-1.71571
-1.49439
-1.33053
-1.1546
-1.04495
-0.951524
-0.890324
-0.832186
-0.785708
-0.734936
-0.685327
-0.631249
-0.585337
-0.540761
-0.499532
-0.458403
-0.419158
-0.379451
-0.341032
-0.301972
-0.264004
-0.225924
-0.189455
-0.153583
-0.119586
-0.0867355
-0.0560572
-0.0269191
-3.19153e-05
0.0251223
0.0481059
0.0695155
0.089206
0.10753
0.124192
0.139498
0.153343
0.165926
0.177114
0.187105
0.195885
0.203615
0.210293
0.216046
0.220635
0.223886
0.226922
0.228967
0.230802
0.231891
0.232744
0.232948
0.232829
0.232154
0.231131
0.229615
0.227719
0.225403
0.222723
0.2197
0.216337
0.21269
0.208739
0.204568
0.200126
0.195502
0.190638
0.185636
0.180424
0.1751
0.169594
0.164007
0.158268
0.152469
0.146543
0.140581
0.134517
0.12843
0.122264
0.116091
0.109858
0.103628
0.0973524
0.0910898
0.084795
0.0785175
0.0722175
0.0659386
0.0596448
0.0533724
0.0470896
0.0408272
0.0345564
0.028301
0.0220409
0.0157746
0.00956004
0.00300067
-2.43643
-1.98643
-1.72062
-1.49865
-1.33416
-1.15797
-1.04806
-0.954491
-0.893101
-0.834779
-0.788034
-0.736987
-0.687215
-0.633024
-0.586973
-0.54222
-0.500806
-0.459486
-0.420065
-0.380184
-0.341605
-0.302386
-0.264274
-0.226055
-0.189471
-0.153493
-0.119413
-0.0864875
-0.0557493
-0.0265583
0.000365263
0.0255481
0.0485492
0.0699704
0.0896594
0.107979
0.124636
0.139936
0.153767
0.166334
0.177503
0.187476
0.196235
0.203944
0.2106
0.216331
0.2209
0.224128
0.227144
0.229172
0.230993
0.23207
0.232913
0.233108
0.232979
0.232293
0.231257
0.229727
0.227815
0.225481
0.222784
0.219744
0.216364
0.212701
0.208734
0.204548
0.200092
0.195455
0.190579
0.185566
0.180345
0.175012
0.169499
0.163907
0.158163
0.15236
0.146431
0.140466
0.134401
0.128315
0.122149
0.115978
0.109747
0.103521
0.097249
0.090991
0.0847015
0.0784299
0.0721364
0.0658647
0.0595786
0.0533144
0.0470403
0.0407868
0.0345252
0.0282789
0.0220276
0.0157684
0.00956073
0.00299356
-2.44136
-1.99237
-1.72604
-1.50336
-1.3382
-1.16171
-1.05156
-0.95785
-0.896274
-0.83775
-0.790716
-0.739358
-0.689397
-0.635072
-0.588858
-0.543901
-0.502274
-0.46073
-0.421106
-0.381023
-0.34226
-0.302857
-0.264579
-0.226204
-0.189488
-0.153392
-0.119219
-0.0862089
-0.0554038
-0.0261538
0.000809768
0.0260237
0.0490433
0.0704768
0.090164
0.108479
0.125131
0.140424
0.154239
0.166786
0.177933
0.187885
0.19662
0.204306
0.210937
0.216645
0.221189
0.224391
0.227383
0.229388
0.231193
0.232255
0.233085
0.233269
0.233127
0.232427
0.231373
0.229825
0.227892
0.225538
0.22282
0.219759
0.216358
0.212677
0.208691
0.204488
0.200015
0.195364
0.190475
0.18545
0.180218
0.174877
0.169356
0.163758
0.158009
0.152202
0.146271
0.140305
0.13424
0.128155
0.121991
0.115823
0.109596
0.103374
0.097108
0.0908564
0.0845739
0.0783101
0.0720251
0.0657625
0.0594861
0.0532322
0.0469689
0.0407266
0.0344764
0.0282415
0.0220013
0.015752
0.00955348
0.00298586
-2.4464
-1.99871
-1.73192
-1.50846
-1.34262
-1.16579
-1.05541
-0.96153
-0.899759
-0.841
-0.793649
-0.741942
-0.691769
-0.637286
-0.590893
-0.545709
-0.503851
-0.462063
-0.422219
-0.381914
-0.342951
-0.303348
-0.264892
-0.226347
-0.189491
-0.153269
-0.118997
-0.0858988
-0.055024
-0.0257133
0.00129071
0.0265355
0.0495735
0.0710187
0.0907036
0.109014
0.12566
0.140943
0.154739
0.167264
0.178387
0.188314
0.197024
0.204684
0.21129
0.216971
0.221487
0.224659
0.227623
0.229606
0.23139
0.232437
0.233254
0.233426
0.233269
0.232552
0.231477
0.229907
0.227951
0.225573
0.222831
0.219747
0.216323
0.212619
0.208613
0.204391
0.1999
0.195233
0.19033
0.185293
0.18005
0.174699
0.16917
0.163566
0.157812
0.152002
0.146069
0.140103
0.134038
0.127955
0.121794
0.115631
0.109409
0.103193
0.0969336
0.0906897
0.0844158
0.0781614
0.0718865
0.0656347
0.0593697
0.053128
0.0468773
0.0406481
0.0344113
0.0281899
0.0219629
0.0157259
0.00953912
0.00297752
-2.45202
-2.00547
-1.73823
-1.51398
-1.34743
-1.17025
-1.05965
-0.965602
-0.903634
-0.844625
-0.796932
-0.744841
-0.69443
-0.639767
-0.593168
-0.547728
-0.505611
-0.463548
-0.423456
-0.382904
-0.343718
-0.303893
-0.265238
-0.226508
-0.189498
-0.153138
-0.118757
-0.0855618
-0.0546097
-0.0252327
0.00181586
0.0270944
0.0501524
0.0716107
0.091294
0.109601
0.126241
0.141514
0.155289
0.167789
0.178884
0.188786
0.197468
0.205101
0.211679
0.217331
0.221814
0.224953
0.227884
0.229839
0.231601
0.232629
0.23343
0.233587
0.23341
0.23267
0.231571
0.229974
0.227989
0.225584
0.222813
0.219702
0.216251
0.212522
0.208493
0.204249
0.199738
0.195053
0.190134
0.185083
0.179828
0.174467
0.168931
0.16332
0.157562
0.151749
0.145815
0.139849
0.133786
0.127706
0.12155
0.115392
0.109176
0.102968
0.0967175
0.0904833
0.0842199
0.0779768
0.0717141
0.0654753
0.0592241
0.0529967
0.046761
0.0405472
0.0343264
0.028121
0.02191
0.0156885
0.00951671
0.00296787
-2.45777
-2.01256
-1.74496
-1.51987
-1.3526
-1.17503
-1.06422
-0.969978
-0.9078
-0.848507
-0.800444
-0.747936
-0.697262
-0.642393
-0.595572
-0.549856
-0.507461
-0.465106
-0.424751
-0.383936
-0.344513
-0.304452
-0.265588
-0.226663
-0.189492
-0.152989
-0.118493
-0.0851977
-0.0541653
-0.0247205
0.0023731
0.0276853
0.0507638
0.0722351
0.0919175
0.110222
0.126855
0.142115
0.155868
0.168341
0.179407
0.189281
0.197932
0.205538
0.212086
0.217705
0.222153
0.225256
0.228152
0.230077
0.231814
0.232823
0.233608
0.233746
0.233547
0.232782
0.231653
0.230026
0.228009
0.225572
0.22277
0.219628
0.216148
0.212392
0.208336
0.204069
0.199536
0.194832
0.189896
0.18483
0.179562
0.174191
0.168646
0.163029
0.157267
0.151452
0.145517
0.139552
0.133492
0.127416
0.121265
0.115114
0.108906
0.102707
0.0964665
0.0902434
0.083992
0.077762
0.0715131
0.065289
0.0590532
0.0528421
0.0466233
0.040427
0.0342241
0.028037
0.0218444
0.0156413
0.00948747
0.00295709
-2.46372
-2.01999
-1.75209
-1.52616
-1.35814
-1.18018
-1.06916
-0.974745
-0.912352
-0.852762
-0.804304
-0.751347
-0.700382
-0.645285
-0.598213
-0.552191
-0.50949
-0.466815
-0.426171
-0.385069
-0.345387
-0.305068
-0.265978
-0.226842
-0.189498
-0.152839
-0.118219
-0.0848139
-0.0536927
-0.0241737
0.00296968
0.028319
0.0514209
0.0729076
0.0925914
0.110896
0.127523
0.14277
0.156498
0.168942
0.179978
0.189821
0.198442
0.206019
0.212535
0.218118
0.222527
0.22559
0.228447
0.230338
0.232045
0.233033
0.233797
0.233913
0.233685
0.232889
0.231725
0.230064
0.22801
0.225536
0.222697
0.219521
0.216008
0.212221
0.208136
0.203842
0.199285
0.19456
0.189605
0.184523
0.179242
0.17386
0.168306
0.162683
0.156916
0.151099
0.145164
0.139202
0.133145
0.127074
0.12093
0.114787
0.108589
0.1024
0.0961721
0.0899621
0.0837249
0.0775099
0.0712771
0.0650699
0.0588519
0.0526593
0.0464599
0.0402837
0.0341014
0.0279353
0.0217641
0.0155828
0.00945052
0.00294463
-2.46973
-2.02773
-1.7596
-1.53278
-1.364
-1.18564
-1.07442
-0.979799
-0.917177
-0.857258
-0.808375
-0.754939
-0.703659
-0.648308
-0.600968
-0.55462
-0.511598
-0.468589
-0.427643
-0.386241
-0.346287
-0.3057
-0.266374
-0.227022
-0.189497
-0.152678
-0.11793
-0.0844106
-0.053197
-0.0236023
0.00359163
0.0289787
0.052105
0.0736082
0.0932954
0.111601
0.128222
0.143455
0.157157
0.16957
0.180574
0.190386
0.198975
0.206523
0.213005
0.218549
0.222917
0.225938
0.228753
0.230609
0.232285
0.233251
0.233992
0.234082
0.233822
0.232991
0.231789
0.230088
0.227993
0.22548
0.222601
0.219388
0.215838
0.212017
0.207901
0.203579
0.198996
0.194248
0.189272
0.184174
0.178878
0.173485
0.167922
0.162293
0.156522
0.150703
0.144769
0.138809
0.132757
0.126692
0.120556
0.114422
0.108235
0.102058
0.0958432
0.0896477
0.0834261
0.0772278
0.0710127
0.0648241
0.0586258
0.0524536
0.0462754
0.0401212
0.0339616
0.0278189
0.0216715
0.0155149
0.00940731
0.00293086
-2.47587
-2.03571
-1.76746
-1.53979
-1.37023
-1.19147
-1.08007
-0.985251
-0.922392
-0.862131
-0.812797
-0.75885
-0.707227
-0.6516
-0.603963
-0.55726
-0.513889
-0.470519
-0.429247
-0.387522
-0.347276
-0.3064
-0.266821
-0.227239
-0.189522
-0.152531
-0.117644
-0.0839997
-0.0526839
-0.0230064
0.0042437
0.029673
0.052828
0.0743514
0.0940464
0.112357
0.128973
0.144191
0.157866
0.170248
0.181219
0.190999
0.199557
0.207075
0.213521
0.219022
0.223346
0.226321
0.229091
0.230907
0.23255
0.233491
0.234204
0.234262
0.233963
0.233092
0.231845
0.230099
0.227958
0.2254
0.222476
0.219221
0.21563
0.211773
0.207621
0.203268
0.198657
0.193885
0.188887
0.18377
0.178459
0.173054
0.167482
0.161846
0.156072
0.150252
0.144319
0.138362
0.132316
0.126258
0.120131
0.114008
0.107833
0.101671
0.0954711
0.089292
0.0830881
0.0769086
0.0707134
0.0645457
0.0583692
0.0522199
0.0460655
0.0399358
0.0338017
0.0276852
0.0215648
0.0154361
0.00935697
0.00291529
-2.48245
-2.04395
-1.77562
-1.54711
-1.37677
-1.19762
-1.08602
-0.990984
-0.927868
-0.867229
-0.817415
-0.762928
-0.710939
-0.655011
-0.607061
-0.559985
-0.516252
-0.472512
-0.430904
-0.388846
-0.348298
-0.307124
-0.267285
-0.227467
-0.189554
-0.152386
-0.117354
-0.0835807
-0.0521589
-0.0223967
0.00491089
0.0303839
0.0535697
0.0751156
0.0948221
0.11314
0.129752
0.144953
0.158601
0.170951
0.181888
0.191635
0.200164
0.20765
0.214058
0.219515
0.223792
0.22672
0.229443
0.231219
0.232827
0.233742
0.234423
0.234445
0.234104
0.233188
0.231893
0.230099
0.227908
0.225301
0.22233
0.219029
0.215395
0.211498
0.207309
0.202923
0.198282
0.193483
0.188462
0.183327
0.177999
0.172582
0.167
0.161358
0.15558
0.14976
0.143828
0.137875
0.131835
0.125786
0.119669
0.113558
0.107397
0.101249
0.0950661
0.0889049
0.0827201
0.0765609
0.0703871
0.0642419
0.0580891
0.0519643
0.0458355
0.0397324
0.0336257
0.0275377
0.0214467
0.0153489
0.00930117
0.0028984
-2.48917
-2.05235
-1.78409
-1.55481
-1.38369
-1.20414
-1.09236
-0.997118
-0.933733
-0.872704
-0.822382
-0.767327
-0.714944
-0.658694
-0.6104
-0.562924
-0.518803
-0.474669
-0.432703
-0.390292
-0.349421
-0.30793
-0.267816
-0.227751
-0.189629
-0.152273
-0.117085
-0.0831694
-0.051631
-0.0217764
0.00559524
0.0311179
0.0543401
0.0759137
0.0956384
0.113969
0.130578
0.145763
0.159384
0.171701
0.182605
0.192319
0.20082
0.208275
0.214642
0.220052
0.224278
0.227157
0.229829
0.231561
0.233134
0.234017
0.234659
0.23464
0.23425
0.233283
0.231933
0.230085
0.227838
0.225178
0.222153
0.218803
0.215122
0.211181
0.206952
0.20253
0.197857
0.19303
0.187985
0.182829
0.177485
0.172054
0.166463
0.160814
0.155033
0.149212
0.143283
0.137336
0.131303
0.125263
0.119158
0.11306
0.106914
0.100784
0.0946189
0.0884775
0.0823139
0.076177
0.070027
0.0639065
0.0577796
0.0516818
0.0455811
0.039507
0.0334306
0.0273738
0.0213153
0.0152517
0.00923893
0.00287974
-2.49593
-2.06097
-1.79283
-1.5628
-1.39091
-1.21098
-1.099
-1.00352
-0.939841
-0.878384
-0.827526
-0.771878
-0.71908
-0.662483
-0.613831
-0.56594
-0.521423
-0.476888
-0.434557
-0.391786
-0.350583
-0.308769
-0.268376
-0.22806
-0.189725
-0.152177
-0.116829
-0.082764
-0.0511053
-0.0211566
0.00628093
0.0318557
0.0551176
0.0767223
0.0964712
0.114816
0.131423
0.146592
0.160186
0.172471
0.183342
0.193025
0.2015
0.208921
0.215245
0.220607
0.224782
0.22761
0.23023
0.231918
0.233456
0.234305
0.234905
0.23484
0.234396
0.233375
0.231966
0.230059
0.227753
0.225036
0.221955
0.218552
0.214821
0.210835
0.206564
0.202104
0.197397
0.192541
0.18747
0.182293
0.176932
0.171487
0.165886
0.160232
0.154447
0.148627
0.1427
0.136758
0.130733
0.124704
0.118612
0.112528
0.106399
0.100286
0.0941413
0.088021
0.0818799
0.0757669
0.0696419
0.0635478
0.0574484
0.0513792
0.0453083
0.0392652
0.0332209
0.0271976
0.0211739
0.0151471
0.00917205
0.00285987
-2.50277
-2.0697
-1.80181
-1.57113
-1.39849
-1.21819
-1.10602
-1.01032
-0.946336
-0.884437
-0.833015
-0.776746
-0.723506
-0.666543
-0.617503
-0.569171
-0.524234
-0.479279
-0.436565
-0.393415
-0.351862
-0.309708
-0.269023
-0.228446
-0.189886
-0.152134
-0.116614
-0.0823852
-0.0505959
-0.0205452
0.00696566
0.0325999
0.0559089
0.0775519
0.0973344
0.115699
0.132305
0.14746
0.161027
0.173282
0.184122
0.193776
0.202226
0.209614
0.215893
0.221203
0.225324
0.2281
0.230665
0.232309
0.233807
0.234616
0.235167
0.235049
0.234545
0.233462
0.231988
0.230017
0.227646
0.224866
0.221725
0.218266
0.214481
0.210446
0.20613
0.201631
0.196887
0.192
0.186903
0.181704
0.176324
0.170866
0.165255
0.159595
0.153808
0.147988
0.142065
0.13613
0.130114
0.124097
0.118018
0.111951
0.105839
0.0997467
0.0936231
0.0875258
0.0814094
0.0753222
0.0692245
0.0631588
0.0570893
0.0510511
0.0450125
0.0390028
0.0329934
0.0270062
0.0210202
0.0150333
0.00909945
0.00283832
-2.50955
-2.07851
-1.81101
-1.57972
-1.40636
-1.22571
-1.11333
-1.01737
-0.953054
-0.890673
-0.838659
-0.781747
-0.728045
-0.670692
-0.621252
-0.572469
-0.527109
-0.481729
-0.438628
-0.395097
-0.353187
-0.31069
-0.269712
-0.228872
-0.190085
-0.152125
-0.116427
-0.0820283
-0.0501056
-0.0199516
0.00763498
0.0333324
0.0566929
0.0783807
0.0982036
0.116589
0.133196
0.148337
0.161879
0.174105
0.184915
0.194546
0.202972
0.210325
0.216556
0.221813
0.22588
0.228603
0.231114
0.232716
0.234173
0.234939
0.235436
0.23526
0.234692
0.233544
0.232
0.229962
0.227522
0.224678
0.221473
0.217955
0.214114
0.210028
0.205666
0.201124
0.196344
0.191425
0.1863
0.181078
0.17568
0.170209
0.164588
0.158921
0.153132
0.147313
0.141395
0.135467
0.129461
0.123457
0.117393
0.111343
0.10525
0.0991783
0.0930774
0.0870044
0.0809137
0.0748538
0.0687848
0.062749
0.0567107
0.0507051
0.0447004
0.0387259
0.0327531
0.026804
0.0208579
0.0149133
0.00902301
0.00281571
-2.51678
-2.08737
-1.82036
-1.58862
-1.41458
-1.23361
-1.12103
-1.02481
-0.960145
-0.897263
-0.844633
-0.787051
-0.732862
-0.675102
-0.625232
-0.575976
-0.530173
-0.484355
-0.440851
-0.396923
-0.354638
-0.311785
-0.270506
-0.229394
-0.190371
-0.152191
-0.116299
-0.0817179
-0.0496521
-0.019387
0.0082836
0.0340529
0.057474
0.0792184
0.0990905
0.117503
0.134112
0.149241
0.162761
0.17496
0.185743
0.195357
0.20376
0.211076
0.217258
0.22246
0.22647
0.229139
0.231593
0.233155
0.234566
0.235281
0.235716
0.235476
0.234836
0.233616
0.231997
0.229886
0.227372
0.224458
0.221185
0.217605
0.213705
0.209565
0.205153
0.200569
0.195749
0.190797
0.185644
0.180399
0.174983
0.169497
0.163867
0.158194
0.152403
0.146587
0.140674
0.134754
0.12876
0.122769
0.116722
0.11069
0.104619
0.0985694
0.0924931
0.0864462
0.0803834
0.0743527
0.0683145
0.0623108
0.0563061
0.0503352
0.0443668
0.0384299
0.0324963
0.026588
0.0206846
0.0147852
0.00894153
0.00279155
-2.52403
-2.09628
-1.82986
-1.59777
-1.42309
-1.2418
-1.12899
-1.03248
-0.967426
-0.904
-0.850725
-0.792457
-0.737764
-0.679577
-0.629266
-0.579533
-0.533289
-0.487033
-0.443126
-0.398802
-0.356136
-0.312931
-0.271353
-0.22997
-0.190708
-0.152306
-0.116212
-0.0814456
-0.0492355
-0.0188582
0.00889938
0.0347451
0.0582326
0.0800437
0.0999701
0.11841
0.135023
0.150142
0.163642
0.175819
0.186578
0.19618
0.20456
0.211837
0.217969
0.223115
0.227067
0.229685
0.232087
0.233609
0.234971
0.23563
0.235999
0.23569
0.234974
0.233678
0.23198
0.229792
0.227202
0.224215
0.220873
0.217228
0.213267
0.209072
0.20461
0.199981
0.195122
0.190136
0.184954
0.179686
0.174251
0.168751
0.163111
0.157434
0.151642
0.145828
0.139921
0.13401
0.128028
0.122052
0.116022
0.11001
0.10396
0.097935
0.0918844
0.0858648
0.079831
0.0738308
0.0678246
0.0618543
0.0558844
0.0499498
0.0440191
0.0381214
0.0322286
0.0263629
0.020504
0.0146518
0.00885696
0.00276651
-2.53135
-2.10514
-1.83946
-1.60718
-1.43193
-1.25035
-1.13732
-1.04051
-0.975049
-0.91106
-0.857117
-0.79814
-0.742921
-0.684294
-0.633515
-0.583289
-0.53659
-0.489883
-0.445562
-0.400827
-0.357768
-0.314203
-0.272321
-0.230661
-0.191151
-0.152516
-0.116204
-0.0812412
-0.0488791
-0.0183816
0.00947217
0.0354047
0.0589686
0.0808617
0.10085
0.119322
0.135942
0.151055
0.164539
0.176698
0.187442
0.197036
0.205393
0.212629
0.218709
0.223797
0.227692
0.230257
0.23261
0.234089
0.235396
0.235992
0.236287
0.2359
0.235101
0.233722
0.23194
0.22967
0.226999
0.223936
0.22052
0.216807
0.212782
0.208531
0.204016
0.199341
0.194442
0.189421
0.18421
0.178919
0.173465
0.167952
0.162303
0.156622
0.150829
0.145018
0.139119
0.133218
0.12725
0.12129
0.115279
0.109288
0.103262
0.0972622
0.0912391
0.0852488
0.079246
0.0732782
0.0673061
0.0613713
0.0554385
0.0495423
0.0436517
0.0377955
0.031946
0.0261253
0.0203136
0.0145113
0.00876798
0.00274005
-2.53865
-2.11401
-1.84914
-1.61678
-1.44101
-1.25917
-1.14588
-1.04873
-0.982817
-0.918223
-0.863588
-0.803889
-0.748131
-0.689046
-0.637793
-0.587075
-0.539929
-0.492776
-0.448044
-0.402897
-0.359448
-0.31553
-0.273351
-0.231417
-0.191658
-0.152789
-0.116251
-0.0810915
-0.0485787
-0.0179599
0.00999375
0.0360187
0.0596668
0.0816533
0.101707
0.120212
0.13684
0.15195
0.165424
0.177568
0.188307
0.197895
0.206227
0.213421
0.219448
0.224479
0.228318
0.230833
0.233144
0.23458
0.235826
0.236353
0.236568
0.236101
0.235214
0.23375
0.23188
0.229525
0.22677
0.223629
0.220138
0.216356
0.212267
0.207958
0.20339
0.198669
0.193729
0.188674
0.183434
0.178119
0.172647
0.167121
0.161464
0.155778
0.149986
0.144179
0.138288
0.132399
0.126444
0.120502
0.114511
0.108542
0.10254
0.0965671
0.0905725
0.0846124
0.0786417
0.0727075
0.0667707
0.0608726
0.0549781
0.0491216
0.0432723
0.0374591
0.0316542
0.0258802
0.0201172
0.0143666
0.00867659
0.00271287
-2.54581
-2.12268
-1.85881
-1.62658
-1.45037
-1.26831
-1.15477
-1.05728
-0.990889
-0.925671
-0.870322
-0.80988
-0.753563
-0.694006
-0.642259
-0.59104
-0.543438
-0.495832
-0.45068
-0.405107
-0.361264
-0.316992
-0.274513
-0.232299
-0.192285
-0.15317
-0.116392
-0.0810289
-0.0483601
-0.0176124
0.0104512
0.0365799
0.0603292
0.0824211
0.102545
0.121086
0.137728
0.15284
0.16631
0.178447
0.189192
0.198776
0.207082
0.214231
0.220204
0.225178
0.22896
0.231431
0.233702
0.235088
0.236265
0.236714
0.236842
0.236285
0.235305
0.233749
0.231786
0.229342
0.2265
0.223278
0.219708
0.215855
0.2117
0.207331
0.20271
0.197942
0.192961
0.187871
0.182602
0.177264
0.171774
0.166236
0.160571
0.154883
0.149092
0.143291
0.137409
0.131532
0.125594
0.11967
0.113701
0.107756
0.101781
0.0958357
0.0898716
0.0839437
0.078007
0.0721084
0.0662088
0.0603494
0.0544953
0.0486807
0.042875
0.0371068
0.031349
0.025624
0.0199122
0.0142156
0.00858134
0.00268442
-2.55334
-2.13134
-1.8685
-1.63654
-1.45996
-1.27769
-1.16387
-1.06598
-0.999053
-0.933168
-0.877082
-0.815889
-0.759003
-0.698954
-0.646718
-0.595006
-0.546959
-0.498909
-0.453346
-0.407348
-0.363122
-0.318508
-0.275739
-0.23325
-0.192982
-0.153613
-0.116597
-0.081034
-0.0482124
-0.017335
0.0108429
0.0370811
0.0609463
0.0831474
0.103342
0.12192
0.138579
0.153699
0.167171
0.17931
0.190069
0.199647
0.207925
0.215029
0.220949
0.225865
0.229595
0.232032
0.234264
0.235595
0.236697
0.237064
0.237099
0.23645
0.235372
0.233721
0.231663
0.229129
0.226198
0.222893
0.219245
0.21532
0.211099
0.20667
0.201996
0.197181
0.192159
0.187036
0.181738
0.176378
0.170871
0.165321
0.15965
0.153959
0.148171
0.142376
0.136504
0.130641
0.12472
0.118816
0.112869
0.106949
0.101001
0.0950851
0.0891524
0.0832576
0.0773559
0.0714939
0.0656326
0.0598131
0.0540004
0.0482288
0.0424677
0.0367459
0.0310364
0.0253617
0.0197024
0.0140614
0.0084843
0.00265542
-2.56079
-2.13973
-1.87808
-1.64661
-1.46977
-1.28735
-1.17324
-1.07495
-1.00746
-0.940894
-0.884051
-0.822088
-0.764617
-0.704064
-0.651329
-0.59912
-0.550624
-0.502125
-0.456146
-0.409715
-0.365109
-0.320159
-0.2771
-0.234334
-0.193806
-0.154168
-0.116909
-0.0811442
-0.0481653
-0.0171504
0.0111523
0.0375126
0.0615129
0.0838295
0.104098
0.122717
0.1394
0.154535
0.168016
0.180174
0.190951
0.200524
0.20877
0.215829
0.221696
0.226556
0.230233
0.232651
0.234837
0.236104
0.237122
0.237398
0.237333
0.236583
0.235403
0.233652
0.231494
0.228866
0.225844
0.222454
0.218726
0.214728
0.210439
0.205951
0.201223
0.196362
0.1913
0.186142
0.180817
0.175435
0.169913
0.164352
0.158676
0.152985
0.1472
0.141414
0.135553
0.129706
0.123803
0.11792
0.111997
0.106104
0.100185
0.0943004
0.088401
0.0825412
0.0766765
0.070853
0.065032
0.0592542
0.053485
0.0477584
0.0420442
0.0363708
0.0307117
0.0250894
0.019485
0.0139016
0.0083839
0.00262528
-2.56826
-2.14807
-1.88764
-1.65676
-1.47974
-1.29717
-1.18274
-1.084
-1.0159
-0.948609
-0.890994
-0.828256
-0.770196
-0.709121
-0.655897
-0.603203
-0.554272
-0.505337
-0.458948
-0.412094
-0.367127
-0.321859
-0.278521
-0.235483
-0.194699
-0.154788
-0.117292
-0.0813343
-0.0482014
-0.0170477
0.0113845
0.0378781
0.0620223
0.0844537
0.104794
0.123457
0.140168
0.155326
0.168825
0.181015
0.191811
0.201375
0.209589
0.216602
0.222417
0.227224
0.230861
0.233266
0.235402
0.236598
0.237526
0.237704
0.237535
0.236683
0.235397
0.233545
0.231286
0.228563
0.22545
0.221975
0.218167
0.214097
0.209742
0.205195
0.200414
0.195507
0.190406
0.185216
0.179865
0.174463
0.168925
0.163356
0.157675
0.151984
0.146205
0.140427
0.134579
0.128748
0.122864
0.117004
0.111106
0.105241
0.099352
0.0934995
0.0876342
0.0818104
0.0759835
0.0701994
0.0644197
0.0586846
0.0529598
0.0472792
0.0416128
0.0359889
0.0303813
0.0248126
0.019264
0.0137395
0.00828224
0.00259475
-2.57552
-2.15608
-1.89698
-1.66694
-1.48983
-1.30718
-1.19244
-1.09325
-1.02451
-0.956492
-0.898091
-0.834563
-0.775901
-0.714299
-0.660582
-0.607406
-0.558037
-0.508664
-0.461855
-0.414585
-0.369267
-0.323688
-0.280074
-0.236763
-0.195712
-0.155522
-0.117793
-0.0816428
-0.048352
-0.0170512
0.0115208
0.038169
0.0624647
0.0850126
0.105427
0.124139
0.140888
0.156078
0.169612
0.181845
0.192658
0.20221
0.210391
0.21736
0.223126
0.227881
0.231487
0.233881
0.235957
0.237071
0.2379
0.237975
0.237695
0.236733
0.235337
0.23338
0.231018
0.228198
0.224991
0.221431
0.217543
0.213401
0.208979
0.204374
0.199541
0.19459
0.189451
0.18423
0.178854
0.173433
0.167882
0.162305
0.156622
0.150933
0.14516
0.139393
0.13356
0.127747
0.121885
0.116049
0.110178
0.104342
0.0984851
0.0926665
0.0868373
0.0810514
0.0752642
0.0695214
0.0637848
0.0580943
0.052416
0.0467833
0.0411666
0.0355942
0.0300402
0.024527
0.0190363
0.0135726
0.00817768
0.00256321
-2.58257
-2.16395
-1.90626
-1.67715
-1.50002
-1.31729
-1.2022
-1.10249
-1.03309
-0.964297
-0.905101
-0.840785
-0.781512
-0.719381
-0.665187
-0.611546
-0.561754
-0.511959
-0.464735
-0.417072
-0.371426
-0.325554
-0.281675
-0.238101
-0.196777
-0.156318
-0.118369
-0.0820361
-0.0485904
-0.0171409
0.0115764
0.0383929
0.0628377
0.0854962
0.105984
0.12475
0.141543
0.156774
0.17036
0.182637
0.193464
0.203001
0.21115
0.218078
0.223797
0.22851
0.232093
0.234472
0.23648
0.237508
0.238234
0.2382
0.237806
0.236734
0.235226
0.233164
0.230699
0.227783
0.224484
0.22084
0.216874
0.212661
0.208175
0.203513
0.19863
0.193637
0.188461
0.183211
0.177812
0.172373
0.166811
0.161228
0.155543
0.149859
0.144094
0.138338
0.132521
0.126727
0.120887
0.115077
0.109234
0.103428
0.097604
0.0918202
0.0860279
0.0802806
0.074534
0.0688334
0.0631407
0.0574957
0.0518645
0.0462806
0.0407145
0.0351945
0.0296947
0.0242381
0.0188061
0.0134041
0.0080724
0.00253144
-2.58964
-2.17142
-1.91525
-1.68728
-1.51026
-1.32752