/*--------------------------------*- C++ -*----------------------------------*\
| =========                 |                                                 |
| \\      /  F ield         | OpenFOAM: The Open Source CFD Toolbox           |
|  \\    /   O peration     | Version:  4.1                                   |
|   \\  /    A nd           | Web:      www.OpenFOAM.org                      |
|    \\/     M anipulation  |                                                 |
\*---------------------------------------------------------------------------*/
FoamFile
{
    version     2.0;
    format      ascii;
    class       volScalarField;
    location    "6";
    object      p;
}
// * * * * * * * * * * * * * * * * * * * * * * * * * * * * * * * * * * * * * //

dimensions      [0 2 -2 0 0 0 0];

internalField   nonuniform List<scalar> 
26785
(
0.908071
1.34331
2.01033
2.70832
3.20448
3.73197
3.92126
3.81059
3.35546
2.58036
1.68253
0.689229
-0.179094
-1.04838
-1.7717
-2.41609
-2.91501
-3.32693
-3.67632
-3.93686
-4.01553
-3.83683
-3.50408
-3.10381
-2.78486
-2.49562
-2.13108
-1.64699
-1.12817
-0.569827
-0.0161618
0.52542
1.04614
1.64463
2.37899
3.2049
3.94439
4.46974
4.7495
4.8695
4.92441
4.96949
5.03397
5.10443
5.11185
4.98579
4.7214
4.36643
3.97304
3.58809
3.19939
2.82757
2.45639
2.10165
1.74614
1.42239
1.11274
0.835887
0.561245
0.305489
0.0562365
-0.163185
-0.362205
-0.528767
-0.672416
-0.786034
-0.881615
-0.964898
-1.04971
-1.13651
-1.22715
-1.31343
-1.39105
-1.45362
-1.50224
-1.53756
-1.56194
-1.57521
-1.57624
-1.56309
-1.5323
-1.48293
-1.41367
-1.32931
-1.23408
-1.13628
-1.03838
-0.943809
-0.849228
-0.754285
-0.65527
-0.55537
-0.454847
-0.359272
-0.26855
-0.187579
-0.114123
-0.0586116
-0.0141775
-0.0244542
0.890645
1.34134
2.012
2.70831
3.20707
3.7364
3.92554
3.81502
3.35855
2.58253
1.68091
0.685619
-0.182256
-1.0501
-1.77504
-2.42002
-2.91807
-3.32848
-3.67961
-3.94257
-4.02221
-3.84138
-3.50561
-3.10207
-2.78455
-2.49779
-2.13406
-1.64834
-1.1288
-0.568596
-0.0135897
0.526783
1.0436
1.64018
2.37647
3.20726
3.95332
4.48057
4.75668
4.87211
4.92385
4.96774
5.03391
5.10903
5.12095
4.99351
4.72387
4.36552
3.97044
3.58543
3.19605
2.82399
2.45236
2.09747
1.74112
1.41776
1.1088
0.832672
0.557784
0.301985
0.0525989
-0.166481
-0.365438
-0.531986
-0.675585
-0.788187
-0.882346
-0.964263
-1.04832
-1.135
-1.22613
-1.31308
-1.39119
-1.45384
-1.50242
-1.53774
-1.56224
-1.57581
-1.57728
-1.56464
-1.53426
-1.48498
-1.41528
-1.33008
-1.23391
-1.13543
-1.03729
-0.942868
-0.848641
-0.75389
-0.654733
-0.554414
-0.453445
-0.357447
-0.26639
-0.185119
-0.110369
-0.0550418
0.00896036
-0.0494026
0.858079
1.33877
2.01532
2.70902
3.21235
3.74619
3.93495
3.82479
3.36536
2.58697
1.67781
0.677166
-0.189103
-1.05443
-1.78195
-2.42866
-2.92402
-3.33152
-3.6859
-3.95494
-4.03632
-3.85111
-3.50809
-3.09763
-2.78275
-2.50191
-2.13945
-1.65039
-1.12898
-0.565195
-0.00717536
0.530218
1.03846
1.63002
2.37016
3.211
3.97086
4.50242
4.77187
4.87862
4.92458
4.96586
5.03536
5.12059
5.14232
5.01315
4.73457
4.36986
3.97154
3.58568
3.19445
2.82142
2.44887
2.09365
1.73582
1.41289
1.10464
0.829302
0.553178
0.29681
0.0465381
-0.172212
-0.371359
-0.537764
-0.681405
-0.792307
-0.884492
-0.964323
-1.0475
-1.13381
-1.22553
-1.31293
-1.39139
-1.45369
-1.50212
-1.5373
-1.56217
-1.57609
-1.57827
-1.56615
-1.53627
-1.4869
-1.41666
-1.33031
-1.23311
-1.13384
-1.03559
-0.941383
-0.847668
-0.753015
-0.653606
-0.552603
-0.451072
-0.354557
-0.263217
-0.181689
-0.106197
-0.050401
0.0211705
-0.0387791
0.812782
1.33768
2.01953
2.7097
3.22085
3.76198
3.94968
3.84006
3.37546
2.59329
1.6715
0.662537
-0.200764
-1.06156
-1.79321
-2.44262
-2.93298
-3.33525
-3.69469
-3.97364
-4.05768
-3.86573
-3.5107
-3.08916
-2.77857
-2.50734
-2.14716
-1.65334
-1.12951
-0.560936
0.00161795
0.535467
1.03288
1.61866
2.36495
3.21902
3.99707
4.53382
4.79418
4.88989
4.92841
4.9653
5.03592
5.12963
5.16146
5.03051
4.74215
4.37179
3.96865
3.58137
3.18581
2.81131
2.43669
2.08196
1.72309
1.40197
1.09472
0.820575
0.542899
0.2863
0.0350737
-0.182936
-0.382189
-0.547734
-0.690917
-0.799432
-0.889891
-0.967976
-1.05094
-1.13703
-1.22935
-1.3167
-1.39511
-1.45669
-1.50506
-1.54033
-1.566
-1.58064
-1.58392
-1.57259
-1.54354
-1.49448
-1.42438
-1.3377
-1.24045
-1.14129
-1.0438
-0.950498
-0.857849
-0.763648
-0.664262
-0.562747
-0.46084
-0.363866
-0.272424
-0.190382
-0.115139
-0.0567899
0.00433837
-0.0212695
0.759514
1.34255
2.02565
2.71119
3.23329
3.78412
3.9705
3.86128
3.38965
2.60246
1.66348
0.64285
-0.215427
-1.07025
-1.80736
-2.46072
-2.94359
-3.33953
-3.70502
-3.99727
-4.08386
-3.88396
-3.51484
-3.08129
-2.77591
-2.51649
-2.15884
-1.65935
-1.13197
-0.559863
0.00582236
0.535836
1.02484
1.60641
2.35913
3.22392
4.01597
4.55381
4.80369
4.88815
4.91931
4.95085
5.01933
5.11632
5.15089
5.01126
4.70985
4.33523
3.92968
3.54444
3.1478
2.77543
2.40227
2.05135
1.69521
1.37901
1.07575
0.804623
0.527373
0.271618
0.0209704
-0.195494
-0.393445
-0.557244
-0.698514
-0.803668
-0.891041
-0.966881
-1.04895
-1.13463
-1.22713
-1.31435
-1.39215
-1.45262
-1.50026
-1.53536
-1.56151
-1.57699
-1.5815
-1.57145
-1.5437
-1.49553
-1.42576
-1.33889
-1.24163
-1.14284
-1.04645
-0.954827
-0.864096
-0.771189
-0.67226
-0.570607
-0.46855
-0.371426
-0.280082
-0.197919
-0.123179
-0.0627946
-0.00781173
-0.0112986
0.700294
1.35421
2.03214
2.7128
3.24881
3.81114
3.99519
3.88684
3.40697
2.61505
1.65563
0.622411
-0.228915
-1.07673
-1.82116
-2.47936
-2.95358
-3.34257
-3.71407
-4.01968
-4.10846
-3.90175
-3.52012
-3.0777
-2.77958
-2.53345
-2.18069
-1.67851
-1.14821
-0.575454
-0.0102989
0.513709
0.994831
1.57316
2.33205
3.21017
4.01955
4.55672
4.79325
4.86659
4.89342
4.92332
4.99244
5.09373
5.12949
4.97927
4.66609
4.28794
3.88176
3.49714
3.10065
2.7308
2.36174
2.01528
1.66241
1.35007
1.05124
0.782726
0.506617
0.251444
0.00191932
-0.213135
-0.409302
-0.57181
-0.710984
-0.81212
-0.895093
-0.967835
-1.04834
-1.13401
-1.22717
-1.31501
-1.3921
-1.45078
-1.49667
-1.53077
-1.55677
-1.5731
-1.57928
-1.57128
-1.54559
-1.49878
-1.42919
-1.3415
-1.24337
-1.14434
-1.04898
-0.959595
-0.871757
-0.781071
-0.682944
-0.581045
-0.478467
-0.38086
-0.289424
-0.207299
-0.133109
-0.0711994
-0.0180742
-0.00780529
0.635359
1.36617
2.03403
2.71212
3.26608
3.84071
4.02301
3.91583
3.42785
2.6323
1.6517
0.606379
-0.236058
-1.07775
-1.83207
-2.49594
-2.96179
-3.34564
-3.72271
-4.04046
-4.13132
-3.92099
-3.52966
-3.08186
-2.79315
-2.56137
-2.2128
-1.70789
-1.17436
-0.599252
-0.0338996
0.486138
0.961427
1.53721
2.29931
3.18768
4.01402
4.54848
4.77156
4.83658
4.86104
4.8894
4.95971
5.06748
5.0997
4.93058
4.60245
4.22182
3.81769
3.43459
3.03993
2.67427
2.31194
1.97136
1.6232
1.31621
1.0234
0.757798
0.482537
0.227417
-0.0210098
-0.234297
-0.42769
-0.587912
-0.723864
-0.819928
-0.897729
-0.967283
-1.04662
-1.13286
-1.22693
-1.31519
-1.39088
-1.44659
-1.48973
-1.5222
-1.54795
-1.56544
-1.57382
-1.56825
-1.54474
-1.49917
-1.42925
-1.33995
-1.24034
-1.14098
-1.04709
-0.960648
-0.876472
-0.788627
-0.691499
-0.589223
-0.485869
-0.387757
-0.296412
-0.214656
-0.141241
-0.0784781
-0.0256655
-0.00625797
0.576848
1.37973
2.03181
2.7097
3.28369
3.86941
4.04865
3.94213
3.4456
2.64746
1.64657
0.591803
-0.240233
-1.07767
-1.84571
-2.51574
-2.97363
-3.35129
-3.73144
-4.05869
-4.15076
-3.93646
-3.53478
-3.07842
-2.80088
-2.58638
-2.24338
-1.73412
-1.20142
-0.626725
-0.0649048
0.448112
0.914388
1.48796
2.25671
3.1594
4.00489
4.52769
4.73557
4.79499
4.8192
4.84702
4.92045
5.03477
5.05596
4.86259
4.52112
4.14244
3.74385
3.36333
2.97168
2.61219
2.25873
1.9252
1.58244
1.28194
0.995746
0.732318
0.456952
0.201524
-0.0453764
-0.256082
-0.445776
-0.603129
-0.735416
-0.825997
-0.898594
-0.965473
-1.04421
-1.13145
-1.22651
-1.31473
-1.38824
-1.44
-1.47982
-1.51069
-1.53673
-1.55613
-1.56731
-1.5645
-1.54316
-1.49856
-1.4277
-1.33618
-1.23467
-1.13521
-1.0436
-0.961119
-0.881329
-0.79654
-0.700203
-0.597211
-0.492794
-0.394171
-0.303345
-0.222571
-0.150274
-0.0871311
-0.0337167
-0.00727058
0.532874
1.39023
2.02427
2.70478
3.29857
3.89122
4.06576
3.95737
3.45148
2.65062
1.63265
0.571821
-0.24906
-1.08311
-1.86647
-2.54175
-2.98986
-3.35818
-3.73919
-4.07543
-4.16909
-3.94992
-3.53703
-3.06987
-2.80664
-2.61309
-2.27562
-1.75756
-1.22595
-0.651691
-0.0987867
0.402776
0.858343
1.42881
2.20975
3.13403
3.99389
4.49851
4.69292
4.74878
4.77401
4.80166
4.87924
4.99737
4.99929
4.77997
4.42944
4.05602
3.66425
3.28639
2.89914
2.54806
2.20537
1.87946
1.54253
1.24881
0.968447
0.705761
0.429348
0.173865
-0.0706081
-0.277777
-0.463134
-0.617277
-0.745884
-0.831054
-0.898713
-0.963549
-1.04224
-1.13051
-1.22614
-1.3134
-1.38364
-1.43063
-1.46703
-1.49689
-1.52412
-1.54613
-1.56035
-1.56009
-1.54049
-1.49633
-1.42376
-1.32951
-1.22605
-1.12703
-1.03873
-0.961112
-0.886046
-0.803899
-0.707573
-0.603268
-0.497599
-0.398703
-0.308988
-0.229942
-0.159067
-0.0956184
-0.0408853
-0.00873887
0.505941
1.38828
2.00823
2.69551
3.30592
3.90009
4.06728
3.95438
3.43994
2.63918
1.60984
0.546742
-0.265894
-1.09587
-1.89436
-2.5743
-3.01192
-3.36903
-3.75011
-4.09461
-4.18773
-3.96053
-3.53394
-3.05379
-2.80905
-2.63892
-2.30561
-1.77558
-1.24403
-0.668481
-0.130508
0.356298
0.798967
1.36267
2.1563
3.12537
3.98286
4.46599
4.64658
4.69856
4.72502
4.75207
4.83365
4.95115
4.92774
4.68439
4.33005
3.96375
3.57848
3.2036
2.82259
2.48236
2.15194
1.83357
1.50276
1.21624
0.940124
0.676739
0.399176
0.144587
-0.0962957
-0.2991
-0.479681
-0.630475
-0.755541
-0.835401
-0.898467
-0.96177
-1.04062
-1.12953
-1.22493
-1.31007
-1.37575
-1.41756
-1.45116
-1.48121
-1.51061
-1.53565
-1.55273
-1.55438
-1.53588
-1.49156
-1.41672
-1.31965
-1.21479
-1.11721
-1.03332
-0.961254
-0.890839
-0.810408
-0.713082
-0.607022
-0.500364
-0.40195
-0.314193
-0.23766
-0.168359
-0.104312
-0.0475908
-0.0106008
0.502569
1.36898
1.98388
2.68117
3.30403
3.89661
4.05743
3.93935
3.41918
2.62042
1.58105
0.516401
-0.292869
-1.11777
-1.93071
-2.61299
-3.03674
-3.38222
-3.76457
-4.11511
-4.20364
-3.96551
-3.52521
-3.03375
-2.81157
-2.66407
-2.33173
-1.78872
-1.25503
-0.678422
-0.158856
0.312994
0.740522
1.2911
2.09322
3.14112
3.97151
4.43119
4.59856
4.64651
4.67497
4.70111
4.78528
4.89702
4.84492
4.58174
4.22921
3.87097
3.49072
3.1191
2.74635
2.41874
2.10126
1.78956
1.46497
1.18568
0.911902
0.64666
0.368369
0.115725
-0.120802
-0.319006
-0.494957
-0.642574
-0.764297
-0.839065
-0.898053
-0.960368
-1.03952
-1.12847
-1.22278
-1.30448
-1.36443
-1.40147
-1.43361
-1.4652
-1.49741
-1.52537
-1.54472
-1.54742
-1.52928
-1.48423
-1.40689
-1.30734
-1.20212
-1.10714
-1.02841
-0.962032
-0.895455
-0.815297
-0.716113
-0.608285
-0.501325
-0.404369
-0.319273
-0.245641
-0.17764
-0.11243
-0.0532347
-0.0122252
0.536488
1.34504
1.95581
2.65861
3.29159
3.88386
4.03851
3.91505
3.38752
2.59029
1.54234
0.479055
-0.328723
-1.14795
-1.97468
-2.65602
-3.05983
-3.39344
-3.77989
-4.13334
-4.2136
-3.96331
-3.50836
-3.00908
-2.81345
-2.68668
-2.35303
-1.80237
-1.25366
-0.679133
-0.180762
0.274355
0.681292
1.21698
2.02426
3.16462
3.96142
4.39471
4.54799
4.59157
4.62307
4.6479
4.73182
4.83256
4.7509
4.47286
4.12702
3.77702
3.39984
3.03215
2.66956
2.35602
2.05164
1.74582
1.42701
1.15467
0.881685
0.614151
0.336208
0.0866414
-0.144991
-0.338607
-0.510102
-0.654642
-0.773035
-0.842651
-0.898011
-0.959671
-1.03878
-1.12691
-1.21935
-1.29612
-1.34926
-1.3826
-1.41498
-1.44911
-1.48425
-1.5146
-1.53547
-1.53847
-1.52008
-1.47388
-1.39405
-1.29277
-1.18838
-1.0971
-1.02386
-0.962947
-0.899022
-0.817598
-0.716139
-0.607056
-0.500817
-0.40632
-0.32442
-0.253733
-0.186438
-0.119512
-0.0576455
-0.013491
0.579838
1.30957
1.92043
2.6267
3.27194
3.86536
4.01398
3.88505
3.34811
2.55147
1.496
0.437031
-0.369416
-1.18352
-2.02385
-2.70017
-3.07836
-3.40157
-3.79546
-4.1485
-4.21777
-3.95471
-3.48484
-2.98501
-2.81638
-2.7063
-2.37029
-1.82215
-1.24107
-0.671724
-0.194415
0.239653
0.619614
1.14448
1.96023
3.18318
3.95137
4.35722
4.49589
4.536
4.57205
4.59469
4.67411
4.75986
4.65023
4.36318
4.028
3.68576
3.30968
2.9467
2.59588
2.29702
2.00526
1.70439
1.39094
1.12466
0.851258
0.581488
0.304938
0.0592117
-0.167553
-0.357052
-0.524589
-0.66625
-0.781193
-0.845631
-0.897891
-0.95924
-1.03798
-1.12462
-1.2144
-1.28507
-1.33115
-1.36229
-1.39637
-1.43344
-1.47122
-1.50331
-1.525
-1.52771
-1.50861
-1.46096
-1.37888
-1.27679
-1.1744
-1.0876
-1.0197
-0.96351
-0.900932
-0.817118
-0.713379
-0.603822
-0.499316
-0.407975
-0.3295
-0.261289
-0.193825
-0.124949
-0.0606575
-0.0143406
0.615708
1.27028
1.88078
2.59072
3.25008
3.84106
3.98293
3.84879
3.30096
2.50403
1.4419
0.38922
-0.415067
-1.22371
-2.07717
-2.74612
-3.09146
-3.4067
-3.80987
-4.15893
-4.21567
-3.94024
-3.45325
-2.96081
-2.81656
-2.72047
-2.38343
-1.84739
-1.21966
-0.658718
-0.202234
0.205828
0.553796
1.07556
1.91131
3.20724
3.94255
4.31876
4.4405
4.47818
4.52154
4.54001
4.61023
4.67789
4.54287
4.25266
3.93029
3.59442
3.21818
2.86116
2.52336
2.23954
1.95961
1.66308
1.35481
1.0935
0.818824
0.547376
0.273395
0.032145
-0.189881
-0.375711
-0.539608
-0.678392
-0.789504
-0.84848
-0.89803
-0.959139
-1.0369
-1.12157
-1.20775
-1.27113
-1.31063
-1.34122
-1.37795
-1.41783
-1.45766
-1.49091
-1.51281
-1.51484
-1.49469
-1.4453
-1.36139
-1.25948
-1.16011
-1.07825
-1.01528
-0.96289
-0.900394
-0.813626
-0.70803
-0.598952
-0.497119
-0.409396
-0.334425
-0.267906
-0.199379
-0.128643
-0.0624989
-0.0148804
0.639266
1.23502
1.84083
2.55532
3.23035
3.81295
3.94819
3.80834
3.24977
2.4521
1.38355
0.338531
-0.463154
-1.26634
-2.13186
-2.79151
-3.0993
-3.4116
-3.82311
-4.16492
-4.20861
-3.92157
-3.41615
-2.93806
-2.81597
-2.73104
-2.39591
-1.8787
-1.19689
-0.644399
-0.208022
0.171705
0.487061
1.01523
1.89325
3.23029
3.93416
4.2802
4.38391
4.41998
4.47318
4.48546
4.54307
4.5905
4.43361
4.1459
3.83741
3.50592
3.12853
2.77867
2.45488
2.18581
1.91648
1.62364
1.32086
1.06298
0.786429
0.51412
0.243645
0.0071644
-0.210626
-0.393469
-0.554262
-0.690294
-0.797112
-0.850508
-0.897829
-0.95874
-1.03514
-1.11797
-1.19937
-1.25452
-1.28904
-1.32058
-1.36022
-1.40245
-1.44377
-1.47771
-1.49929
-1.50037
-1.4788
-1.42744
-1.34231
-1.24155
-1.1459
-1.06906
-1.01047
-0.960783
-0.897118
-0.807385
-0.700672
-0.593001
-0.494503
-0.410527
-0.338756
-0.27298
-0.202822
-0.130519
-0.0632883
-0.0151171
0.652937
1.20762
1.80164
2.5215
3.21281
3.77982
3.90673
3.75966
3.19145
2.39293
1.31939
0.282241
-0.515537
-1.31307
-2.189
-2.83742
-3.10339
-3.41702
-3.83418
-4.16634
-4.19653
-3.89769
-3.36776
-2.91282
-2.81346
-2.73955
-2.41178
-1.91033
-1.17093
-0.625615
-0.210656
0.137154
0.423088
0.967005
1.94285
3.25221
3.92449
4.23953
4.32432
4.35931
4.42399
4.42849
4.47165
4.4972
4.32165
4.04103
3.74602
3.41664
3.03789
2.69679
2.38762
2.13298
1.87277
1.58354
1.28689
1.03078
0.752094
0.48011
0.214113
-0.0173467
-0.231282
-0.411612
-0.569639
-0.702865
-0.804706
-0.852266
-0.897628
-0.958167
-1.03278
-1.11412
-1.18939
-1.23553
-1.26695
-1.30037
-1.34272
-1.38679
-1.42916
-1.46341
-1.48416
-1.48411
-1.46075
-1.40717
-1.32158
-1.22282
-1.13139
-1.05939
-1.00478
-0.95668
-0.890796
-0.798569
-0.691657
-0.586223
-0.491521
-0.411295
-0.342228
-0.276185
-0.20422
-0.130835
-0.063416
-0.0151829
0.662696
1.18944
1.76568
2.4915
3.19917
3.74382
3.86152
3.70494
3.12908
2.3295
1.25223
0.223285
-0.569095
-1.36194
-2.24751
-2.88104
-3.10367
-3.42341
-3.84319
-4.16469
-4.17966
-3.86521
-3.31086
-2.89194
-2.81345
-2.75051
-2.4341
-1.93315
-1.14227
-0.605118
-0.212032
0.101614
0.364605
0.932582
2.03884
3.27369
3.913
4.19635
4.26272
4.29817
4.37434
4.37024
4.39852
4.40171
4.21122
3.94153
3.65877
3.32923
2.94923
2.61841
2.32422
2.08318
1.83062
1.54482
1.25461
0.998694
0.718039
0.447721
0.186874
-0.0395993
-0.250357
-0.428789
-0.584591
-0.715126
-0.811349
-0.853196
-0.896957
-0.957103
-1.02996
-1.10975
-1.17835
-1.21595
-1.24568
-1.28125
-1.32588
-1.37131
-1.41436
-1.4485
-1.4679
-1.46642
-1.44104
-1.38525
-1.29982
-1.20371
-1.11673
-1.04925
-0.99812
-0.95056
-0.881859
-0.787751
-0.681478
-0.578894
-0.488164
-0.411576
-0.344332
-0.277012
-0.203557
-0.129767
-0.0629919
-0.0149747
0.667864
1.17723
1.73038
2.46534
3.18715
3.70355
3.80824
3.63916
3.05856
2.25809
1.17775
0.154985
-0.618531
-1.41467
-2.31066
-2.92219
-3.1012
-3.43191
-3.8504
-4.16118
-4.15796
-3.81812
-3.25267
-2.87739
-2.81656
-2.76399
-2.45852
-1.93876
-1.1097
-0.582575
-0.213159
0.0635397
0.315527
0.918252
2.14699
3.29756
3.89802
4.14639
4.19581
4.23466
4.32037
4.30783
4.32224
4.30281
4.10043
3.8442
3.57141
3.23977
2.85957
2.54087
2.26171
2.03352
1.78762
1.50486
1.22082
0.964092
0.682109
0.415038
0.160053
-0.0614341
-0.269417
-0.446287
-0.600295
-0.727937
-0.817824
-0.854005
-0.896305
-0.956017
-1.02736
-1.10518
-1.16653
-1.19661
-1.22574
-1.26336
-1.30977
-1.35607
-1.39932
-1.43272
-1.45022
-1.44694
-1.41941
-1.36154
-1.27677
-1.18385
-1.10148
-1.03821
-0.99003
-0.942196
-0.870528
-0.775178
-0.670294
-0.571087
-0.484416
-0.411321
-0.344812
-0.275591
-0.201239
-0.127746
-0.0624885
-0.0146351
0.668995
1.16968
1.69647
2.44413
3.17714
3.66174
3.74864
3.56485
2.98334
2.18149
1.09821
0.0797923
-0.65393
-1.47126
-2.37779
-2.95536
-3.10012
-3.44345
-3.85707
-4.15713
-4.13214
-3.76153
-3.20366
-2.87138
-2.82499
-2.78116
-2.48014
-1.92533
-1.07582
-0.560713
-0.215878
0.0258381
0.280558
0.929174
2.25452
3.32242
3.87871
4.08936
4.12503
4.17165
4.26291
4.2431
4.24537
4.20383
3.99287
3.7516
3.48619
3.15115
2.7721
2.46714
2.20283
1.9863
1.74619
1.46569
1.1873
0.929009
0.6466
0.384218
0.135588
-0.0811339
-0.287012
-0.462735
-0.615614
-0.73996
-0.823192
-0.854281
-0.895504
-0.954991
-1.02558
-1.10092
-1.15438
-1.17862
-1.20812
-1.24759
-1.29529
-1.34192
-1.38477
-1.41664
-1.43166
-1.42617
-1.39633
-1.3366
-1.25293
-1.16361
-1.08591
-1.0265
-0.980691
-0.931802
-0.857268
-0.761318
-0.658491
-0.563045
-0.480312
-0.410205
-0.343388
-0.272244
-0.197591
-0.125027
-0.0620509
-0.0142071
0.666613
1.1653
1.66199
2.42691
3.16309
3.61696
3.67711
3.47683
2.90057
2.09644
1.0092
-0.0075986
-0.688928
-1.53557
-2.45194
-2.97819
-3.10439
-3.45946
-3.86491
-4.15298
-4.1002
-3.69948
-3.16192
-2.87174
-2.83689
-2.7963
-2.48893
-1.89098
-1.0388
-0.539608
-0.220287
-0.00981813
0.262449
0.975378
2.36859
3.34623
3.85197
4.02308
4.0486
4.10685
4.19935
4.17381
4.16625
4.10275
3.88558
3.6595
3.39859
3.05976
2.68398
2.3945
2.14452
1.93876
1.70377
1.42478
1.15135
0.891053
0.609402
0.353135
0.111334
-0.100795
-0.304877
-0.479431
-0.631755
-0.751997
-0.82816
-0.854695
-0.895131
-0.954537
-1.02522
-1.09714
-1.14202
-1.16231
-1.19288
-1.23394
-1.28244
-1.32881
-1.37045
-1.39992
-1.41199
-1.40381
-1.37143
-1.31014
-1.22805
-1.14271
-1.06973
-1.01393
-0.96994
-0.919248
-0.842167
-0.746387
-0.646293
-0.5549
-0.476009
-0.408163
-0.3401
-0.267367
-0.193047
-0.122066
-0.0623556
-0.0141202
0.662693
1.16256
1.6279
2.41367
3.14352
3.57083
3.59561
3.3792
2.81727
2.00894
0.913222
-0.100211
-0.735628
-1.60799
-2.52696
-2.99009
-3.11736
-3.48004
-3.87658
-4.14839
-4.06317
-3.63939
-3.12936
-2.87832
-2.85105
-2.8028
-2.48144
-1.84197
-1.00359
-0.524436
-0.231894
-0.0480247
0.255704
1.04441
2.47547
3.36422
3.81699
3.95118
3.97063
4.04197
4.13299
4.1032
4.08733
4.00228
3.78162
3.57004
3.31101
2.9689
2.59862
2.32583
2.08951
1.89336
1.66284
1.38449
1.11524
0.852886
0.573226
0.324066
0.0891959
-0.118764
-0.321691
-0.495107
-0.647094
-0.762929
-0.832179
-0.855041
-0.895255
-0.954936
-1.026
-1.09398
-1.13032
-1.14814
-1.18028
-1.22282
-1.27171
-1.31725
-1.35678
-1.38305
-1.39169
-1.38039
-1.34518
-1.28272
-1.20264
-1.1216
-1.0533
-1.00085
-0.958032
-0.9048
-0.825724
-0.73095
-0.634122
-0.546791
-0.471535
-0.404886
-0.334935
-0.261258
-0.18786
-0.119065
-0.063398
-0.0144787
0.659208
1.15869
1.5938
2.40277
3.10791
3.51775
3.5042
3.27241
2.72906
1.91069
0.805136
-0.200903
-0.797806
-1.68901
-2.59905
-2.99847
-3.13851
-3.50438
-3.89015
-4.13827
-4.01751
-3.57796
-3.10265
-2.88678
-2.85949
-2.79456
-2.45615
-1.77873
-0.969012
-0.516403
-0.253935
-0.091849
0.263198
1.1407
2.57102
3.37328
3.77048
3.87215
3.8907
3.97521
4.06279
4.02998
4.00668
3.90014
3.67775
3.479
3.21963
2.87537
2.5132
2.25818
2.03473
1.84751
1.62098
1.34244
1.07651
0.812586
0.536206
0.294905
0.0669303
-0.137173
-0.339087
-0.511246
-0.662698
-0.774007
-0.836373
-0.856026
-0.896455
-0.956661
-1.02766
-1.09117
-1.11915
-1.13557
-1.16968
-1.21363
-1.2626
-1.3067
-1.34325
-1.36562
-1.37038
-1.35545
-1.31719
-1.25404
-1.1764
-1.09999
-1.03631
-0.987068
-0.944704
-0.888433
-0.80817
-0.715238
-0.622041
-0.538693
-0.46683
-0.400226
-0.328292
-0.254402
-0.182416
-0.116368
-0.0651784
-0.0153338
0.657163
1.15227
1.56318
2.39513
3.0618
3.45555
3.40927
3.16907
2.63698
1.79901
0.689606
-0.300858
-0.869398
-1.77042
-2.65986
-3.00905
-3.16153
-3.52651
-3.90111
-4.1226
-3.96488
-3.51774
-3.08165
-2.8936
-2.86171
-2.7774
-2.4163
-1.70578
-0.935823
-0.5154
-0.288646
-0.138749
0.306438
1.27916
2.63763
3.3729
3.71379
3.78993
3.81469
3.91041
3.99275
3.95786
3.92655
3.79956
3.57727
3.38919
3.12789
2.78297
2.43115
2.19435
1.98303
1.80388
1.58071
1.30125
1.03796
0.773247
0.501134
0.267875
0.0463923
-0.154376
-0.355653
-0.526648
-0.677333
-0.784523
-0.840494
-0.857687
-0.898886
-0.959797
-1.02998
-1.08804
-1.1083
-1.12446
-1.16093
-1.2062
-1.2551
-1.29714
-1.33004
-1.34801
-1.34846
-1.32943
-1.28804
-1.22474
-1.14995
-1.07826
-1.01902
-0.972734
-0.930109
-0.870771
-0.79013
-0.699612
-0.610141
-0.530651
-0.461728
-0.394044
-0.3205
-0.247064
-0.17694
-0.11424
-0.0674318
-0.0163801
0.656648
1.14196
1.54052
2.38919
3.00205
3.37399
3.3106
3.06368
2.53174
1.65731
0.566594
-0.401506
-0.949686
-1.84603
-2.70216
-3.01568
-3.17834
-3.54002
-3.90362
-4.09603
-3.89588
-3.45524
-3.06253
-2.89408
-2.85384
-2.74877
-2.35479
-1.61924
-0.899068
-0.516647
-0.329746
-0.169541
0.411145
1.47382
2.68849
3.36123
3.6466
3.706
3.74353
3.84651
3.92106
3.88447
3.84477
3.69844
3.477
3.29715
3.03296
2.68909
2.34984
2.1316
1.93161
1.76009
1.53973
1.25863
0.99753
0.733101
0.466084
0.240794
0.0253493
-0.172476
-0.372903
-0.542575
-0.692391
-0.795737
-0.845408
-0.86047
-0.902713
-0.964358
-1.03253
-1.08364
-1.09731
-1.11458
-1.1536
-1.1997
-1.24825
-1.28773
-1.31648
-1.32966
-1.32544
-1.30199
-1.25758
-1.19461
-1.12314
-1.05619
-1.00121
-0.957566
-0.914148
-0.852053
-0.771732
-0.684056
-0.598359
-0.522813
-0.456071
-0.386422
-0.31201
-0.239643
-0.171798
-0.11299
-0.0698155
-0.0172815
0.660217
1.13218
1.53085
2.38199
2.93413
3.27619
3.21187
2.95468
2.41475
1.50399
0.450524
-0.494697
-1.02342
-1.90694
-2.72659
-3.01583
-3.18727
-3.54597
-3.89875
-4.05419
-3.81728
-3.39916
-3.04583
-2.88855
-2.83627
-2.70779
-2.27349
-1.52184
-0.859289
-0.51836
-0.368871
-0.162254
0.562169
1.66248
2.73335
3.33969
3.57373
3.62613
3.68042
3.78595
3.85115
3.81285
3.76377
3.59973
3.3803
3.20649
2.93893
2.59796
2.27309
2.073
1.88358
1.71895
1.50063
1.21729
0.958237
0.695217
0.433588
0.215762
0.00573598
-0.189712
-0.389427
-0.557569
-0.706781
-0.806941
-0.850626
-0.864053
-0.907631
-0.969962
-1.03462
-1.07757
-1.08655
-1.10626
-1.14781
-1.1941
-1.24186
-1.27844
-1.30271
-1.31087
-1.30173
-1.27377
-1.22656
-1.16437
-1.0965
-1.03431
-0.983345
-0.941906
-0.897207
-0.83279
-0.753348
-0.668772
-0.586832
-0.515196
-0.449494
-0.377623
-0.303179
-0.232467
-0.167318
-0.112484
-0.0719488
-0.0179824
0.668532
1.12624
1.5363
2.36904
2.85442
3.16595
3.10785
2.83838
2.28601
1.36732
0.336677
-0.574854
-1.08028
-1.95323
-2.73288
-3.00384
-3.18745
-3.54022
-3.87948
-3.99209
-3.73238
-3.34673
-3.02351
-2.87129
-2.80114
-2.6462
-2.17082
-1.41487
-0.812024
-0.515319
-0.389689
-0.0975515
0.747178
1.82881
2.77192
3.30776
3.49532
3.55124
3.62296
3.72564
3.78067
3.74027
3.68156
3.50129
3.28418
3.11455
2.84362
2.50724
2.19843
2.01592
1.83626
1.67806
1.46106
1.17506
0.918132
0.657757
0.40152
0.190476
-0.0146086
-0.207934
-0.406581
-0.572744
-0.721733
-0.818958
-0.856146
-0.8684
-0.914289
-0.977243
-1.03672
-1.07129
-1.07755
-1.09972
-1.14293
-1.18874
-1.23515
-1.26861
-1.28833
-1.29124
-1.27672
-1.24425
-1.19477
-1.13384
-1.06977
-1.01246
-0.965284
-0.925602
-0.879154
-0.812913
-0.734944
-0.653803
-0.575682
-0.507793
-0.441956
-0.368222
-0.294469
-0.226024
-0.163983
-0.112358
-0.0729045
-0.017731
0.682739
1.12563
1.55145
2.34808
2.76999
3.05364
2.99991
2.72311
2.15835
1.24663
0.226767
-0.633828
-1.11904
-1.98984
-2.71985
-2.97636
-3.17708
-3.52174
-3.84721
-3.91994
-3.65463
-3.28994
-2.99186
-2.84273
-2.75236
-2.57174
-2.0637
-1.31374
-0.762937
-0.5083
-0.38855
0.0158962
0.936596
1.96273
2.80064
3.2707
3.41917
3.48728
3.57232
3.66726
3.71252
3.66992
3.60112
3.40603
3.19199
3.02532
2.75159
2.4213
2.12961
1.96342
1.79241
1.63948
1.42302
1.13445
0.880195
0.623436
0.371989
0.166819
-0.0339224
-0.225516
-0.422888
-0.586904
-0.736123
-0.830959
-0.86228
-0.874954
-0.924429
-0.987185
-1.04006
-1.06672
-1.07119
-1.09519
-1.13871
-1.18357
-1.22814
-1.25849
-1.27361
-1.27104
-1.25067
-1.21396
-1.16294
-1.10376
-1.04357
-0.991021
-0.947324
-0.908937
-0.860255
-0.79289
-0.716989
-0.639462
-0.565113
-0.500437
-0.433523
-0.358657
-0.286286
-0.220697
-0.161927
-0.112529
-0.0715875
-0.014328
0.698721
1.13019
1.56785
2.3198
2.6797
2.93724
2.88747
2.60613
2.03238
1.13305
0.134326
-0.671538
-1.14701
-2.0076
-2.68702
-2.93545
-3.15314
-3.48443
-3.7956
-3.83955
-3.57165
-3.22253
-2.94652
-2.79959
-2.6855
-2.48191
-1.95199
-1.21239
-0.708281
-0.487178
-0.346597
0.181572
1.13735
2.07273
2.81556
3.22743
3.34687
3.43083
3.5228
3.60794
3.64397
3.59899
3.51996
3.31134
3.10029
2.93578
2.66022
2.33738
2.06399
1.91266
1.74884
1.6
1.38351
1.09277
0.842333
0.590085
0.342723
0.142442
-0.0542506
-0.244048
-0.439598
-0.601396
-0.751387
-0.844752
-0.870819
-0.885105
-0.938352
-0.999197
-1.04365
-1.06253
-1.06586
-1.09137
-1.13433
-1.17812
-1.22046
-1.24776
-1.25814
-1.24936
-1.22306
-1.18266
-1.13083
-1.07387
-1.01765
-0.969517
-0.929143
-0.891558
-0.84044
-0.772795
-0.699495
-0.625664
-0.555195
-0.492699
-0.424189
-0.34922
-0.279022
-0.216791
-0.160583
-0.11228
-0.0683622
-0.00751339
0.714003
1.13684
1.5779
2.28572
2.59027
2.82162
2.77689
2.49122
1.912
1.02938
0.0602024
-0.690002
-1.16603
-2.00386
-2.64084
-2.88702
-3.11686
-3.43604
-3.7308
-3.75506
-3.48522
-3.151
-2.89187
-2.74546
-2.60764
-2.38232
-1.83753
-1.11101
-0.653663
-0.449176
-0.254496
0.377248
1.31277
2.15823
2.81614
3.17709
3.28193
3.37978
3.47348
3.54983
3.57784
3.53059
3.44062
3.21954
3.01199
2.84942
2.57349
2.25941
2.00477
1.86621
1.70789
1.56131
1.34424
1.05203
0.806844
0.559505
0.315512
0.119217
-0.0736805
-0.261574
-0.455282
-0.615795
-0.76776
-0.860571
-0.881399
-0.897904
-0.954295
-1.01088
-1.04488
-1.05653
-1.05962
-1.087
-1.12971
-1.17265
-1.21225
-1.23673
-1.24196
-1.2262
-1.19464
-1.15127
-1.09908
-1.04472
-0.992381
-0.948152
-0.910762
-0.873476
-0.820179
-0.752955
-0.682647
-0.612515
-0.545891
-0.484416
-0.414403
-0.340241
-0.272988
-0.214234
-0.159556
-0.111433
-0.0658937
-0.00234989
0.727691
1.14538
1.58447
2.24527
2.49905
2.70593
2.66618
2.37502
1.79231
0.937156
-0.00119888
-0.695279
-1.17497
-1.98104
-2.57961
-2.82804
-3.06227
-3.37374
-3.6515
-3.65785
-3.38975
-3.07367
-2.82535
-2.67045
-2.51541
-2.26706
-1.71292
-1.00329
-0.590004
-0.378794
-0.105388
0.583627
1.45558
2.22037
2.80325
3.12
3.22443
3.3272
3.41952
3.48947
3.51087
3.46111
3.3597
3.12744
2.92349
2.76233
2.48805
2.18462
1.94841
1.82039
1.66551
1.51964
1.30212
1.00894
0.770729
0.528857
0.287913
0.0950589
-0.0940691
-0.279251
-0.471205
-0.632326
-0.786836
-0.878235
-0.892876
-0.911283
-0.968608
-1.01739
-1.0405
-1.04746
-1.05197
-1.08161
-1.12436
-1.16652
-1.20319
-1.22484
-1.22391
-1.20115
-1.16502
-1.11936
-1.06735
-1.01585
-0.967339
-0.926579
-0.891818
-0.854318
-0.79927
-0.733184
-0.666404
-0.599984
-0.537037
-0.475699
-0.404521
-0.331913
-0.268427
-0.212926
-0.158421
-0.109829
-0.0634197
-0.000726684
0.740426
1.15429
1.58787
2.20046
2.4119
2.59436
2.55918
2.26301
1.67902
0.858431
-0.0454089
-0.691492
-1.17272
-1.94445
-2.50799
-2.76162
-2.99548
-3.3025
-3.56323
-3.555
-3.29181
-2.99355
-2.75302
-2.58168
-2.41441
-2.14374
-1.58829
-0.905947
-0.524308
-0.288525
0.0614815
0.761323
1.56745
2.26214
2.78073
3.0607
3.17189
3.27308
3.36443
3.42851
3.44404
3.39202
3.27986
3.03736
2.83828
2.67804
2.40732
2.1163
1.89721
1.77721
1.62385
1.47687
1.25901
0.965014
0.734878
0.499325
0.261518
0.0717056
-0.114178
-0.296147
-0.486717
-0.650534
-0.807616
-0.895371
-0.902441
-0.92229
-0.978689
-1.01725
-1.03167
-1.03709
-1.04415
-1.07564
-1.1183
-1.1595
-1.19379
-1.21233
-1.20412
-1.17487
-1.13486
-1.08741
-1.03655
-0.988031
-0.943072
-0.905354
-0.872824
-0.834442
-0.778213
-0.713997
-0.651007
-0.588201
-0.528544
-0.466594
-0.39482
-0.324634
-0.265759
-0.212955
-0.15673
-0.107007
-0.0598151
-0.00243574
0.753414
1.16452
1.58829
2.15068
2.32712
2.4848
2.45279
2.15206
1.57167
0.789196
-0.075232
-0.681238
-1.16041
-1.89382
-2.42398
-2.68433
-2.91451
-3.21556
-3.46197
-3.44204
-3.18599
-2.90535
-2.67134
-2.48046
-2.30182
-2.0124
-1.46516
-0.817229
-0.457479
-0.190097
0.220684
0.91224
1.65462
2.28454
2.74649
2.9957
3.11542
3.21793
3.30801
3.36409
3.37241
3.31753
3.19675
2.94636
2.75291
2.59232
2.32685
2.05079
1.84775
1.73359
1.57956
1.43018
1.21254
0.917671
0.695334
0.46821
0.234043
0.0466164
-0.136487
-0.314447
-0.503537
-0.671146
-0.829218
-0.909739
-0.909808
-0.931841
-0.985035
-1.0118
-1.02039
-1.02672
-1.03722
-1.06925
-1.1113
-1.15179
-1.18359
-1.19822
-1.18223
-1.14686
-1.10397
-1.05526
-1.00659
-0.961045
-0.919273
-0.884366
-0.853993
-0.813973
-0.756937
-0.695254
-0.63619
-0.577187
-0.520018
-0.456901
-0.385522
-0.318929
-0.265064
-0.212899
-0.153539
-0.102326
-0.0528871
-0.00144952
0.767002
1.17479
1.58606
2.0995
2.2491
2.38067
2.35125
2.0474
1.47647
0.72993
-0.091382
-0.663399
-1.13856
-1.83336
-2.33321
-2.60026
-2.82664
-3.11948
-3.35561
-3.32746
-3.07972
-2.81304
-2.58437
-2.37765
-2.19064
-1.88738
-1.35421
-0.736781
-0.394816
-0.0976811
0.353611
1.03349
1.71925
2.28993
2.70355
2.93419
3.06017
3.16521
3.25114
3.29781
3.2974
3.23866
3.1119
2.85491
2.67026
2.50807
2.25024
1.99149
1.8027
1.69196
1.53524
1.38245
1.16588
0.870224
0.653606
0.43698
0.207184
0.0213997
-0.15944
-0.333372
-0.521025
-0.69274
-0.849812
-0.921398
-0.91663
-0.940589
-0.986675
-1.00186
-1.00791
-1.01702
-1.03138
-1.06264
-1.10341
-1.1447
-1.17292
-1.18211
-1.15859
-1.11786
-1.07282
-1.02418