/*--------------------------------*- C++ -*----------------------------------*\
| =========                 |                                                 |
| \\      /  F ield         | OpenFOAM: The Open Source CFD Toolbox           |
|  \\    /   O peration     | Version:  4.1                                   |
|   \\  /    A nd           | Web:      www.OpenFOAM.org                      |
|    \\/     M anipulation  |                                                 |
\*---------------------------------------------------------------------------*/
FoamFile
{
    version     2.0;
    format      ascii;
    class       surfaceScalarField;
    location    "6";
    object      phi;
}
// * * * * * * * * * * * * * * * * * * * * * * * * * * * * * * * * * * * * * //

dimensions      [0 3 -1 0 0 0 0];

internalField   nonuniform List<scalar> 
52920
(
1668.53
-55.278
1715.26
-42.8656
1758.52
-44.9521
1827.69
-57.9056
1893.93
-80.7137
1983.26
-87.5235
2067.84
-97.113
2178.86
-113.418
2292.74
-126.097
2413.03
-128.887
2527.91
-123.27
2632.86
-113.849
2738.27
-108.18
2829.54
-100.897
2917.51
-87.2147
2984.85
-75.1423
3051.91
-66.1769
3109.38
-60.7054
3166.44
-55.469
3216.95
-49.7768
3265.66
-43.8299
3307.49
-39.1823
3351.6
-36.9754
3394.58
-37.3288
3437.91
-34.7641
3474.03
-29.1998
3509.3
-28.1382
3552.55
-34.1404
3603.57
-42.3794
3658.1
-48.0026
3716.61
-52.3213
3781.15
-57.9963
3848.18
-62.4068
3920.13
-67.6552
4001.78
-79.7721
4109.76
-101.403
4236.9
-122.794
4368.72
-127.844
4490.97
-120.142
4603.57
-111.641
4709.35
-106.141
4809.78
-101.936
4906.95
-99.4989
5009.61
-104.425
5123.5
-116.42
5246.47
-124.536
5374.78
-126.926
5495.26
-126.015
5616.36
-122.726
5729.88
-117.76
5840.56
-112.787
5945.86
-108.749
6049.18
-106.023
6150.48
-103.924
6249.05
-101.783
6346.58
-99.3085
6439.31
-96.178
6530.81
-92.8667
6617.23
-89.1954
6702.2
-85.706
6781.65
-82.0186
6860.07
-78.8631
6934
-75.9712
7008.05
-74.1535
7079.14
-72.7701
7150.99
-71.8228
7220.29
-70.565
7290.1
-69.5595
7357.72
-68.6032
7426.26
-68.1834
7493.54
-67.9493
7562.22
-68.1722
7630.1
-68.3097
7699.24
-68.5096
7767.55
-68.465
7836.83
-68.5161
7905.48
-68.5565
7975.13
-68.8649
8044.81
-69.3305
8115.69
-70.0361
8187.01
-70.7781
8259.3
-71.4291
8331.86
-71.8806
8405.09
-72.3538
8478.92
-73.0431
8553.78
-74.0005
8629.84
-75.1794
8707.18
-76.5073
8786.06
-77.9523
8866.34
-79.5365
8948.59
-81.3436
9032.58
-83.3678
9118.87
-85.4684
9206.85
-87.5113
9296.97
-89.4348
9388.59
-91.3148
9482.27
-93.1523
9577.53
-95.0906
9685.69
-107.872
-91.7464
1796.39
-117.318
1845.04
-89.5616
1890.38
-94.8948
1973.14
-128.829
2052.79
-174.19
2161.34
-195.326
2262.33
-213.185
2394.8
-249.752
2528.17
-272.081
2667.4
-276.872
2797.95
-262.538
2916.15
-241.232
3034.28
-229.386
3136.15
-212.921
3234
-185.181
3309.16
-159.511
3385.38
-142.744
3452.69
-132.719
3521.32
-123.745
3584.83
-113.297
3649.19
-103.665
3709.26
-95.4523
3775.25
-93.9262
3842.91
-96.1883
3912.74
-93.34
3976.37
-83.6124
4040.59
-83.6714
4113.62
-97.2438
4194.32
-113.907
4277.82
-124.395
4364
-132.024
4453.83
-141.168
4542.9
-147.191
4632.86
-153.567
4728.32
-172.877
4846.32
-210.885
4981.43
-249.889
5119.31
-258.461
5245.96
-242.824
5361.41
-225.598
5468.41
-213.898
5568.37
-203.782
5662.82
-196.714
5759.21
-203.833
5862.46
-222.833
5970.26
-233.914
6079.96
-235.658
6180.54
-231.923
6281.37
-225.536
6375.85
-216.65
6469.36
-208.949
6559.81
-203.038
6650.55
-200.225
6741.46
-198.192
6831.88
-196.214
6923.45
-193.472
7012.7
-189.651
7103.01
-185.275
7190.61
-180.278
7278.7
-175.166
7363.05
-169.666
7447.45
-164.372
7528.11
-159.336
7608.97
-155.685
7686.94
-153.038
7765.53
-150.861
7841.31
-148.113
7916.85
-145.204
7989.12
-142.231
8060.74
-139.688
8129.3
-137.464
8197.11
-135.645
8261.86
-133.706
8325.36
-131.491
8385.37
-128.779
8443.42
-125.845
8497.73
-122.83
8549.72
-120.003
8598.23
-117.435
8644.29
-115.098
8687.07
-112.849
8727.01
-110.251
8763.27
-107.176
8796.06
-103.925
8825.19
-101.031
8851.06
-98.6157
8873.86
-96.6783
8893.73
-95.1247
8911.07
-93.928
8925.86
-93.1486
8938.78
-92.9398
8949.82
-93.3943
8959.78
-94.2121
8968.34
-95.2639
8976.16
-96.2332
8983
-97.5966
8989.33
-98.6835
8994.32
-99.7167
8999.56
-112.62
-109.639
1951.66
-186.522
2017.63
-151.414
2084.19
-161.131
2185.3
-218.477
2284.44
-287.342
2408.24
-317.085
2524.21
-339.554
2666.75
-393.46
2808.49
-423.992
2953.86
-429.367
3089.92
-405.707
3213.82
-372.854
3337.21
-354.894
3445.48
-329.525
3549.5
-287.841
3633.39
-249.668
3719.4
-227.201
3799.09
-214.674
3881.4
-204.089
3960.24
-191.213
4040.56
-179.575
4117.26
-170.275
4198.92
-170.018
4280.89
-174.284
4362.07
-168.007
4433.39
-149.841
4500
-144.582
4568.61
-158.142
4637.6
-175.412
4701.67
-182.753
4760.04
-184.856
4813.83
-188.935
4859.42
-188.56
4899.6
-189.618
4941.35
-213.508
5003.8
-268.443
5082.49
-326.568
5160.37
-334.775
5221.04
-303.216
5264.39
-268.877
5294.57
-244.43
5312.85
-223.202
5316.08
-201.465
5307.05
-194.952
5291.27
-208.591
5270.44
-214.148
5248.79
-211.384
5220.5
-211.335
5201.59
-208.696
5188.08
-209.279
5187.74
-211.482
5198.09
-218.347
5222.27
-228.043
5258.84
-238.266
5305.83
-247.49
5364.07
-253.832
5428.87
-258.989
5503.54
-261.504
5583.04
-263.405
5670.18
-263.045
5759
-261.787
5852.58
-258.268
5945.03
-254.308
6039.51
-250.043
6131.83
-247.407
6226.09
-244.834
6318.23
-241.764
6410.57
-237.037
6498.84
-231.696
6585.33
-225.6
6666.61
-219.541
6744.91
-213.183
6817.36
-206.654
6885.94
-199.145
6947.74
-190.714
7004.24
-181.253
7053.04
-171.438
7095.5
-161.336
7129.96
-151.362
7157.37
-141.321
7176.62
-131.291
7188.09
-120.498
7190.5
-108.59
7183.81
-95.9588
7167.6
-83.6589
7142.34
-72.0681
7108.26
-61.2747
7065.62
-51.2407
7015.05
-41.9382
6956.55
-33.486
6891.13
-26.1069
6818.93
-20.1738
6741.25
-15.2135
6657.91
-11.1342
6570.17
-7.37018
6477.6
-4.50201
6381.94
-2.16142
6282.76
-0.274986
6166.95
3.62152
-27.22
2110.45
-267.245
2190.89
-231.011
2272
-246.055
2382.43
-318.484
2489.01
-404.879
2614.58
-442.356
2729.75
-469.292
2866.53
-534.087
3000.31
-569.216
3136.72
-573.806
3265.41
-542.384
3384.5
-500.547
3505.01
-478.342
3613.49
-447.552
3719.72
-394.448
3808.35
-346.813
3899.3
-318.454
3984.58
-304.356
4072.25
-291.313
4155.55
-274.451
4237.04
-256.52
4309.48
-238.706
4379.35
-230.482
4441.69
-226.966
4495.28
-209.185
4529.78
-174.004
4548.79
-153.387
4559.33
-157.367
4560.45
-165.582
4545.46
-158.716
4513.32
-144.6
4467.39
-134.707
4404.68
-120.778
4329.49
-109.586
4253.9
-134.964
4206.4
-208.107
4183.43
-290.118
4156.34
-295.946
4096.26
-237.52
4002.47
-174.085
3886.23
-131.968
3752.59
-97.043
3587.97
-47.7463
3383.59
1.10297
3148.69
18.5154
2901.29
29.9629
2673.93
20.649
2473.71
-27.3897
2330.23
-71.6012
2229.23
-121.41
2175.1
-165.15
2156.38
-210.253
2172.53
-253.148
2216.54
-290.673
2281.25
-321.616
2364.71
-343.374
2457.37
-360.926
2563.17
-372.153
2674.34
-382.008
2795.32
-387.263
2917.85
-391.025
3047.06
-389.996
3175.12
-387.668
3306.8
-383.271
3436.28
-381.192
3569.5
-379.14
3701.28
-376.758
3835.08
-371.282
3965.49
-364.558
4095.7
-355.837
4221.06
-346.607
4344.51
-336.258
4462.29
-325.532
4576.81
-312.9
4684.18
-298.544
4786.25
-282.196
4879.93
-264.998
4966.85
-246.889
5044.75
-228.536
5114.78
-209.702
5175.33
-190.568
5226.64
-169.898
5267.07
-147.303
5296.61
-123.37
5314.7
-99.705
5321.77
-76.9141
5318.08
-55.3021
5304.15
-35.0881
5280.85
-16.2573
5248.17
1.26228
5207.42
16.9561
5158.88
30.183
5104.23
41.5409
5043.22
51.3307
4977.65
59.9395
4906.72
67.4277
4832.47
73.3975
4755
77.8213
4671.07
88.2681
45.4909
2248.47
-351.229
2333.31
-311.648
2412.83
-323.771
2514.65
-409.52
2609.47
-511.984
2717.44
-549.054
2809.9
-571.839
2917.36
-642.667
3017.1
-679.096
3118.34
-682.27
3215.51
-646.964
3308.25
-601.624
3407.1
-579.753
3499.69
-549.166
3595.51
-489.219
3677.4
-435.095
3762.28
-401.687
3841.97
-386.315
3925.07
-372.242
4003.61
-352.033
4077.22
-325.392
4135.09
-294.748
4182.2
-271.543
4213.7
-254.325
4229.73
-217.654
4218.35
-156.375
4183.18
-110.669
4134.6
-98.0716
4073.07
-92.9727
3988.32
-64.8756
3879.52
-26.6428
3755.32
-0.158253
3611.46
30.9766
3448.86
61.6832
3283.14
34.1785
3168.31
-83.2992
3110.28
-227.334
3056.49
-237.487
2942.52
-122.764
2753.91
14.2245
2510.74
107.399
2213.32
189.542
1816.79
334.215
1383.57
431.97
1036.26
359.582
817.98
245.767
735.742
109.227
718.457
-30.0929
766.227
-125.827
824.922
-194.765
899.996
-247.415
977.82
-299.226
1066.02
-349.34
1160.97
-393.197
1258.31
-427.593
1360.13
-449.733
1456.4
-465.874
1556.57
-475.607
1652.54
-484.727
1753.3
-489.684
1849.69
-493.366
1951.2
-492.255
2049.21
-490.07
2151.85
-485.804
2252.11
-484.857
2358.64
-485.224
2465.61
-486.14
2578.39
-483.258
2690.3
-478.335
2805.82
-470.432
2919.39
-461.377
3034.96
-450.597
3148.06
-439.307
3262.27
-425.642
3372.91
-409.264
3481.9
-389.459
3585.07
-367.774
3684.4
-344.46
3777.21
-320.455
3864.89
-295.564
3946.04
-270.44
4021.27
-243.309
4087.94
-212.463
4144.88
-178.477
4190.63
-143.79
4225.63
-110.112
4250.39
-78.2453
4265.48
-48.472
4271.69
-20.5705
4268.64
5.87367
4257.44
29.9892
4238.51
50.4505
4214
67.7227
4183.97
82.3866
4150.26
95.0264
4111.86
106.466
4069.94
116.327
4024.53
123.507
3976.17
137.052
94.2732
2333.86
-428.575
2403.36
-380.286
2461.86
-385.278
2539.01
-475.139
2605.95
-590.317
2677.7
-620.988
2721.32
-633.164
2766.02
-692.166
2790.66
-717.765
2813.3
-714.982
2838.32
-681.924
2868.28
-642.49
2913.53
-629.332
2964.29
-612.05
3033.17
-559.779
3099.53
-511.986
3175.86
-478.822
3252.12
-468.05
3338.33
-457.984
3424.82
-438.5
3508.84
-403.458
3576.15
-356.812
3630.49
-313.099
3666.42
-276.422
3683.63
-216.649
3666.56
-123.659
3622
-50.0839
3566.67
-24.829
3504.13
-12.4641
3419.14
35.703
3305.81
100.816
3178.98
140.918
3041.31
177.635
2900.15
211.098
2768.46
172.35
2667.58
40.3164
2554.63
-91.9614
2386.8
-49.5076
2153.07
120.939
1881.6
284.641
1598.8
375.918
1290.15
471.632
965.825
628.016
765.438
622.485
660.29
457.249
640.908
262.421
693.288
61.3612
755.359
-112.013
840.231
-220.082
911.639
-283.674
983.251
-330.138
1047.84
-378.59
1116.71
-430.72
1189.06
-477.502
1261.91
-513.579
1337.73
-534.565
1405.57
-546.895
1475.34
-552.949
1538.73
-558.976
1605.73
-562.059
1666.46
-564.035
1731.78
-561.868
1792.48
-558.708
1857.89
-554.044
1920.14
-553.593
1989.28
-556.432
2059.37
-561.078
2137.25
-562.205
2215.91
-560.699
2300.77
-555.674
2385.52
-548.694
2474.53
-539.319
2562.98
-529.358
2655.47
-517.164
2747
-501.459
2840.02
-480.999
2929.91
-457.506
3018.9
-431.618
3103.97
-404.499
3186.57
-375.907
3264.98
-347.039
3340.38
-316.077
3410.15
-279.816
3473.06
-238.473
3527.06
-194.989
3572.07
-152.124
3608.11
-111.234
3635.47
-72.9032
3655.05
-37.0507
3666.31
-2.66976
3669.92
29.3318
3665.78
56.9485
3655.77
80.3829
3639.51
100.507
3618.75
117.923
3592.72
133.726
3562.46
148.163
3526.89
159.789
3484.77
179.99
138.612
2318.04
-488.812
2370.08
-427.842
2404.72
-416.926
2450.89
-508.558
2475.09
-628.84
2484.93
-629.471
2438.76
-600.559
2368.25
-622.725
2259.24
-621.529
2150.01
-614.767
2061.13
-602.57
1997.09
-589.535
1967.9
-603.18
1966.12
-621.98
2009.39
-600.959
2070.74
-581.05
2155.92
-561.261
2249.45
-564.073
2361.9
-567.45
2479.83
-555.147
2598.73
-516.008
2703.83
-459.644
2798.78
-399.823
2872.85
-345.233
2929.07
-263.661
2954.79
-142.025
2949.89
-36.1941
2926.96
11.5067
2899.45
28.9525
2858.35
88.0033
2789.87
180.718
2694
250.152
2564.83
317.229
2421.23
365.69
2321.86
275.515
2285.82
83.2836
2179.89
14.4952
1982.27
149.098
1762.83
338.467
1547.15
499.55
1335.5
583.692
1097.88
697.265
810.824
905.407
623.24
812.839
547.643
530.438
565.58
243.724
639.757
-7.87652
710.989
-198.873
793.167
-307.442
858.086
-361.156
920.893
-399.079
976.301
-444.171
1036.21
-497.833
1100.18
-548.539
1165.06
-586.704
1232.96
-606.667
1292.5
-615.116
1353.26
-616.854
1406.56
-619.266
1462.46
-619.48
1510.58
-618.509
1562.03
-613.844
1607.29
-608.696
1656.3
-602.638
1700.61
-601.594
1750.83
-605.868
1800.84
-613.687
1858.51
-618.731
1916.86
-621.103
1982.06
-619.602
2047.49
-615.437
2117.98
-608.177
2188.14
-600.187
2263.21
-590.306
2338.12
-576.338
2415.98
-556.616
2492.11
-533.015
2569.11
-506.362
2643.78
-477.958
2717.75
-447.559
2789.04
-416.674
2859.39
-384.111
2926.05
-344.596
2987.92
-298.12
3042.72
-247.791
3089.97
-197.271
3129.45
-148.585
3161.15
-102.641
3185.64
-59.3793
3202.19
-17.4568
3211.51
22.0927
3213.26
56.69
3209.22
86.3102
3198.86
111.986
3183.82
134.493
3163.01
155.203
3137.55
174.712
3106.06
191.526
3067.74
218.729
178.963
2241.37
-533.451
2269.91
-454.453
2267.54
-416.494
2261.73
-488.114
2212.71
-595.268
2122.06
-539.985
1937.62
-444.418
1709.57
-403.206
1446.37
-383.405
1220.23
-407.798
1058.8
-460.471
954.863
-506.894
914.223
-571.772
918.526
-648.218
981.951
-669.181
1066.22
-683.006
1177.16
-674.495
1294.18
-689.809
1427.89
-700.979
1566.74
-694.044
1712.32
-652.382
1846.07
-585.811
1975.12
-510.395
2093.91
-444.898
2204.37
-349.772
2284.22
-201.508
2325.16
-56.3925
2337.64
21.7028
2348.02
41.5019
2359.09
97.1455
2347.42
209.974
2298.32
316.459
2205.35
421.27
2097.7
484.179
2066.87
316.556
2038.79
135.569
1873.42
200.235
1690.84
350.538
1517.36
519.469
1320.11
691.851
1119.2
768.48
896.93
896.159
613.966
1169.11
462.939
961.211
441.986
547.807
498.063
185.682
585.136
-91.9414
655.829
-287.158
729.228
-390.109
783.086
-432.118
834.217
-461.521
879.168
-504.274
930.627
-562.327
988.06
-618.577
1047.54
-660.164
1110.6
-679.612
1165.27
-684.186
1220.95
-681.205
1268.96
-679.493
1319.55
-676.49
1361.62
-671.988
1406.18
-663.688
1443.07
-654.893
1482.66
-645.898
1516.34
-643.046
1555.33
-647.64
1593.31
-657.503
1638.67
-665.663
1684.35
-671.286
1736.93
-672.86
1789.43
-671.073
1847.24
-665.755
1904.71
-659.572
1967.44
-651.936
2029.99
-639.711
2095.92
-620.844
2160.6
-597.532
2227.09
-570.685
2291.99
-541.609
2357.14
-509.97
2420.51
-477.763
2484.2
-444.488
2545.2
-402.524
2602.61
-351.903
2654.37
-296.057
2699.86
-239.061
2738.76
-183.724
2770.97
-131.238
2796.68
-81.2934
2814.74
-32.1963
2826.11
14.3308
2830.54
55.1511
2829.8
90.2737
2823.05
121.008
2811.89
148.21
2794.67
173.905
2772.33
198.894
2743.72
220.965
2708.78
254.642
216.314
2099.84
-552.114
2091.14
-439.768
2032.31
-353.618
1954.78
-391.259
1814.33
-477.897
1614.85
-338.293
1297.01
-157.044
972.22
-82.2958
684.261
-125.485
514.895
-258.7
438.782
-405.061
411.128
-502.012
437.046
-604.389
482.125
-713.018
565.582
-749.877
650.307
-779.672
753.564
-773.802
855.028
-794.719
973.848
-815.406
1099.84
-818.082
1237.13
-780.306
1364.2
-709.709
1491.95
-626.425
1615.02
-561.426
1735.6
-459.758
1829.85
-287.713
1886.97
-103.919
1912.57
11.2418
1942.45
27.9315
1986.97
65.5492
2006.5
203.211
1979.98
358.191
1911.18
502.831
1847.49
561.957
1806.89
361.48
1685.27
259.692
1518.53
363.749
1414.03
452.408
1285.25
643.848
1091.36
886.024
903.043
955.666
714.524
1075.89
468.751
1412.07
373.543
1061.14
397.602
522.826
471.025
112.098
555.174
-171.653
616.501
-361.811
677.187
-455.013
717.956
-484.166
756.372
-505.206
790.546
-547.813
834.133
-612.382
885.974
-676.858
941.231
-723.117
1000.79
-742.746
1051.86
-743.563
1103.8
-735.783
1148.16
-730.645
1195.59
-724.934
1234.1
-716.779
1274.41
-703.999
1305.59
-690.684
1338.31
-677.674
1363.96
-672.251
1394.56
-676.94
1423.69
-689.086
1460.21
-700.59
1496.85
-709.918
1540.35
-714.679
1583.31
-715.27
1631.81
-712.212
1679.97
-708.297
1733.72
-703.319
1787.14
-692.94
1844
-674.993
1899.67
-652.352
1957.61
-625.886
2014.19
-596.671
2071.45
-564.444
2127.58
-531.851
2184.72
-498.826
2239.72
-455.265
2291.68
-401.269
2338.9
-340.972
2380.76
-278.539
2417.01
-217.57
2447.55
-159.599
2472.21
-103.543
2489.47
-47.5269
2500.65
5.45275
2505.68
51.7289
2506.25
91.7732
2501.22
127.219
2492.24
158.851
2477.05
189.769
2456.46
220.646
2429.84
247.799
2397.86
287.055
250.035
1874.74
-526.002
1821.68
-382.073
1711.45
-244.365
1579.9
-232.5
1377.4
-309.986
1131.06
-97.9485
779.835
110.516
547.023
130.12
419.689
-47.6492
400.729
-273.828
409.07
-446.13
411.882
-539.212
445.051
-653.371
481.022
-780.346
546.949
-825.173
606.048
-863.352
679.352
-851.892
746.213
-873.68
830.941
-900.824
924.472
-911.756
1033.69
-876.281
1133.11
-798.495
1235.07
-701.766
1336.47
-637.118
1441.12
-533.11
1524.73
-346.008
1574.82
-128.553
1598.48
15.4066
1644.39
11.3548
1706.31
30.3901
1725.19
207.004
1701.67
403.929
1649.96
570.676
1616.1
614.008
1481.53
510.58
1314.92
448.005
1261.45
436.74
1208.51
523.881
1092
763.588
886.984
1082.64
718.21
1111.89
568.476
1210.26
368.245
1603.52
322.278
1108.05
375.36
467.467
451.856
33.5835
525.652
-243.553
575.289
-427.975
623.717
-512.627
652.681
-530.076
679.806
-543.783
704.717
-588.194
741.985
-663.118
789.713
-737.7
841.872
-789.976
898.707
-810.106
947.003
-807.21
996.351
-794.601
1038.62
-786.169
1084.69
-778.199
1121.54
-766.186
1159.4
-747.905
1186.56
-728.288
1214.01
-709.48
1233.27
-700.336
1257.3
-704.349
1279.62
-718.004
1309.48
-732.387
1339.29
-744.772
1375.66
-751.883
1411.13
-754.217
1452.61
-753.405
1493.74
-751.511
1540.66
-748.953
1587.12
-740.328
1637.09
-723.036
1685.74
-700.819
1736.8
-674.47
1786.47
-644.912
1837.06
-611.889
1886.97
-579.063
1938.41
-546.314
1988.25
-501.37
2035.23
-443.931
2077.93
-379.511
2115.68
-311.939
2148.51
-245.957
2176.4
-183.261
2198.51
-121.2
2213.48
-58.6049
2223.39
-0.239487
2227.83
50.6829
2228.34
95.0098
2223.75
134.459
2215.73
169.821
2201.57
205.636
2182.18
242.113
2157.36
273.529
2128.33
317.22
280.435
1550.24
-483.858
1500.19
-323.483
1382.59
-118.456
1248.87
-61.2562
1043.38
-150.895
845.747
104.172
576.704
314.873
490.149
212.416
443.587
-32.8396
446.635
-296.182
454.855
-473.786
452.295
-558.024
478.56
-684.395
505.251
-824.059
555.443
-870.183
596.101
-914.201
648.693
-898.985
693.217
-920.598
754.276
-956.53
822.84
-977.774
907.471
-949.088
983.549
-870.48
1064.75
-766.496
1148.38
-712.39
1235.01
-607.834
1298.45
-401.193
1329.01
-149.65
1352.8
8.41235
1416.86
-33.9389
1472.9
-11.33
1476.45
217.229
1459.41
437.542
1425.2
618.349
1417.66
635.412
1228.8
700.033
1054.25
620.17
1071.6
412.92
1033.42
556.164
903.544
887.509
690.375
1298.57
537.931
1266.48
411.407
1331.23
278.317
1736.76
286.213
1104.37
359.241
393.75
431.236
-38.3288
492.219
-300.186
531.062
-478.633
569.492
-554.48
588.66
-559.602
606.107
-565.746
622.931
-613.644
655.087
-701.038
699.641
-788.05
749.194
-846.652
803.221
-866.989
848.605
-860.424
895.823
-843.826
936.963
-833.747
982.888
-824.506
1019.25
-808.583
1055.72
-783.731
1079.74
-756.668
1102.84
-730.944
1116.9
-717.652
1135.8
-721.302
1152.86
-737.258
1177.63
-755.048
1201.97
-770.93
1232.43
-780.181
1261.85
-784.713
1298.16
-787.253
1334.08
-787.834
1375.65
-787.723
1416.61
-780.911
1461.22
-764.454
1504.38
-742.866
1550
-716.897
1594.18
-687.253
1639.47
-653.919
1684.34
-621.511
1731.09
-589.799
1776.59
-544.208
1819.23
-483.631
1857.69
-415.379
1891.24
-342.864
1920.47
-272.551
1945.34
-205.779
1963.99
-137.241
1975.84
-68.4162
1984
-5.93121
1987.39
48.9589
1987.34
97.2499
1982.78
140.222
1975.13
179.203
1961.49
219.92
1943.45
261.348
1920.81
296.367
1894.77
343.724
306.513
1281.18
-445.762
1245.49
-277.656
1134.71
-5.01886
1030.03
87.5635
852.196
-17.7315
718.004
224.655
521.987
406.146
465.731
247.782
419.995
-32.9817
419.96
-328.996
430.913
-517.191
432.188
-594.362
461.512
-731.563
489.317
-883.742
531.736
-924.403
560.814
-968.733
599.803
-944.248
632.095
-965.897
681.235
-1006.81
734.465
-1031.17
800.499
-998.401
856.081
-912.777
922.606
-798.911
997.558
-754.452
1069.97
-642.75
1112.69
-414.782
1134.97
-142.642
1165.92
10.8857
1217.05
-48.3851
1248.91
-8.73775
1257.99
237.109
1260.47
463.258
1242.51
658.379
1255.81
648.597
1084.12
889.649
918.702
803.694
917.3
431.529
878.059
611.619
718.507
1045.31
520.553
1485.87
414.888
1368.06
293.884
1446
214.05
1814.37
263.804
1056.94
346.644
309.089
409.082
-102.935
457.181
-347.016
487.748
-525.127
518.869
-594.665
530.111
-587.753
538.945
-586.139
548.349
-638.739
575.995
-742.464
617.787
-843.298
664.528
-908.641
714.901
-928.309
756.6
-918.169
801.611
-898.88
842.11
-888.308
888.398
-878.572
924.615
-858.297
959.886
-825.646
981.009
-789.258
1000.25
-755.133
1010.09
-737.263
1025.09
-740.216
1038.14
-757.474
1058.77
-777.832
1078.35
-795.917
1103.68
-806.33
1128.18
-812.849
1160.5
-819.112
1192.39
-821.836
1229.8
-823.606
1266.29
-818.352
1306.61
-802.582
1345.53
-781.55
1387.05
-755.664
1427.03
-725.629
1468.31
-691.672
1509.27
-659.369
1552.29
-628.241
1594.21
-581.723
1633.23
-517.672
1667.93
-445.305
1697.66
-367.659
1723.44
-293.282
1745.12
-222.684
1760.56
-147.674
1769.55
-73.0457
1775.7
-7.35035
1777.79
50.6621
1777.1
102.109
1772.64
147.623
1764.95
190.141
1751.34
235.383
1735.27
279.631
1715.42
317.158
1692.37
367.98
328.898
1031.31
-414.604
1012.04
-243.566
923.366
95.3967
870.121
178.766
749.521
60.6724
636.842
343.038
444.059
552.83
389.74
301.028
354.283
-23.4345
366.867
-357.858
389.671
-556.845
397.098
-620.868
430.68
-768.388
461.954
-928.652
499.036
-954.365
519.987
-997.541
549.826
-967.159
574.691
-991.44
616.708
-1042.01
659.437
-1070.12
710.851
-1034.97
748.538
-945.388
803.918
-834.989
873.346
-814.309
931.568
-689.17
954.36
-429.614
979.227
-158.021
1012.63
-4.17146
1035.06
-49.6215
1051.35
-7.48399
1071.96
233.391
1087.91
467.209
1084.51
677.793
1100.47
646.1
937.931
1050.05
802.032
935.25
779.106
444.888
729.308
652.796
523.442
1244.63
327.29
1689.17
285.72
1413.43
190.136
1538.04
167.81
1837.32
249.532
978.412
334.251
223.571
384.729
-153.211
422.061
-379.856
448.077
-561.954
474.453
-623.867
478.743
-601.777
479.249
-590.55
481.554
-649.023
505.524
-771.558
544.847
-887.788
588.235
-958.594
633.934
-976.112
671.259
-962.825
714.057
-943.017
754.006
-934.267
800.443
-924.694
835.968
-899.542
869.539
-857.883
887.499
-811.265
903.302
-768.507
910.033
-746.853
922.368
-749.92
932.216
-769.173
949.062
-792.027
963.987
-812.459
984.951
-824.622
1005.65
-834.432
1034.56
-845.112
1062.91
-850.425
1097.32
-854.753
1130.75
-851.18
1168.04
-836.222
1203.97
-816.07
1242.57
-790.599
1279.57
-760.446
1318.13
-726.491
1356.32
-694.713
1396.43
-664.597
1435.35
-617.56
1471.24
-550.269
1502.49
-473.697
1528.85
-391.192
1551.44
-313.035
1569.86
-238.639
1582.69
-157.757
1589.69
-77.9585
1594.08
-9.17797
1594.81
51.5871
1593.43
105.731
1588.93
153.273
1580.89
199.923
1566.95
249.891
1552.81
294.988
1535.89
334.259
1515.92
388.456
346.89
812.149
-382.938
808.255
-219.372
754.983
156.297
744.548
232.933
662.516
107.214
546.232
443.949
347.339
652.765
307.415
320.321
291.304
-53.6291
319.742
-420.411
353.523
-624.871
365.298
-670.313
400.793
-824.668
433.402
-994.496
464.942
-999.921
479.773
-1038.83
503.942
-998.923
524.457
-1025.23
561.024
-1079.14
594.465
-1103.13
632.562
-1052.47
654.795
-952.057
705.382
-845.109
770.626
-839.754
811.214
-688.141
817.976
-404.043
850.698
-157.343
877.795
5.45721
880.872
-10.3842
900.445
17.8642
922.198
249.074
937.884
487.797
947.65
697.896
978.822
649.296
813.924
1235.54
690.936
1075.16
658.654
491.788
596.641
727.6
386.614
1451.16
195.109
1874.89
178.079
1432.52
117.891
1598.81
142.563
1813.84
241.527
882.197
322.118
141.268
360.006
-193.389
389.521
-408.449
414.317
-602.19
437.321
-655.773
434.735
-616.121
426.858
-594.371
422.794
-660.816
444.147
-806.915
481.069
-938.377
520.2
-1013.36
560.449
-1027.57
593.258
-1012.22
633.786
-994.018
672.643
-987.824
718.092
-978.36
751.633
-947.393
782.474
-895.851
796.972
-838.254
810.028
-787.113
814.851
-762.367
825.281
-764.738
832.15
-783.649
844.96
-807.077
855.09
-828.271
872.523
-842.781
890.496
-856.128
915.866
-869.786
940.433
-877.137
972.899
-885.406
1005.11
-884.335
1041.12
-869.776
1075.38
-850.024
1112.11
-824.305
1147.08
-793.632
1183.99
-759.489
1220.22
-727.386
1257.92
-697.04
1294.39
-648.891
1327.85
-578.114
1356.27
-496.769
1380
-409.478
1400
-327.477
1415.13
-248.567
1425.75
-162.934
1431.69
-79.1983
1434.8
-7.18821
1434.22
56.2306
1432.08
112.326
1427.11
161.352
1419.06
211.395
1405.85
264.995
1393.33
309.763
1378.72
349.698
1361.78
406.43
361.211
629.4
-349.783
638.014
-208.667
615.508
193.32
628.904
252.356
561.988
137.606
438.902
577.614
249.763
810.03
236.112
336.241
239.424
-78.1676
281.234
-474.677
322.525
-678.927
336.731
-699.618
372.719
-860.704
405.321
-1036.99
430.911
-1015.58
440.356
-1053.97
460.456
-1010.49
479.022
-1042.94
512.225
-1104.21
537.805
-1123.73
563.587
-1058.59
572.188
-954.792
619.809
-871.741
680.092
-889.769
706.848
-704.408
705.687
-396.581
739.041
-182.761
751.396
9.14082
744.666
15.96
774.122
6.99698
796.094
243.598
808.714
494.686
819.054
701.207
780.412
694.805
623.417
1387.46
588.353
1104.5
543.763
525.329
463.061
798.804
276.891
1630.85
111.317
2048.3
94.8686
1451.83
69.3149
1620.03
130.043
1752.38
236.146
778.046
309.276
67.0499
335.587
-219.478
360.786
-428.975
386.885
-638.253
406.679
-677.921
396.528
-615.226
380.355
-581.602
371.231
-659.087
391.417
-831.633
425.775
-977.277
460.118
-1053.73
495.204
-1064
523.925
-1047.76
561.65
-1032.41
597.871
-1029.58
640.595
-1020.05
670.576
-982.767
697.678
-920.881
708.694
-852.999
720.076
-795.209
723.885
-768.573
732.306
-769.86
735.433
-788.3
743.638
-812.089
748.891
-834.958
763.272
-853.991
779.201
-872.731
801.444
-888.687
822.305
-898.064
853.645
-913.021
886.473
-916.334
923.13
-902.293
957.202
-882.393
993.123
-856.069
1027.1
-825.06
1063.38
-791.531
1098.38
-759.055
1134.13
-728.486
1168.57
-679.784
1200.15
-606.067
1226.22
-519.718
1247.96
-428.219
1265.88
-342.401
1277.55
-257.715
1285.96
-168.503
1291.34
-82.5087
1293.65
-6.90341
1291.95
59.5143
1289.24
117.271
1283.48
168.178
1275.62
220.947
1264.4
276.696
1253.8
321.594
1241.05
362.619
1226.7
421.336
371.797
481.786
-311.736
501.93
-198.022
501.542
206.923
528.428
270.511
466.447
164.394
339.976
692.648
170.206
892.022
177.384
308.079
195.722
-143.842
246.433
-560.234
291.162
-759.141
306.781
-755.025
341.525
-918.331
373.485
-1102.91
395.593
-1053.35
401.79
-1088.09
419.092
-1036.44
437.52
-1074.43
469.391
-1134.8
486.859
-1138.94
502.956
-1049.39
505.271
-939.121
551.962
-872.462
602.77
-896.363
619.655
-679.181
615.584
-358.445
639.823
-170.794
641.68
43.2821
635.331
67.9212
666.865
31.7527
685.604
269.179
697.692
525.21
714.048
720.319
574.506
866.866
411.719
1570.01
484.988
1048.66
442.121
581.114
336.572
912.983
162.517
1802.2
44.3571
2168.92
44.4564
1456.26
47.6633
1620.35
127.929
1674.51
232.851
675.707
296.903
1.24456
313.375
-238.284
337.057
-451.799
365.247
-681.188
380.883
-702.222
362.628
-613.915
339.012
-569.889
326.836
-662.877
347.019
-865.937
378.332
-1022.35
407.519
-1098.81
438.218
-1106.04
463.265
-1089.77
496.886
-1076.77
528.375
-1076.23
566.562
-1066.76
591.67
-1022.92
614.331
-951.089
622.438
-874.646
633.216
-812.181
635.819
-782.701
640.857
-779.691
638.981
-794.427
642.19
-817.512
643.05
-841.821
654.471
-866.052
668.503
-890.663
688.974
-908.265
707.616
-918.936
738.923
-942.269
773.469
-951.845
812.036
-938.174
846.992
-916.981
883.065
-888.845
916.83
-856.82
952.971
-823.324
987.402
-789.38
1022.04
-757.046
1054.85
-706.674
1084.91
-629.889
1109.3
-538.242
1129.46
-442.512
1145.7
-352.662
1154.62
-261.139
1160.78
-168.892
1165.09
-81.8964
1166.61
-3.08135
1164.19
66.1289
1161.39
124.689
1154.65
178.067
1146.4
232.693
1138.14
286.814
1130.32
331.616
1119.26
374.222
1107.08
433.994
379.083
402.252
-277.074
410.95
-181.835
406.025
225.178
432.869
272.096
365.683
194.448
239.883
832.87
100.023
1014.08
126.762
285.248
157.102
-191.853
213.955
-626.892
259.454
-814.717
276.056
-784.009
307.605
-947.33
338.577
-1140.45
360.779
-1062.57
366.594
-1097.5
382.332
-1041.72
399.912
-1088.31
429.683
-1153.77
439.752
-1141.21
447.486
-1033.07
443.124
-926.739
482.747
-883.332
522.801
-923.317
537.122
-683.344
533.173
-349.101
547.283
-178.437
545.408
59.7702
545.232
88.7066
574.42
25.7168
588.584
273.778
598.62
535.05
603.977
725.143
417.468
1052.02
279.087
1700.67
386.043
934.394
343.688
610.667
186.865
1060.31
9.93189
1973.81
-20.5225
2206.04
3.91964
1433.19
32.4726
1585.71
129.088
1575.72
229.557
576.161
284.257
-54.8608
293.236
-247.056
317.734
-471.549
347.786
-720.338
358.004
-714.417
331.508
-596.357
302.038
-543.443
288.868
-656.563
309.903
-890.964
337.739
-1054.11
361.961
-1128.55
389.158
-1133.83
410.421
-1117.29
438.436
-1104.77
463.553
-1106.39
496.344
-1097.8
515.907
-1047.58
534.026
-966.34
539.889
-883.886
549.961
-818.11
549.441
-784.119
548.904
-775.287
540.723
-787.559
538.955
-812.023
536.393
-840.588
545.14
-871.153
556.49
-902.539
575.581
-923.567
593.978
-937.241
627.406
-971.487
665.112
-988.48
706.535
-974.972
743.167
-951.589
780.247
-921.275
814.558
-888.186
850.926
-854.932
885.546
-820.113
920.237
-786.803
952.035
-734.416
980.722
-654.602
1003.74
-557.889
1022.27
-457.915
1037.06
-364.314
1044.64
-266.177
1049.07
-170.436
1051.58
-82.3897
1051.97
-0.895766
1048.99
70.6147
1046.23
129.635
1039.01
186.244
1030.32
243.061
1024.1
293.462
1018.74
338.248
1009.64
383.439
999.46
444.817
383.756
341.585
-230.278
341.922
-141.334
331.493
254.049
354.846
293.369
273.999
228.964
150.515
948.798
45.2357
1055.1
84.9303
223.569
123.089
-278.361
182.227
-721.608
224.835
-894.5
242.728
-844.534
271.119
-1001.14
301.237
-1205.26
325.839
-1103.99
331.252
-1132.45
347.69
-1066.95
366.219
-1118.69
391.542
-1174.26
397.949
-1141
406.758
-1006.47
401.68
-896.567
438.203
-862.308
458.971
-896.047
458.936
-641.515
456.397
-310.612
463.007
-147.03
457.294
102.581
467.542
131.785
496.429
67.7089
504.244
319.372
511.751
577.565
500.668
778.349
305.838
1279.99
199.516
1826.51
299.965
852.535
259.21
664.198
50.352
1277.86
-140.957
2165.47
-66.1769
2138.72
-14.0254
1386.2
33.7374
1542.35
135.251
1477.03
226.94
486.71
272.455
-102.333
276.296
-253.233
302.597
-496.986
333.059
-764.614
336.75
-726.555
302.83
-579.514
269.73
-522.61
257.349
-660.238
279.084
-926.87
303.053
-1091.87
322.694
-1164.23
346.779
-1169.27
363.668
-1151.38
384.873
-1136.9
402.99
-1140.06
430.3
-1133.87
444.131
-1077.23
457.903
-988.126
461.62
-902.168
468.964
-832.286
462.185
-789.629
453.998
-772.146
439.071
-781.092
433.08
-808.108
428.599
-842.502
435.032
-878.137