# vtk DataFile Version 2.0
track0
ASCII
DATASET POLYDATA
POINTS 10809 float
-0.0205 0.001 1e-05
-0.0202034 0.00100023 1e-05
-0.0199069 0.00100077 1e-05
-0.0196103 0.0010015 1e-05
-0.0193137 0.00100243 1e-05
-0.0190172 0.00100355 1e-05
-0.0187132 0.00100513 1e-05
-0.0184093 0.00100627 1e-05
-0.0181054 0.00100736 1e-05
-0.0178015 0.0010084 1e-05
-0.0174976 0.00100941 1e-05
-0.0172058 0.00101071 1e-05
-0.016914 0.00101143 1e-05
-0.0166222 0.00101212 1e-05
-0.0163305 0.00101278 1e-05
-0.0160387 0.00101341 1e-05
-0.0157586 0.00101437 1e-05
-0.0154784 0.00101494 1e-05
-0.0151983 0.00101555 1e-05
-0.0149182 0.0010162 1e-05
-0.0146381 0.00101689 1e-05
-0.0143692 0.00101788 1e-05
-0.0141002 0.00101864 1e-05
-0.0138313 0.00101945 1e-05
-0.0135624 0.00102032 1e-05
-0.0132934 0.00102125 1e-05
-0.0130353 0.00102237 1e-05
-0.0127771 0.00102336 1e-05
-0.0125189 0.0010244 1e-05
-0.0122607 0.00102547 1e-05
-0.0120025 0.00102659 1e-05
-0.0117547 0.0010278 1e-05
-0.0115068 0.00102894 1e-05
-0.0112589 0.00103011 1e-05
-0.0110111 0.00103131 1e-05
-0.0107632 0.00103253 1e-05
-0.0105252 0.00103377 1e-05
-0.0102873 0.001035 1e-05
-0.0100493 0.00103623 1e-05
-0.00981133 0.00103749 1e-05
-0.00957337 0.00103876 1e-05
-0.00951822 0.00103906 1e-05
-0.00946308 0.00103935 1e-05
-0.00940793 0.00103965 1e-05
-0.00935279 0.00103995 1e-05
-0.00929776 0.00104025 1e-05
-0.00912442 0.0010412 1e-05
-0.00895109 0.00104215 1e-05
-0.00877775 0.00104311 1e-05
-0.00860442 0.00104407 1e-05
-0.00843108 0.00104503 1e-05
-0.00821175 0.00104626 1e-05
-0.00799242 0.00104749 1e-05
-0.00777309 0.00104873 1e-05
-0.00755376 0.00104997 1e-05
-0.00733443 0.00105121 1e-05
-0.00712387 0.0010524 1e-05
-0.0069133 0.00105359 1e-05
-0.00670273 0.00105479 1e-05
-0.00649217 0.00105599 1e-05
-0.0062816 0.00105719 1e-05
-0.00607944 0.00105832 1e-05
-0.00587729 0.00105947 1e-05
-0.00567514 0.00106061 1e-05
-0.00547298 0.00106175 1e-05
-0.00527083 0.00106289 1e-05
-0.00507675 0.00106397 1e-05
-0.00488267 0.00106505 1e-05
-0.0046886 0.00106613 1e-05
-0.00449452 0.00106721 1e-05
-0.00430044 0.00106828 1e-05
-0.00411412 0.0010693 1e-05
-0.0039278 0.00107031 1e-05
-0.00374147 0.00107133 1e-05
-0.00355515 0.00107233 1e-05
-0.00336883 0.00107333 1e-05
-0.00318995 0.00107428 1e-05
-0.00301107 0.00107522 1e-05
-0.00283219 0.00107616 1e-05
-0.00265331 0.00107709 1e-05
-0.00247443 0.00107802 1e-05
-0.0023027 0.00107889 1e-05
-0.00213097 0.00107976 1e-05
-0.00195924 0.00108062 1e-05
-0.0017875 0.00108147 1e-05
-0.00161577 0.00108231 1e-05
-0.0014509 0.00108309 1e-05
-0.00128603 0.00108387 1e-05
-0.00112116 0.00108464 1e-05
-0.000956289 0.00108539 1e-05
-0.000791418 0.00108613 1e-05
-0.000633135 0.00108681 1e-05
-0.000474851 0.00108748 1e-05
-0.000316567 0.00108813 1e-05
-0.000158283 0.00108876 1e-05
0 0.00108936 1e-05
0.000105677 0.00108974 1e-05
0.000211355 0.00109011 1e-05
0.000317032 0.00109048 1e-05
0.00042271 0.00109082 1e-05
0.000528387 0.00109116 1e-05
0.000634886 0.00109148 1e-05
0.000741385 0.00109179 1e-05
0.000847885 0.0010921 1e-05
0.000954384 0.00109239 1e-05
0.00106088 0.00109268 1e-05
0.00116821 0.00109295 1e-05
0.00127554 0.00109323 1e-05
0.00138286 0.00109349 1e-05
0.00149019 0.00109375 1e-05
0.00159752 0.00109399 1e-05
0.00170568 0.00109423 1e-05
0.00181384 0.00109446 1e-05
0.001922 0.00109468 1e-05
0.00203016 0.0010949 1e-05
0.00213833 0.00109511 1e-05
0.00224733 0.0010953 1e-05
0.00235633 0.00109549 1e-05
0.00246533 0.00109568 1e-05
0.00257434 0.00109586 1e-05
0.00268334 0.00109604 1e-05
0.00279319 0.00109619 1e-05
0.00290304 0.00109636 1e-05
0.00301289 0.00109652 1e-05
0.00312274 0.00109667 1e-05
0.00323259 0.00109682 1e-05
0.00334329 0.00109695 1e-05
0.003454 0.00109709 1e-05
0.0035647 0.00109722 1e-05
0.0036754 0.00109735 1e-05
0.00378611 0.00109748 1e-05
0.00389767 0.00109759 1e-05
0.00400924 0.00109771 1e-05
0.0041208 0.00109782 1e-05
0.00423237 0.00109793 1e-05
0.00434393 0.00109804 1e-05
0.00445636 0.00109813 1e-05
0.00456879 0.00109823 1e-05
0.00468123 0.00109833 1e-05
0.00479366 0.00109842 1e-05
0.00490609 0.0010985 1e-05
0.0050194 0.00109858 1e-05
0.0051327 0.00109865 1e-05
0.00524601 0.00109873 1e-05
0.00535932 0.0010988 1e-05
0.00547262 0.00109886 1e-05
0.00558681 0.00109892 1e-05
0.005701 0.00109898 1e-05
0.00581518 0.00109903 1e-05
0.00592937 0.00109908 1e-05
0.00604356 0.00109912 1e-05
0.00615863 0.00109916 1e-05
0.00627371 0.0010992 1e-05
0.00638878 0.00109923 1e-05
0.00650386 0.00109926 1e-05
0.00661893 0.00109928 1e-05
0.0067349 0.0010993 1e-05
0.00685087 0.00109931 1e-05
0.00696684 0.00109933 1e-05
0.00708281 0.00109933 1e-05
0.00719878 0.00109933 1e-05
0.0072311 0.00109933 1e-05
0.00726343 0.00109933 1e-05
0.00729575 0.00109933 1e-05
0.00732808 0.00109933 1e-05
0.00736 0.00109933 1e-05
0.00744463 0.00109932 1e-05
0.00752925 0.00109931 1e-05
0.00761388 0.0010993 1e-05
0.00769851 0.00109929 1e-05
0.00778313 0.00109927 1e-05
0.00790091 0.00109924 1e-05
0.00801869 0.00109921 1e-05
0.00813647 0.00109918 1e-05
0.00825425 0.00109914 1e-05
0.00837203 0.00109909 1e-05
0.00849073 0.00109904 1e-05
0.00860942 0.00109898 1e-05
0.00872812 0.00109892 1e-05
0.00884682 0.00109886 1e-05
0.00896551 0.00109879 1e-05
0.00908513 0.00109871 1e-05
0.00920475 0.00109863 1e-05
0.00932437 0.00109854 1e-05
0.00944398 0.00109845 1e-05
0.0095636 0.00109835 1e-05
0.00968415 0.00109824 1e-05
0.0098047 0.00109813 1e-05
0.00992525 0.00109802 1e-05
0.0100458 0.0010979 1e-05
0.0101663 0.00109778 1e-05
0.0102878 0.00109763 1e-05
0.0104093 0.0010975 1e-05
0.0105308 0.00109735 1e-05
0.0106523 0.00109721 1e-05
0.0107738 0.00109705 1e-05
0.0108962 0.00109688 1e-05
0.0110186 0.00109671 1e-05
0.0111411 0.00109654 1e-05
0.0112635 0.00109636 1e-05
0.0113859 0.00109618 1e-05
0.0115093 0.00109597 1e-05
0.0116327 0.00109577 1e-05
0.0117561 0.00109557 1e-05
0.0118795 0.00109536 1e-05
0.0120028 0.00109514 1e-05
0.0121272 0.0010949 1e-05
0.0122515 0.00109467 1e-05
0.0123759 0.00109443 1e-05
0.0125002 0.00109419 1e-05
0.0126245 0.00109394 1e-05
0.0127498 0.00109366 1e-05
0.0128752 0.00109339 1e-05
0.0130005 0.00109312 1e-05
0.0131258 0.00109285 1e-05
0.0132511 0.00109256 1e-05
0.0133774 0.00109225 1e-05
0.0135036 0.00109194 1e-05
0.0136299 0.00109164 1e-05
0.0137562 0.00109132 1e-05
0.0138825 0.001091 1e-05
0.0140098 0.00109065 1e-05
0.014137 0.00109031 1e-05
0.0142643 0.00108996 1e-05
0.0143915 0.00108961 1e-05
0.0145188 0.00108925 1e-05
0.0146471 0.00108886 1e-05
0.0147753 0.00108848 1e-05
0.0149036 0.00108809 1e-05
0.0150318 0.0010877 1e-05
0.0151601 0.0010873 1e-05
0.0152893 0.00108686 1e-05
0.0154186 0.00108644 1e-05
0.0155478 0.00108602 1e-05
0.0156771 0.00108558 1e-05
0.0158063 0.00108514 1e-05
0.0159366 0.00108467 1e-05
0.0160668 0.0010842 1e-05
0.0161971 0.00108373 1e-05
0.0163274 0.00108325 1e-05
0.0164576 0.00108276 1e-05
0.0165889 0.00108225 1e-05
0.0167201 0.00108174 1e-05
0.0168514 0.00108123 1e-05
0.0169827 0.0010807 1e-05
0.0171139 0.00108017 1e-05
0.0172462 0.00107961 1e-05
0.0173785 0.00107906 1e-05
0.0175108 0.00107849 1e-05
0.0176431 0.00107792 1e-05
0.0177754 0.00107734 1e-05
0.0179087 0.00107674 1e-05
0.018042 0.00107614 1e-05
0.0181753 0.00107553 1e-05
0.0183087 0.00107491 1e-05
0.018442 0.00107428 1e-05
0.0185763 0.00107364 1e-05
0.0187107 0.00107299 1e-05
0.018845 0.00107232 1e-05
0.0189794 0.00107166 1e-05
0.0191137 0.00107098 1e-05
0.0192491 0.00107029 1e-05
0.0193845 0.00106959 1e-05
0.0195199 0.00106888 1e-05
0.0196553 0.00106815 1e-05
0.0197907 0.00106743 1e-05
0.0199272 0.00106669 1e-05
0.0200636 0.00106594 1e-05
0.0202001 0.00106518 1e-05
0.0203365 0.0010644 1e-05
0.020473 0.00106363 1e-05
0.0206105 0.00106284 1e-05
0.020748 0.00106204 1e-05
0.0208855 0.00106122 1e-05
0.021023 0.0010604 1e-05
0.0211606 0.00105957 1e-05
0.0212991 0.00105874 1e-05
0.0214377 0.00105789 1e-05
0.0215763 0.00105701 1e-05
0.0217149 0.00105613 1e-05
0.0218535 0.00105525 1e-05
0.0219931 0.00105438 1e-05
0.0221328 0.00105347 1e-05
0.0222724 0.00105255 1e-05
0.0224121 0.00105161 1e-05
0.0225517 0.00105068 1e-05
0.0226925 0.00104976 1e-05
0.0228332 0.0010488 1e-05
0.022974 0.00104782 1e-05
0.0231147 0.00104682 1e-05
0.0232555 0.00104584 1e-05
0.0233973 0.00104487 1e-05
0.0235391 0.00104387 1e-05
0.023681 0.00104283 1e-05
0.0238228 0.00104178 1e-05
0.0239647 0.00104075 1e-05
0.0241076 0.00103973 1e-05
0.0242505 0.00103867 1e-05
0.0243935 0.00103758 1e-05
0.0245364 0.00103648 1e-05
0.0246794 0.0010354 1e-05
0.0248234 0.00103433 1e-05
0.0249675 0.00103322 1e-05
0.0251115 0.00103208 1e-05
0.0252556 0.00103093 1e-05
0.0253996 0.0010298 1e-05
0.0255448 0.00102867 1e-05
0.02569 0.00102752 1e-05
0.0258351 0.00102632 1e-05
0.0259803 0.00102512 1e-05
0.0261255 0.00102393 1e-05
0.0262718 0.00102276 1e-05
0.0264181 0.00102155 1e-05
0.0265644 0.0010203 1e-05
0.0267107 0.00101905 1e-05
0.026857 0.00101781 1e-05
0.0270044 0.00101659 1e-05
0.0271519 0.00101533 1e-05
0.0272993 0.00101403 1e-05
0.0274468 0.00101272 1e-05
0.0275942 0.00101144 1e-05
0.0277428 0.00101016 1e-05
0.0278914 0.00100885 1e-05
0.0280399 0.0010075 1e-05
0.0281885 0.00100614 1e-05
0.0283371 0.0010048 1e-05
0.0284869 0.00100347 1e-05
0.0286366 0.0010021 1e-05
0.0287863 0.0010007 1e-05
0.0289361 0.000999288 1e-05
0.0290858 0.000997897 1e-05
0.0292367 0.000996517 1e-05
0.0293876 0.000995099 1e-05
0.0295385 0.000993644 1e-05
0.0296894 0.000992183 1e-05
0.0298403 0.000990739 1e-05
0.0299924 0.000989306 1e-05
0.0301445 0.000987834 1e-05
0.0302966 0.00098633 1e-05
0.0304486 0.00098482 1e-05
0.0306007 0.000983323 1e-05
0.030754 0.000981835 1e-05
0.0309072 0.000980308 1e-05
0.0310605 0.000978755 1e-05
0.0312138 0.000977194 1e-05
0.031367 0.000975642 1e-05
0.0315215 0.000974098 1e-05
0.0316759 0.000972516 1e-05
0.0318304 0.000970911 1e-05
0.0319848 0.000969299 1e-05
0.0321393 0.000967691 1e-05
0.0322949 0.000966089 1e-05
0.0324506 0.00096445 1e-05
0.0326062 0.000962792 1e-05
0.0327619 0.000961127 1e-05
0.0329175 0.000959461 1e-05
0.0330744 0.0009578 1e-05
0.0332313 0.000956102 1e-05
0.0333881 0.000954389 1e-05
0.033545 0.000952668 1e-05
[...]
POINT_DATA 10809
 FIELD attributes 2
p 1 10809 float
-5.13897 -5.14366 -5.13521 -5.12667 -5.11805 -5.10264 -5.10485 -5.11546 -5.12607 -5.13669 -5.17169 -5.18121 -5.21475 -5.24829 -5.28184 -5.32977 -5.33399 -5.36106 -5.38814 -5.41524 -5.45528 -5.46643 -5.49247 -5.51853 -5.54461 -5.58021 -5.59908 -5.62558 -5.65209 -5.67861 -5.70987 -5.7296 -5.75291 -5.77622 -5.79953 -5.82461 -5.84264 -5.86212 -5.8816 -5.90108 -5.92081 -5.92474 -5.92888 -5.93302 -5.93716 -5.94129 -5.95431 -5.96733 -5.98034 -5.99336 -6.00595 -6.0221 -6.03798 -6.05385 -6.06973 -6.08483 -6.10029 -6.11524 -6.13018 -6.14513 -6.15912 -6.17398 -6.18821 -6.20244 -6.21667 -6.2299 -6.24435 -6.25816 -6.27197 -6.28578 -6.29862 -6.31293 -6.32665 -6.34038 -6.35411 -6.36693 -6.38133 -6.39525 -6.40917 -6.4231 -6.43615 -6.45089 -6.4654 -6.4799 -6.49441 -6.50802 -6.52305 -6.53803 -6.553 -6.56798 -6.5817 -6.59462 -6.60688 -6.61915 -6.63141 -6.64184 -6.64835 -6.65325 -6.65814 -6.66303 -6.66676 -6.66862 -6.66857 -6.66852 -6.66847 -6.66788 -6.66915 -6.6695 -6.66985 -6.6702 -6.67042 -6.67409 -6.67625 -6.67842 -6.68059 -6.68159 -6.68587 -6.68775 -6.68963 -6.69152 -6.69138 -6.69489 -6.69608 -6.69727 -6.69846 -6.69759 -6.70052 -6.70163 -6.70273 -6.70384 -6.70323 -6.7057 -6.70681 -6.70792 -6.70902 -6.70885 -6.71069 -6.71157 -6.71245 -6.71333 -6.71336 -6.71454 -6.71511 -6.71568 -6.71624 -6.71633 -6.717 -6.71734 -6.71768 -6.71801 -6.71812 -6.71848 -6.71868 -6.71888 -6.71908 -6.7192 -6.71938 -6.7195 -6.71961 -6.71973 -6.71984 -6.71987 -6.7199 -6.71992 -6.71994 -6.71997 -6.72003 -6.7201 -6.72016 -6.72022 -6.72027 -6.72039 -6.72051 -6.72063 -6.72075 -6.72088 -6.72101 -6.7212 -6.72139 -6.72158 -6.72191 -6.72197 -6.72225 -6.72254 -6.72282 -6.72348 -6.72336 -6.72375 -6.72413 -6.72451 -6.72561 -6.72523 -6.72573 -6.72622 -6.72672 -6.72837 -6.72767 -6.72829 -6.72891 -6.72954 -6.73183 -6.73074 -6.7315 -6.73226 -6.73301 -6.73601 -6.73452 -6.73541 -6.7363 -6.73719 -6.74092 -6.739 -6.74003 -6.74106 -6.74209 -6.74656 -6.74424 -6.74544 -6.74664 -6.74785 -6.7531 -6.7505 -6.75189 -6.75328 -6.75467 -6.76059 -6.75777 -6.75931 -6.76085 -6.76239 -6.76886 -6.76584 -6.76753 -6.76922 -6.77091 -6.7779 -6.77482 -6.77669 -6.77857 -6.78067 -6.78786 -6.78529 -6.78698 -6.78903 -6.79173 -6.79875 -6.79675 -6.79825 -6.80047 -6.80368 -6.81044 -6.80901 -6.81038 -6.81276 -6.81641 -6.82289 -6.82204 -6.82336 -6.8259 -6.82991 -6.83609 -6.83584 -6.83719 -6.83989 -6.84417 -6.85005 -6.85039 -6.85183 -6.85469 -6.85916 -6.86472 -6.86563 -6.86724 -6.87025 -6.87483 -6.88009 -6.88154 -6.88337 -6.88652 -6.89115 -6.89614 -6.89808 -6.90019 -6.90349 -6.9081 -6.91284 -6.91525 -6.91766 -6.92111 -6.92565 -6.93018 -6.933 -6.93582 -6.93941 -6.94377 -6.94813 -6.95131 -6.9545 -6.9582 -6.96243 -6.96665 -6.97016 -6.97366 -6.97748 -6.98161 -6.98574 -6.98951 -6.99329 -6.99722 -7.00129 -7.00536 -7.00937 -7.01337 -7.0174 -7.02145 -7.02551 -7.02971 -7.03393 -7.03805 -7.04211 -7.04617 -7.05057 -7.05498 -7.05919 -7.06325 -7.06731 -7.07187 -7.07643 -7.08071 -7.08477 -7.08883 -7.09348 -7.09812 -7.10247 -7.10658 -7.11066 -7.11538 -7.12003 -7.12444 -7.12865 -7.13277 -7.13753 -7.14218 -7.14664 -7.15094 -7.15513 -7.15991 -7.16455 -7.16905 -7.17344 -7.1777 -7.18248 -7.1871 -7.19164 -7.19611 -7.20044 -7.2052 -7.20981 -7.21438 -7.21891 -7.22329 -7.22803 -7.23263 -7.23721 -7.24179 -7.24621 -7.25092 -7.2555 -7.26009 -7.26468 -7.26915 -7.27381 -7.27838 -7.28296 -7.28754 -7.29205 -7.29665 -7.30121 -7.30577 -7.31033 -7.31484 -7.31939 -7.32391 -7.32844 -7.33296 -7.33746 -7.34195 -7.34642 -7.3509 -7.35537 -7.35984 -7.36425 -7.36866 -7.37307 -7.37748 -7.38189 -7.38362 -7.38534 -7.38706 -7.38879 -7.39048 -7.3931 -7.39571 -7.39833 -7.40095 -7.40356 -7.40781 -7.41205 -7.41628 -7.42052 -7.42475 -7.4289 -7.43302 -7.43714 -7.44126 -7.44535 -7.4494 -7.45338 -7.45737 -7.46136 -7.46531 -7.46923 -7.47307 -7.47691 -7.48075 -7.48452 -7.48831 -7.49197 -7.49563 -7.49929 -7.50283 -7.50646 -7.50992 -7.51337 -7.5168 -7.52013 -7.52355 -7.52683 -7.53005 -7.53322 -7.53631 -7.5395 -7.54259 -7.54556 -7.54844 -7.55125 -7.55419 -7.55706 -7.55975 -7.5623 -7.56481 -7.56746 -7.57009 -7.57247 -7.57465 -7.57683 -7.57916 -7.5815 -7.58355 -7.58537 -7.58719 -7.58918 -7.59117 -7.59287 -7.5943 -7.59573 -7.59735 -7.59897 -7.60029 -7.6013 -7.60232 -7.60353 -7.60474 -7.60567 -7.60623 -7.60679 -7.60756 -7.60832 -7.60878 -7.60891 -7.60899 -7.6093 -7.6095 -7.60947 -7.6092 -7.60877 -7.60857 -7.60818 -7.60762 -7.60693 -7.60595 -7.60522 -7.60418 -7.60306 -7.60193 -7.60038 -7.59905 -7.59734 -7.59563 -7.59392 -7.59187 -7.58982 -7.58748 -7.58514 -7.58281 -7.58025 -7.57743 -7.57443 -7.57143 -7.56844 -7.56537 -7.56375 -7.56206 -7.56038 -7.5587 -7.55706 -7.55508 -7.5531 -7.55112 -7.54914 -7.54712 -7.54282 -7.53846 -7.53411 -7.52977 -7.52533 -7.52036 -7.51525 -7.51014 -7.50504 -7.49976 -7.49411 -7.48821 -7.48232 -7.4764 -7.47026 -7.46382 -7.45718 -7.45046 -7.44363 -7.43664 -7.42936 -7.42198 -7.41441 -7.40661 -7.39875 -7.39059 -7.38244 -7.37396 -7.36519 -7.35643 -7.34736 -7.33829 -7.32891 -7.3192 -7.3095 -7.29949 -7.28948 -7.27916 -7.26848 -7.25781 -7.24683 -7.23578 -7.22444 -7.21288 -7.20121 -7.18923 -7.17702 -7.16466 -7.15224 -7.13954 -7.12654 -7.11313 -7.09972 -7.08632 -7.07267 -7.05844 -7.04395 -7.02948 -7.015 -7.00046 -6.99391 -6.98727 -6.98064 -6.97401 -6.96759 -6.95861 -6.94964 -6.94067 -6.93171 -6.92267 -6.90606 -6.88939 -6.87272 -6.85606 -6.83921 -6.82158 -6.80377 -6.78597 -6.76816 -6.75004 -6.73132 -6.71242 -6.69347 -6.67435 -6.65505 -6.63517 -6.61523 -6.5951 -6.57464 -6.55415 -6.53308 -6.51201 -6.49064 -6.46894 -6.44724 -6.42497 -6.4027 -6.38009 -6.35718 -6.33426 -6.31078 -6.28718 -6.2633 -6.23928 -6.21514 -6.19043 -6.1654 -6.14029 -6.11518 -6.08983 -6.06377 -6.03741 -6.01105 -5.9847 -5.95828 -5.94641 -5.93444 -5.92248 -5.91051 -5.8989 -5.88324 -5.86759 -5.85194 -5.83629 -5.82047 -5.79184 -5.76309 -5.73434 -5.7056 -5.67635 -5.64673 -5.61674 -5.58676 -5.55656 -5.52595 -5.49508 -5.46411 -5.43289 -5.40111 -5.36925 -5.33714 -5.30504 -5.27245 -5.23936 -5.20627 -5.17292 -5.13958 -5.10561 -5.07135 -5.03703 -5.00246 -4.96752 -4.93232 -4.89711 -4.86158 -4.82568 -4.78926 -4.75286 -4.71646 -4.67997 -4.66788 -4.65566 -4.64344 -4.63123 -4.61926 -4.5939 -4.56854 -4.54319 -4.51784 -4.4922 -4.45371 -4.41504 -4.37638 -4.33771 -4.29837 -4.25887 -4.21917 -4.17937 -4.13912 -4.09863 -4.05798 -4.01734 -3.97627 -3.93468 -3.89308 -3.85131 -3.80955 -3.76716 -3.72453 -3.68184 -3.63898 -3.59572 -3.55224 -3.50877 -3.46505 -3.42343 -3.38141 -3.33941 -3.2974 -3.25775 -3.25477 -3.25179 -3.24881 -3.24583 -3.24282 -3.19738 -3.15193 -3.1065 -3.06107 -3.01513 -2.96894 -2.92253 -2.87612 -2.82942 -2.78236 -2.73521 -2.68807 -2.64062 -2.59267 -2.54469 -2.49662 -2.44856 -2.39996 -2.35115 -2.30231 -2.25335 -2.20402 -2.15452 -2.10503 -2.05539 -2.02134 -1.98701 -1.95268 -1.91836 -1.88534 -1.86911 -1.85288 -1.83666 -1.82043 -1.80406 -1.75308 -1.70205 -1.65104 -1.60001 -1.54842 -1.49679 -1.44511 -1.39337 -1.3412 -1.28892 -1.23659 -1.18427 -1.13162 -1.07872 -1.0258 -0.972821 -0.919635 -0.866216 -0.812802 -0.759267 -0.716197 -0.672843 -0.629496 -0.586155 -0.544642 -0.533624 -0.522606 -0.511588 -0.500571 -0.489471 -0.434966 -0.380452 -0.325948 -0.271444 -0.216498 -0.161534 -0.106571 -0.0516059 0.00367749 0.0590336 0.114421 0.169797 0.225418 0.281103 0.336825 0.392585 0.448533 0.504565 0.560587 0.616636 0.64121 0.665883 0.690554 0.715224 0.739357 0.771144 0.802927 0.834708 0.866485 0.898428 0.955074 1.01169 1.06829 1.12499 1.18188 1.23876 1.29562 1.35252 1.40952 1.46656 1.5236 1.58069 1.63787 1.69503 1.75217 1.79236 1.83261 1.87287 1.91311 1.95205 1.96934 1.98664 2.00393 2.02122 2.03855 2.09598 2.15334 2.2107 2.26807 2.32556 2.38303 2.4405 2.49785 2.55523 2.61265 2.67006 2.72746 2.78486 2.84223 2.89953 2.93722 2.97488 3.01253 3.05018 3.08677 3.10663 3.1265 3.14636 3.16622 3.18606 3.24339 3.30059 3.35778 3.41493 3.47206 3.52924 3.58641 3.64338 3.70018 3.75703 3.81394 3.87074 3.92745 3.98414 4.04073 4.06094 4.08107 4.1012 4.12132 4.14116 4.17759 4.21402 4.25044 4.28686 4.32322 4.3796 4.4358 4.49197 4.54802 4.60408 4.66003 4.71598 4.77175 4.82728 4.88286 4.93834 4.99363 5.04886 5.10409 5.15933 5.16413 5.16891 5.17369 5.17846 5.18323 5.23336 5.2835 5.33363 5.38373 5.43369 5.48826 5.54279 5.5971 5.65117 5.70529 5.75926 5.81314 5.86679 5.92042 5.97388 6.00039 6.02676 6.0531 6.07944 6.10544 6.13229 6.15914 6.18599 6.21281 6.2395 6.2923 6.34489 6.39744 6.44971 6.50192 6.55399 6.60606 6.65772 6.70923 6.76066 6.79528 6.82967 6.86399 6.89831 6.93224 6.94897 6.9657 6.98243 6.99913 7.01572 7.06631 7.11669 7.16707 7.21715 7.26708 7.31688 7.36668 7.41604 7.46514 7.51419 7.54812 7.58178 7.61535 7.64892 7.68237 7.69734 7.71232 7.72729 7.74222 7.75704 7.80513 7.85299 7.90086 7.94838 7.99571 8.04291 8.09011 8.13679 8.18326 8.22962 8.25831 8.28674 8.31507 8.3434 8.37189 8.38933 8.40678 8.42422 8.44161 8.45885 8.50419 8.54925 8.59432 8.63894 8.68341 8.72772 8.77201 8.81573 8.85935 8.90276 8.92532 8.94765 8.9699 8.99214 9.01467 9.03523 9.05579 9.07635 9.09683 9.11711 9.1594 9.20148 9.24349 9.28498 9.32637 9.36756 9.40866 9.44926 9.4898 9.53006 9.54877 9.56726 9.58568 9.6041 9.6229 9.64409 9.66529 9.68649 9.70762 9.7285 9.76755 9.8064 9.84516 9.8834 9.92153 9.95943 9.99724 10.0346 10.0718 10.1087 10.1287 10.1484 10.1681 10.1877 10.2081 10.2246 10.2411 10.2577 10.2741 10.2904 10.3261 10.3615 10.3968 10.4318 10.4666 10.5011 10.5355 10.5695 10.6032 10.6368 10.6661 10.695 10.7239 10.7528 10.7842 10.7875 10.7909 10.7943 10.7977 10.801 10.833 10.8649 10.8968 10.9286 10.9601 10.9912 11.0224 11.0526 11.0822 11.1118 11.1409 11.1703 11.2005 11.2307 11.2611 11.2864 11.3063 11.3263 11.3462 11.3701 11.3729 11.3757 11.3785 11.3812 11.3835 11.4087 11.4351 11.4614 11.4878 11.5246 11.5616 11.5955 11.6212 11.63 11.6387 11.6466 11.6567 11.6706 11.6845 11.7005 11.7059 11.711 11.716 11.7209 11.7262 11.7364 11.7467 11.7569 11.767 11.7765 11.7902 11.8032 11.8154 11.8257 11.8359 11.8451 11.8539 11.8615 11.8687 11.875 11.8783 11.8806 11.8827 11.8848 11.8872 11.8887 11.8902 11.8917 11.8931 11.8941 11.8948 11.8945 11.8941 11.8928 11.8904 11.8862 11.882 11.8756 11.8673 11.8589 11.8485 11.8369 11.8238 11.8106 11.7955 11.7849 11.7726 11.7602 11.7477 11.7333 11.7261 11.719 11.7118 11.7046 11.6965 11.6707 11.6435 11.6162 11.5882 11.5576 11.5239 11.4897 11.4527 11.4124 11.372 11.3281 11.2841 11.2365 11.1851 11.1336 11.0782 11.0199 10.9598 10.8996 10.836 10.7733 10.707 10.6406 10.5743 10.4878 10.4846 10.4814 10.4782 10.475 10.4717 10.3854 10.2988 10.2121 10.1253 10.0348 9.93646 9.83278 9.729 9.62319 9.51213 9.39507 9.27621 9.15404 9.02696 8.89883 8.76419 8.6295 8.48329 8.32621 8.16899 8.0043 7.83953 7.6736 7.50637 7.33903 7.16398 6.97902 6.77164 6.5503 6.31598 6.07149 5.8507 5.63889 5.4284 5.24402 5.03757 4.71375 4.39055 4.06796 3.68117 3.34278 3.12053 2.89986 2.68071 2.49291 2.41805 2.2755 2.13265 1.98951 1.88425 1.55153 1.22203 0.895693 0.572462 0