/*--------------------------------*- C++ -*----------------------------------*\
| =========                 |                                                 |
| \\      /  F ield         | OpenFOAM: The Open Source CFD Toolbox           |
|  \\    /   O peration     | Version:  4.1                                   |
|   \\  /    A nd           | Web:      www.OpenFOAM.org                      |
|    \\/     M anipulation  |                                                 |
\*---------------------------------------------------------------------------*/
FoamFile
{
    version     2.0;
    format      ascii;
    class       volScalarField;
    location    "27";
    object      p;
}
// * * * * * * * * * * * * * * * * * * * * * * * * * * * * * * * * * * * * * //

dimensions      [0 2 -2 0 0 0 0];

internalField   nonuniform List<scalar> 
26785
(
54.1364
48.919
45.3406
41.8831
39.4071
36.2697
34.9932
34.2191
34.7459
35.7065
37.6175
39.8585
42.5166
45.3712
48.2545
51.4063
54.5111
57.6982
60.6332
63.4717
65.9379
68.329
70.1849
71.8682
73.0579
74.0093
74.5237
74.7387
74.5302
74.0032
73.053
71.7952
70.1223
68.1978
66.0623
63.8421
61.5315
59.1762
56.7956
54.4194
52.0907
49.8134
47.6257
45.5385
43.5886
41.775
40.1854
38.9144
37.5725
36.5362
35.5492
34.8961
34.3643
34.1679
34.1297
34.3682
34.7522
35.368
36.1323
37.0696
38.1269
39.2912
40.5355
41.8117
43.1052
44.353
45.5625
46.6685
47.6817
48.5347
49.2498
49.7665
50.1077
50.2147
50.1121
49.7574
49.1747
48.3377
47.2737
45.9766
44.4758
42.7801
40.9188
38.9116
36.7838
34.5594
32.2578
29.9027
27.5071
25.0918
22.6627
20.2354
17.8097
15.3964
12.9896
10.5979
8.20238
5.84008
3.37994
1.33124
54.1204
48.9157
45.3323
41.8734
39.3963
36.2625
34.9827
34.2098
34.7348
35.6971
37.6071
39.8497
42.5079
45.3652
48.2507
51.4044
54.5111
57.6986
60.6349
63.474
65.9414
68.3333
70.1909
71.8753
73.0672
74.0195
74.5357
74.7512
74.5433
74.0153
73.064
71.804
70.1291
68.2024
66.0652
63.8434
61.5318
59.1755
56.7941
54.4171
52.0875
49.8093
47.6207
45.5327
43.5818
41.7672
40.1767
38.9041
37.5616
36.5241
35.5367
34.8827
34.3512
34.1546
34.1172
34.3559
34.7409
35.3574
36.1231
37.0616
38.121
39.2873
40.5341
41.8126
43.1088
44.3593
45.5717
46.6805
47.6965
48.5523
49.2701
49.7894
50.133
50.2417
50.1405
49.7862
49.2033
48.3653
47.2997
46.0004
44.4967
42.7979
40.9333
38.9226
36.7916
34.564
32.2595
29.9018
27.5042
25.087
22.6566
20.2283
17.8021
15.3885
12.9818
10.5905
8.19677
5.83483
3.3907
1.31402
54.1021
48.913
45.3184
41.8551
39.3784
36.2473
34.9636
34.1906
34.7145
35.679
37.5895
39.8339
42.4934
45.3547
48.2446
51.4023
54.5126
57.7018
60.6403
63.481
65.9503
68.3436
70.2034
71.89
73.0846
74.039
74.5575
74.7741
74.5664
74.0368
73.0825
71.8181
70.1386
68.2079
66.0675
63.8431
61.5296
59.1717
56.7891
54.4107
52.0795
49.7996
47.6095
45.5199
43.5674
41.751
40.1587
38.8838
37.5396
36.5001
35.5116
34.8567
34.3253
34.129
34.0925
34.3323
34.7189
35.3371
36.1055
37.0471
38.1104
39.281
40.5326
41.816
43.1176
44.3736
45.5919
46.7063
47.7279
48.5891
49.3123
49.8365
50.1845
50.2966
50.1976
49.8441
49.2606
48.4205
47.3515
46.0474
44.5382
42.833
40.9618
38.9443
36.8067
34.5728
32.2627
29.9
27.4982
25.0776
22.6446
20.2144
17.7871
15.373
12.9666
10.5762
8.18529
5.82594
3.39505
1.29816
54.0869
48.9099
45.2979
41.8289
39.3532
36.2228
34.9339
34.1603
34.6835
35.6498
37.5617
39.8083
42.4699
45.3366
48.233
51.3972
54.5128
57.7048
60.6466
63.4898
65.9621
68.3584
70.2217
71.9121
73.1107
74.0684
74.5901
74.8083
74.6008
74.0687
73.11
71.84
70.1545
68.2185
66.074
63.8463
61.5301
59.1699
56.7851
54.404
52.0701
49.7873
47.5946
45.5024
43.5471
41.7276
40.1323
38.8543
37.5069
36.4647
35.4739
34.8178
34.2861
34.0904
34.0549
34.2962
34.6847
35.3059
36.0778
37.0241
38.093
39.2703
40.5286
41.8194
43.1287
44.3931
45.6199
46.7429
47.7729
48.6422
49.3735
49.9051
50.2597
50.3769
50.2813
49.9291
49.3447
48.5014
47.4273
46.1162
44.5987
42.8841
41.0031
38.9756
36.8284
34.5854
32.267
29.897
27.4892
25.0636
22.627
20.1942
17.7653
15.3505
12.9446
10.5557
8.16861
5.81322
3.39494
1.28473
54.0724
48.9029
45.2703
41.796
39.3215
36.1903
34.8953
34.12
34.6434
35.6125
37.5274
39.7768
42.4418
45.3155
48.2206
51.3933
54.5154
57.7117
60.6575
63.5042
65.9799
68.3795
70.2466
71.9413
73.1444
74.1063
74.6313
74.8513
74.6433
74.1077
73.1427
71.865
70.1714
68.2289
66.0792
63.8475
61.5281
59.1651
56.7775
54.3932
52.0558
49.7695
47.5736
45.4781
43.5195
41.6964
40.0974
38.8157
37.4642
36.4189
35.4252
34.7679
34.2357
34.0409
34.0067
34.2502
34.6412
35.2664
36.0431
36.9958
38.0721
39.2581
40.5255
41.8261
43.1457
44.4211
45.6591
46.7933
47.8343
48.7144
49.456
49.9972
50.3602
50.4837
50.3922
50.0413
49.4555
48.6078
47.5266
46.2062
44.6776
42.9507
41.0568
39.0163
36.8565
34.6017
32.2728
29.8935
27.4778
25.046
22.6046
20.1685
17.7376
15.3221
12.9168
10.5298
8.14725
5.79657
3.39368
1.26944
54.0563
48.889
45.2365
41.758
39.2835
36.1484
34.8462
34.0691
34.5933
35.5646
37.4832
39.7359
42.4052
45.2873
48.203
51.3862
54.5165
57.7179
60.6687
63.52
66.0001
68.4045
70.2765
71.9772
73.186
74.1529
74.6821
74.9043
74.6955
74.1556
73.1833
71.8972
70.1947
68.245
66.0895
63.8531
61.5298
59.1629
56.7714
54.3825
52.0404
49.7494
47.5492
45.4495
43.4865
41.6585
40.0547
38.7683
37.4116
36.3623
35.3646
34.7057
34.1725
33.9786
33.9457
34.1917
34.5857
35.2158
35.9983
36.9586
38.0438
39.2405
40.5191
41.8317
43.164
44.4529
45.7047
46.8527
47.9071
48.8004
49.5548
50.1078
50.4812
50.6126
50.5263
50.177
49.5895
48.7364
47.6467
46.3149
44.7728
43.031
41.1214
39.0652
36.8902
34.6212
32.2794
29.889
27.4639
25.0247
22.5776
20.1376
17.7044
15.288
12.8836
10.4991
8.12166
5.77674
3.38966
1.25364
54.0375
48.8666
45.1958
41.714
39.2386
36.0986
34.7895
34.0101
34.5359
35.5106
37.4341
39.6905
42.3655
45.2573
48.1854
51.3807
54.5202
57.7283
60.6847
63.5416
66.0262
68.4356
70.3125
72.0195
73.2341
74.2067
74.7399
74.9642
74.7538
74.2085
73.2272
71.9307
70.2176
68.2593
66.0973
63.8555
61.5276
59.1563
56.7604
54.3665
52.0194
49.7232
47.5184
45.414
43.4462
41.6129
40.0037
38.7124
37.3498
36.2961
35.2942
34.6333
34.0992
33.9064
33.8752
34.1244
34.522
35.1578
35.9476
36.9171
38.0128
39.2219
40.5139
41.8409
43.1883
44.4931
45.761
46.9251
47.9953
48.904
49.6733
50.2397
50.6248
50.765
50.6845
50.3368
49.747
48.8874
47.7874
46.442
44.8839
43.1245
41.1965
39.122
36.9293
34.6439
32.2873
29.8841
27.4483
25.0005
22.547
20.1025
17.6667
15.2495
12.8461
10.4643
8.09249
5.75416
3.38197
1.23939
54.0251
48.8421
45.1536
41.6673
39.1885
36.0411
34.7248
33.9431
34.4703
35.4465
37.3749
39.6354
42.3166
45.2194
48.1615
51.371
54.5212
57.7367
60.7
63.5634
66.0536
68.4696
70.3526
72.0677
73.2893
74.2685
74.8064
75.0329
74.821
74.2696
73.2787
71.9717
70.2474
68.2802
66.1108
63.863
61.5296
59.1529
56.7515
54.3514
51.9979
49.6956
47.4852
45.3752
43.4014
41.5616
39.9458
38.6485
37.2789
36.2198
35.2126
34.5493
34.0138
33.8219
33.7925
34.045
34.4468
35.0888
35.8867
36.8667
37.9743
39.1974
40.5046
41.848
43.2126
44.5353
45.8216
47.0039
48.0921
49.0184
49.8046
50.3864
50.785
50.9354
50.8616
50.5161
49.9239
49.057
47.9454
46.5845
45.0083
43.2288
41.28
39.1846
36.9721
34.6682
32.2951
29.8776
27.43
24.9728
22.5123
20.063
17.6244
15.2065
12.8043
10.4258
8.05989
5.72895
3.37051
1.22802
54.0136
48.8131
45.1074
41.6145
39.1307
35.9761
34.6537
33.8689
34.398
35.3767
37.3109
39.5759
42.2648
45.1801
48.138
51.3632
54.5253
57.7499
60.7207
63.5912
66.0872
68.5094
70.3984
72.1214
73.3501
74.336
74.8784
75.107
74.8925
74.3342
73.332
72.0125
70.2754
68.298
66.1205
63.8659
61.5265
59.144
56.7368
54.3303
51.9705
49.6618
47.4457
45.3299
43.3499
41.5031
39.8804
38.5766
37.1997
36.1348
35.1222
34.4563
33.9194
33.7288
33.7015
33.9579
34.3648
35.0139
35.8209
36.8129
37.9341
39.1728
40.4969
41.8586
43.2427
44.5854
45.8919
47.0944
48.2027
49.1485
49.9534
50.5521
50.9652
51.1265
51.0598
50.7163
50.1211
49.2457
48.1209
46.7426
45.1458
43.3438
41.3716
39.2532
37.0186
34.6945
32.3034
29.8704
27.41
24.9427
22.4747
20.0203
17.5789
15.1601
12.7594
10.3844
8.02469
5.70178
3.35577
1.21896
54.0044
48.7842
45.0617
41.5583
39.0673
35.9038
34.5752
33.7873
34.3175
35.2965
37.2364
39.5064
42.2038
45.1331
48.1085
51.3512
54.5267
57.7609
60.7402
63.6187
66.1212
68.5513
70.4473
72.1802
73.4171
74.4105
74.958
75.1887
74.9718
74.4061
73.3924
72.0606
70.3105
68.3227
66.1364
63.8744
61.5282
59.139
56.725
54.3109
51.9437
49.6278
47.4049
45.2821
43.2947
41.4397
39.8087
38.4977
37.1121
36.0407
35.0217
34.3526
33.814
33.6245
33.5993
33.8598
34.2718
34.9286
35.7453
36.7503
37.8863
39.1417
40.4841
41.8659
43.2711
44.6357
45.9643
47.1888
48.3189
49.2862
50.1118
50.7291
51.1584
51.3319
51.2731
50.932
50.3338
49.4492
48.3101
46.9126
45.2934
43.4666
41.469
39.3253
37.0668
34.7208
32.3102
29.8606
27.3866
24.9087
22.4329
19.9732
17.529
15.1096
12.7106
10.3397
7.98651
5.67223
3.33843
1.21048
53.9882
48.7502
45.011
41.4952
38.9967
35.8255
34.4915
33.6993
34.2309
35.2116
37.1582
39.4339
42.1412
45.0859
48.0805
51.3422
54.532
57.7771
60.7653
63.6523
66.1612
68.5984
70.5013
72.2435
73.4884
74.4894
75.0413
75.2739
75.0537
74.4797
73.4529
72.1068
70.342
68.3426
66.1468
63.8769
61.5235
59.1274
56.7065
54.2851
51.9106
49.5875
47.3578
45.228
43.2329
41.3694
39.73
38.4114
37.0171
35.939
34.9137
34.2414
33.701
33.5129
33.4903
33.7555
34.1732
34.8386
35.6661
36.6851
37.8374
39.1111
40.4732
41.8768
43.3051
44.6934
46.0457
47.2938
48.4476
49.4381
50.2859
50.9231
51.3693
51.5555
51.5047
51.1658
50.5638
49.669
48.5139
47.0954
45.4515
43.5977
41.5722
39.4012
37.1168
34.7473
32.3161
29.849
27.3608
24.8719
22.388
19.9231
17.476
15.0563
12.6593
10.2928
7.9465
5.64127
3.31972
1.20195
53.9727
48.7179
44.9607
41.4299
38.9226
35.7415
34.4015
33.6048
34.1367
35.1164
37.0693
39.3511
42.0692
45.0308
48.046
51.3283
54.5337
57.7901
60.7881
63.6841
66.2001
68.6462
70.557
72.3106
73.5648
74.574
75.1311
75.3655
75.1422
74.5596
73.5197
72.1601
70.381
68.37
66.1643
63.8859
61.5246
59.1208
56.6921
54.2621
51.8795
49.5481
47.3106
45.1725
43.1683
41.295
39.646
38.3189
36.9149
35.8292
34.7967
34.1207
33.5781
33.3912
33.3711
33.6411
34.0644
34.7389
35.5777
36.6114
37.7804
39.0736
40.4565
41.8835
43.3363
44.7497
46.1272
47.4006
48.5795
49.5949
50.4665
51.1251
51.5898
51.7899
51.7481
51.4117
50.8058
49.9002
48.7281
47.287
45.6167
43.7337
41.6784
39.4781
37.1663
34.7718
32.3188
29.8334
27.3305
24.8303
22.3384
19.8682
17.4187
14.999
12.6045
10.2428
7.9039
5.6083
3.29907
1.19336
53.9564
48.6828
44.9054
41.3586
38.8425
35.6524
34.3068
33.5044
34.037
35.0173
36.9776
39.2663
41.9967
44.9766
48.014
51.318
54.5397
57.8087
60.8167
63.7219
66.2446
68.6985
70.6169
72.3812
73.6443
74.6616
75.223
75.4589
75.2315
74.6395
73.5851
72.2101
70.4152
68.3915
66.1753
63.8879
61.5186
59.107
56.6708
54.2328
51.8422
49.5029
47.2576
45.111
43.0977
41.2143
39.5557
38.2201
36.8063
35.713
34.6734
33.9937
33.4492
33.2639
33.2468
33.5219
33.9515
34.6357
35.4868
36.5363
37.7228
39.0367
40.4422
41.8942
43.3729
44.8128
46.217
47.5173
48.7232
49.7649
50.6614
51.3424
51.8263
52.0406
52.0079
51.6737
51.0632
50.1455
48.9548
47.4893
45.7902
43.8759
41.7885
39.5569
37.2158
34.795
32.3192
29.8149
27.2968
24.7851
22.2851
19.81
17.3582
14.9389
12.5473
10.191
7.85984
5.5744
3.27717
1.18536
53.946
48.6511
44.8516
41.2865
38.7602
35.5585
34.2065
33.3982
33.9303
34.908
36.8752
39.1713
41.9148
44.9142
47.9752
51.3024
54.5416
57.8232
60.8419
63.7568
66.2868
68.7502
70.6774
72.4545
73.7278
74.7536
75.32
75.5574
75.3262
74.7248
73.6564
72.2673
70.457
68.4209
66.1938
63.8971
61.5191
59.0992
56.6546
54.2074
51.808
49.4597
47.2056
45.0493
43.0254
41.1305
39.461
38.116
36.6916
35.5898
34.5423
33.8585
33.3116
33.1278
33.1134
33.3937
33.8293
34.5234
35.387
36.4529
37.6573
38.9925
40.4217
41.8998
43.4054
44.8731
46.3052
47.6342
48.8683
49.9377
50.8605
51.5651
52.0695
52.2993
52.2764
51.9449
51.3297
50.3994
49.1891
47.6975
45.9681
44.0204
41.8991
39.6342
37.2624
34.814
32.3145
29.7905
27.2571
24.734
22.2262
19.7464
17.2929
14.8746
12.4866
10.1364
7.81355
5.53898
3.25378
1.17794
53.9324
48.6155
44.7924
41.2085
38.6722
35.4599
34.102
33.2865
33.8185
34.7955
36.7707
39.075
41.8332
44.8538
47.9397
51.291
54.5482
57.8437
60.8731
63.7975
66.3342
68.8058
70.7412
72.5303
73.8134
74.8474
75.4177
75.6559
75.42
74.8086
73.7249
72.3196
70.4926
68.4429
66.2044
63.8981
61.5115
59.0835
56.6309
54.1754
51.7677
49.4107
47.1478
44.9818
42.9472
41.0409
39.3606
38.0064
36.5714
35.4613
34.4062
33.7184
33.1694
32.9874
32.9762
33.2619
33.704
34.4087
35.2853
36.3685
37.5922
38.9494
40.404
41.9092
43.4431
44.9398
46.4017
47.7609
49.025
50.1232
51.0733
51.8025
52.3279
52.5734
52.5603
52.2308
51.6101
50.6657
49.4339
47.9143
46.152
44.1688
42.0112
39.7113
37.307
34.8298
32.3058
29.7618
27.2128
24.6784
22.163
19.6791
17.2245
14.8077
12.4239
10.0805
7.76644
5.50342
3.22985
1.17239
53.9198
48.5829
44.7352
41.1312
38.5834
35.3577
33.9928
33.17
33.7002
34.673
36.6554
38.9685
41.7422
44.785
47.897
51.2738
54.55
57.8591
60.8997
63.8339
66.3779
68.8595
70.8044
72.6076
73.9016
74.9444
75.5192
75.7581
75.5181
74.8969
73.7987
72.3792
70.5363
68.4735
66.2235
63.9074
61.5117
59.075
56.6138
54.1487
51.7316
49.3648
47.092
44.9149
42.8682
40.9491
39.2569
37.8926
36.4461
35.327
34.2635
33.5713
33.0198
32.8395
32.8311
33.1218
33.5701
34.2852
35.175
36.2755
37.519
38.8991
40.3794
41.9126
43.4755
45.0024
46.4954
47.8866
49.1815
50.3098
51.2882
52.0433
52.5908
52.8531
52.8506
52.5234
51.8967
50.9374
49.683
48.1335
46.3367
44.3159
42.1203
39.7836
37.3455
34.8385
32.2893
29.725
27.1606
24.6153
22.0931
19.6057
17.1508
14.7365
12.3579
10.0222
7.71781
5.46737
3.20478
1.16994
53.9021
48.5464
44.673
41.0485
38.4893
35.2514
33.8802
33.0487
33.5775
34.5479
36.5387
38.8615
41.6524
44.7189
47.8584
51.2612
54.5569
57.8806
60.9321
63.8758
66.4262
68.9163
70.8701
72.6864
73.9908
75.0417
75.6196
75.8587
75.6136
74.9822
73.8685
72.4327
70.5727
68.4958
66.234
63.908
61.5035
59.0585
56.5893
54.1155
51.6896
49.3134
47.0307
44.8427
42.7839
40.852
39.1482
37.774
36.3162
35.1883
34.1169
33.4205
32.8669
32.6885
32.683
32.979
33.434
34.1601
35.0637
36.1823
37.4465
38.8511
40.3581
41.9201
43.5132
45.0713
46.5974
48.0219
49.3492
50.5088
51.5165
52.2979
52.868
53.1472
53.1549
52.829
52.195
51.219
49.9397
48.358
46.524
44.4632
42.2273
39.8521
37.3788
34.841
32.2662
29.6816
27.1022
24.5465
22.0182
19.5282
17.0739
14.6631
12.2905
9.96354
7.66939
5.43238
3.17935
1.17186
53.8927
48.5157
44.615
40.9677
38.3955
35.1424
33.7637
32.9233
33.4488
34.4129
36.4111
38.7442
41.553
44.6444
47.8123
51.2423
54.5583
57.8962
60.959
63.9123
66.4696
68.9698
70.9341
72.7658
74.0817
75.1411
75.7227
75.9618
75.7124
75.0712
73.9431
72.4933
70.6172
68.5271
66.2537
63.9178
61.5042
59.0506
56.5725
54.0888
51.6529
49.266
46.9722
44.7717
42.6994
40.7534
39.0369
37.6519
36.182
35.0449
33.9649
33.2641
32.708
32.5312
32.5282
32.8291
33.2904
34.027
34.9444
36.0814
37.3658
38.7959
40.3295
41.9213
43.5448
45.1353
46.6955
48.1546
49.5155
50.7074
51.7447
52.5527
53.1464
53.4434
53.462
53.1373
52.4952
51.5011
50.1953
48.5792
46.7061
44.6034
42.3256
39.9103
37.4008
34.8318
32.2313
29.6269
27.0331
24.4681
21.9348
19.4436
16.991
14.585
12.2198
9.90276
7.61996
5.39745
3.15304
1.17698
53.8819
48.4807
44.5519
40.8816
38.2965
35.0296
33.6441
32.7933
33.3159
34.2759
36.2828
38.6269
41.4555
44.5733
47.7708
51.2286
54.5651
57.9182
60.9919
63.954
66.5172
69.0259
70.9998
72.8459
74.1726
75.2399
75.8236
76.0621
75.8073
75.156
74.0123
72.5463
70.6529
68.5487
66.2636
63.9179
61.4957
59.0341
56.548
54.0553
51.61
49.2128
46.9081
44.6952
42.6095
40.6499
38.9214
37.5258
36.0441
34.8982
33.8103
33.1054
32.5473
32.3724
32.3719
32.678
33.146
33.8936
34.8256
35.9818
37.2868
38.7434
40.3048
41.9271
43.582
45.2068
46.8013
48.2958
49.6925
50.9175
51.9846
52.8195
53.4368
53.7516
53.7802
53.455
52.8025
51.7877
50.4525
48.7994
46.8843
44.7372
42.4154
39.9587
37.4121
34.8114
32.1856
29.562
26.955
24.3819
21.8448
19.3535
16.9039
14.5036
12.147
9.84093
7.57034
5.36297
3.1269
1.18291
53.8777
48.4515
44.4939
40.7989
38.1992
34.9154
33.5217
32.6603
33.1776
34.1289
36.1433
38.4993
41.3483
44.4935
47.7215
51.208
54.5657
57.9333
61.018
63.989
66.5584
69.0776
71.0624
72.9252
74.2641
75.3394
75.9257
76.1634
75.9044
75.2437
74.0859
72.6064
70.6972
68.5799
66.2834
63.9282
61.4974
59.0273
56.5324
54.0293
51.5732
49.1645
46.8474
44.6207
42.5205
40.5461
38.8044
37.3973
35.9031
34.7481
33.652
32.9429
32.3826
32.2092
32.2108
32.5215
32.9955
33.7541
34.7005
35.8756
37.2011
38.6835
40.2731
41.9258
43.6123
45.2742
46.9021
48.4326
49.8649
51.1231
52.2205
53.0827
53.7238
54.0561
54.0943
53.7677
53.1037
52.0665
50.7
49.0075
47.0482
44.8548
42.4876
39.9884
37.4045
34.7727
32.1226
29.4811
26.8623
24.2826
21.7434
19.2532
16.808
14.4148
12.068
9.77427
7.51719
5.32593
3.09954
1.18608
53.866
48.4163
44.4306
40.7107
38.0967
34.7978
33.3968
32.523
33.0354
33.9804
36.0035
38.3722
41.2437
44.4176
47.6773
51.193
54.572
57.9548
61.0498
64.0291
66.6036
69.1311
71.1263
73.0043
74.3543
75.4368
76.0239
76.2602
75.9961
75.3259
74.1528
72.6578
70.7316
68.6006
66.293
63.9286
61.4898
59.012
56.5091
53.9966
51.5304
49.1106
46.7812
44.5409
42.4266
40.4383
38.6841
37.2658
35.7599
34.5964
33.493
32.7802
32.2181
32.0465
32.0504
32.3659
32.8461
33.6163
34.578
35.7723
37.1195
38.6275
40.2455
41.9286
43.6484
45.3486
47.0111
48.5782
50.0457
51.3374
52.4654
53.3543
54.0178
54.3661
54.4123
54.0823
53.4042
52.3416
50.9404
49.205
47.1983
44.956
42.5417
39.9994
37.3785
34.7166
32.0436
29.3859
26.7569
24.172
21.6318
19.1438
16.7039
14.3188
11.9828
9.7024
7.4598
5.28536
3.07047
1.18462
53.8615
48.3889
44.3741
40.6272
37.997
34.6799
33.27
32.3836
32.8884
33.822
35.8525
38.2346
41.1293
44.333
47.6252
51.1708
54.5716
57.9687
61.074
64.0615
66.6414
69.1791
71.1863
73.082
74.4443
75.534
76.1221
76.3567
76.0886
75.4097
74.2233
72.716
70.7746
68.6313
66.3134
63.9404
61.4937
59.0078
56.4959
53.9722
51.4946
49.0621
46.7189
44.4639
42.3343
40.3311
38.5634
37.1332
35.6151
34.4432
33.3323
32.6158
32.0519
31.8819
31.8877
32.2074
32.6928
33.4745
34.4513
35.6639
37.0323
38.5649
40.2116
41.924
43.6791
45.4148
47.1134
48.7178
50.2186
51.5437
52.7009
53.6149
54.2995
54.6628
54.7164
54.3821
53.6884
52.5982
51.1596
49.3785
47.3221
45.0291
42.5669
39.9818
37.3251
34.6352
31.9414
29.2694
26.632
24.0437
21.5038
19.0193
16.5859
14.2102
11.8865
9.62075
7.39415
5.23792
3.03721
1.1777
53.8556
48.3565
44.3124
40.5382
37.8922
34.5587
33.1409
32.24
32.7376
33.6623
35.7016
38.0979
41.0178
44.2529
47.5788
51.1547
54.5774
57.9895
61.1039
64.0986
66.683
69.2284
71.2471
73.159
74.5329
75.6286
76.2155
76.4476
76.1743
75.4864
74.2854
72.7635
70.8057
68.6501
66.3222
63.9414
61.4878
58.9945
56.4746
53.941
51.4526
49.0078
46.6512
44.3818
42.2377
40.2206
38.4406
36.999
35.4695
34.29
33.1726
32.453
31.8877
31.7196
31.7275
32.0515
32.5426
33.3366
34.3287
35.5596
36.9498
38.5067
40.1817
41.9241
43.7175
45.4851
47.2216
48.8636
50.398
51.7557
52.94
53.8773
54.5809
54.9572
55.0161
54.6749
53.9625
52.8411
51.3612
49.5308
47.4213
45.0754
42.5644
39.9371
37.2465
34.5307
31.8185
29.1343
26.4902
23.8998
21.3616
18.8817
16.4558
14.0907
11.7803
9.5305
7.32113
5.18433
3.00012
1.16665
53.8604
48.3331
44.2584
40.4552
37.7915
34.4386
33.0112
32.0954
32.5826
33.4928
35.5392
37.9506
40.8963
44.1638
47.5242
51.1313
54.5762
58.0022
61.1254
64.1262
66.7159
69.271
71.302
73.2333
74.62
75.7217
76.3079
76.5373
76.2601
75.564
74.3505
72.8176
70.8455
68.6792
66.3425
63.9547
61.4942
58.9932
56.4642
53.9189
51.4182
48.9595
46.5881
44.3032
42.1437
40.1118
38.3187
36.8652
35.324
34.1367
33.013
32.29
31.7235
31.557
31.5666
31.8942
32.3905
33.1963
34.2026
35.4509
36.8622
38.4433
40.1432
41.9172
43.749
45.5467
47.3212
48.999
50.5667
51.9537
53.1629
54.1212
54.8413
55.2287
55.2919
54.9427
54.2102
53.0558
51.5323
49.6496
47.4842
45.0835
42.5235
39.8557
37.1336
34.3948
31.6669
28.9727
26.324
23.7337
21.199
18.7254
16.309
13.9564
11.6614
9.42924
7.23892
5.12337
2.95845
1.15252
53.8604
48.3032
44.199
40.3667
37.6858
34.3155
32.8796
31.947
32.4241
33.3224
35.3771
37.8045
40.7781
44.0796
47.476
51.1146
54.5814
58.0221
61.1535
64.1585
66.7515
69.3147
71.3562
73.3055
74.704
75.8107
76.3943
76.6205
76.3382
75.6338
74.4068
72.8601
70.873
68.696
66.3509
63.957
61.4904
58.9827
56.4456
53.89
51.3775
48.9053
46.5198
44.22
42.0458
40.0004
38.1958
36.7306
35.1785
33.9842
32.8548
32.1288
31.5616
31.3968
31.408
31.7401
32.2415
33.0591
34.0799
35.3462
36.7782
38.3842
40.1068
41.9136
43.7834
45.6126
47.4253
49.1374
50.7392
52.1524
53.3854
54.3619
55.0956
55.4914
55.5562
55.1969
54.4421
53.252
51.6807
49.7412
47.5155
45.0574
42.4482
39.7415
36.9905
34.2313
31.49
28.7882
26.1373
23.5491
21.0199
18.5546
16.1497
13.8114
11.5333
9.32027
7.1503
5.05737
2.91391
1.13692
53.8664
48.2821
44.1486
40.2853
37.5852
34.1947
32.7486
31.7986
32.2621
33.1423
35.2036
37.6477
40.6496
43.9864
47.4195
51.0903
54.5792
58.0329
61.1728
64.1819
66.7768
69.3512
71.4041
73.3735
74.7847
75.8965
76.478
76.7008
76.4153
75.7038
74.4661
72.9097
70.9103
68.7243
66.3718
63.9722
61.4995
58.9845
56.4382
53.8703
51.3442
48.8572
46.4563
44.1405
41.9507
39.8909
38.0742
36.5972
35.0335
33.8321
32.6966
31.9674
31.3994
31.2358
31.2481
31.5839
32.0898
32.9185
33.9531
35.2361
36.6874
38.317
40.062
41.9006
43.8042
45.6682
47.518
49.264
50.8974
52.3336
53.5872
54.5787
55.3234
55.7262
55.7918
55.4225
54.6454
53.4187
51.7963
49.7944
47.5036
44.9861
42.3282
39.5846
36.8076
34.0311
31.2796
28.5732
25.923
23.3399
20.8192
18.365
15.9742
13.6527
11.3936
9.20157
7.05368
4.98524
2.86572
1.12021
53.8678
48.2551
44.0927
40.1985
37.4796
34.071
32.6159
31.6465
32.0967
32.9615
35.0307
37.4925
40.5249
43.8985
47.3701
51.0734
54.584
58.0506
61.1975
64.2107
66.805
69.3881
71.4524
73.4392
74.8615
75.9771
76.554
76.7726
76.4827
75.7645
74.5156
72.9469
70.9353
68.74
66.3807
63.9757
61.4976
58.9759
56.4215
53.8425
51.3037
48.8027
46.387
44.0559
41.8513
39.7786
37.9514
36.4623
34.8881
33.6798
32.5384
31.8061
31.2375
31.0751
31.0883
31.4269
31.9384
32.7789
33.8267
35.1265
36.5968
38.2488
40.018
41.8884
43.8201
45.724
47.6109
49.3931
51.0566
52.515
53.785
54.7893
55.5437
55.9523
56.0175
55.6371
54.8363
53.5699
51.8889
49.8161
47.4541
44.8751
42.1693
39.3914
36.5914
33.8009
31.0422
28.3343
25.6879
23.1127
20.6029
18.1622
15.7877
13.4848
11.2461
9.07613
6.95136
4.90884
2.81475
1.10355
53.8822
48.2397
44.0469
40.1201
37.3808
33.9515
32.4855
31.4959
31.9287
32.7714
34.8463
37.3263
40.3902
43.8013
47.3123
51.0492
54.5816
58.0593
61.2115
64.2291
66.8226
69.4154
71.4941
73.5004
74.9347
76.0536
76.6255
76.8394
76.5468
75.8239
74.5672
72.9917
70.9711
68.7684
66.4033
63.9929
61.5088
58.9798
56.4158
53.8235
51.2705
48.7541
46.3225
43.9748
41.7546
39.6681
37.8309
36.3269
34.7425
33.527
32.3787
31.643
31.0742
30.9121
30.9247
31.2645
31.7821
32.634
33.6931
35.0084
36.4959
38.1674
39.9614
41.8618
43.819
45.7652
47.6877
49.5072
51.1974
52.678
53.9596
54.9742
55.7365
56.1519
56.2188
55.8285
55.0045
53.6939
51.9448
49.7916
47.3531
44.7119
41.9603
39.1516
36.3327
33.5324
30.7707
28.0651
25.426
22.862
20.366
17.9416
15.5861
13.3038
11.0873
8.94114
6.84113
4.82652
2.75939
1.08743
53.8935
48.2176
43.9953
40.0363
37.2771
33.8294
32.3538
31.3419
31.7575
32.5807
34.6626
37.1617
40.2595
43.7103
47.2617
51.0326
54.5866
58.0755
61.2314
64.2511
66.843
69.4417
71.5349
73.559
75.0041
76.1248
76.6891
76.8968
76.5993
75.8723
74.6077
73.0238
70.9942
68.7844
66.4137
63.9982
61.5087
58.973
56.4002
53.7959
51.2296
48.6986
46.2516
43.8881
41.6531
39.5545
37.7078
36.1879
34.5942
33.3718
32.2165
31.4776
30.9093
30.7465
30.7569
31.0982
31.6228
32.4862
33.5561
34.8864
36.3904
38.0792
39.898
41.8265
43.8132
45.8013
47.7602
49.6184
51.3355
52.8388
54.1312
55.1546
55.9243
56.3477
56.4176
56.0167
55.1653
53.8001
51.9681
49.7247
47.2068
44.5046
41.7104
38.8747
36.0411
33.2351
30.4742
27.7745
25.1459
22.5955
20.1154
17.7093
15.3742
13.1139
10.9205
8.79928
6.72518
4.74013
2.70028
1.07298
53.9153
48.2071
43.955
39.962
37.1815
33.7128
32.2257
31.1907
31.5845
32.381
34.4675
36.9863
40.1186
43.6109
47.203
51.0081
54.5842
58.0827
61.2412
64.2613
66.8516
69.4578
71.567
73.6122
75.0693
76.1917
76.7486
76.9494
76.648
75.9186
74.6494
73.0636
71.0279
68.8132
66.4377
64.0171
61.522
58.9787
56.3954
53.7771
51.1959
48.649
46.1851
43.8045
41.5537
39.4425
37.5855
36.0462
34.4439
33.2147
32.0516
31.3097
30.7426
30.5769
30.5833
30.9266
31.4573
32.3308
33.4101
34.7521
36.2698
37.9722
39.8128
41.7682
43.7872
45.8177
47.8148
49.7117
51.4562
52.9782
54.2812
55.3128
56.0898
56.5225
56.5986
56.1884
55.3039
53.8679
51.9367
49.5966
47.0011
44.2421
41.4097
38.5518
35.7083
32.9013
30.1457
27.4557
24.8409
22.3067
19.845
17.4594
15.1469
12.9103
10.7421
8.64771
6.60164
4.64826
2.63648
1.05948
53.9282
48.1887
43.9086
39.8822
37.0809
33.594
32.0967
31.0365
31.4085
32.1808
34.2733
36.8121
39.9817
43.5177
47.1526
50.9913
54.5891
58.0978
61.2571
64.2755
66.8623
69.473
71.5964
73.6619
75.1295
76.2525
76.8003
76.9932
76.6853
75.9538
74.6792
73.0897
71.0472
68.8278
66.4477
64.0227
61.5228
58.9724
56.3798
53.7491
51.154
48.5915
46.1113
43.7142
41.4487
39.3262
37.4586
35.8989
34.2893
33.0538
31.8829
31.1388
30.5733
30.4027
30.4045
30.7502
31.2864
32.17
33.2578
34.6095
36.1377
37.8507
39.7103
41.6933
43.7464
45.8228
47.8636
49.8005
51.5786
53.1167
54.4306
55.4709
56.2578
56.7009
56.7804
56.3576
55.4272
53.8969
51.8503
49.4119
46.7452
43.9368
41.0722
38.1969
35.3478
32.5434
29.7963
27.119
24.52
22.0035
19.5615
17.1976
14.9087
12.6971
10.5555
8.48949
6.47317
4.55283
2.57004
1.04549
53.954
48.1846
43.8748
39.8134
36.9901
33.4828
31.9734
30.8868
31.2317
31.9719
34.0676
36.6269
39.8351
43.4151
47.0948
50.9672
54.586
58.1033
61.2628
64.2776
66.8609
69.4776
71.6152
73.7047
75.184
76.3069
76.8465
77.0317
76.7195
75.9879
74.7108
73.1232
71.0767
68.8544
66.4704
64.0419
61.5372
58.9789
56.3756
53.7302
51.1193
48.5398
46.0418
43.6269
41.3459
39.2115
37.3325
35.7482
34.1324
32.8914
31.7119
30.9665
30.4026
30.2262
30.2227
30.5694
31.1098
32.0019
33.0937
34.4528
35.9836
37.7027
39.5778
41.5891
43.6754
45.8014
47.8912
49.8692
51.6865
53.2415
54.5631
55.6094
56.4072
56.8615
56.9421
56.5033
55.5087
53.8572
51.6833
49.1504
46.4226
43.5753
40.6871
37.8005
34.9511
32.1535
29.4183
26.7564
24.1755
21.6783
19.2579
16.9177
14.6546
12.4701
10.3575
8.32207
6.3381
4.45232
2.50158
1.0275
53.9767
48.1734
43.8345
39.739
36.8947
33.3699
31.8499
30.7348
31.0524
31.7625
33.8627
36.4434
39.6925
43.3186
47.0451
50.9518
54.5905
58.1162
61.275
64.2833
66.8614
69.4813
71.6311
73.7429
75.2328
76.354
76.8831
77.0605
76.7431
76.012
74.7314
73.142
71.091
68.8653
66.4782
64.0472
61.5385
58.9733
56.3604
53.7017
51.0758
48.4798
45.9647
43.5328
41.2377
39.0924
37.2009
35.5916
33.9706
32.7252
31.5376
30.7911
30.2266
30.0467
30.0385
30.3847
30.9276
31.827
32.9207
34.2839
35.8104
37.5331
39.422
41.4637
43.5861
45.7627
47.9086
49.9291
51.794
53.3738
54.702
55.7533
56.5597
57.0229
57.0968
56.6322
55.5452
53.7478
51.4425
48.8219
46.0434
43.169
40.2672
37.3759
34.531
31.7435
29.0223
26.3774
23.8155
21.3386
18.9408
16.6257
14.3895
12.2337
10.1518
8.14848
6.19875
4.34817
2.4342
1.00255
54.0143
48.1773
43.8083
39.6766
36.8104
33.2662
31.7336
30.5887
30.873
31.5447
33.6459
36.2494
39.5399
43.2137
46.9875
50.9297
54.5877
58.1192
61.2767
64.2771
66.8482
69.4741
71.637
73.7726
75.2751
76.3941
76.9126
77.0826
76.7639
76.0354
74.7547
73.1672
71.1148
68.8872
66.4988
64.0665
61.5539
58.9813
56.3572
53.6826
51.0397
48.4256
45.892
43.442
41.132
38.9751
37.0704
35.4313
33.8066
32.5576
31.3645
30.6162
30.0473
29.8672
29.8558
30.1998
30.7425
31.6437
32.7381
34.0959
35.6104
37.3335
39.2341
41.3035
43.4692
45.6944
47.9007
49.9679
51.8808
53.4955
54.83
55.8836
56.6912
57.1543
57.2202
56.7172
55.5065
53.5478
51.1153
48.4149
45.5934
42.7028
39.7973
36.9091
34.0745
31.301
28.5968
25.9713
23.4305
20.976
18.6032
16.3155
14.1086
11.9839
9.9351
7.96589
6.0529
4.23867
2.36875
0.967798
54.0446
48.1731
43.7753
39.6088
36.7216
33.161
31.6174
30.4407
30.6914
31.3261
33.4293
36.0571
39.3911
43.1157
46.9382
50.916
54.5936
58.1302
61.2843
64.2756
66.8355
69.4653
71.6407
73.797
75.3116
76.4272
76.9322
77.0943
76.7739
76.0481
74.7664
73.1761
71.1208
68.8917
66.5032
64.0705
61.5551
58.976
56.3419
53.6531
50.994
48.3627
45.8115
43.3447
41.0211
38.8534
36.9338
35.2656
33.6374
32.3858
31.1902
30.4381
29.863
29.6843
29.6716
30.0131
30.5534
31.451
32.546
33.8895
35.3895
37.1125
39.0264
41.1172
43.3321
45.6076
47.8788
50.0027
51.9592
53.618
54.9653
56.0202
56.82
57.2655
57.3151
56.749
55.3885
53.2723
50.7265
47.9547
45.0945
42.1944
39.2921
36.4135
33.5933
30.8364
28.1512
25.5467
23.0285
20.5978
18.2518
15.9934
13.8173
11.7251
9.7108
7.77684
5.90223
4.12505
2.30725
0.922839
54.0851
48.1843
43.7574
39.5546
36.6461
33.0677
31.5111
30.3011
30.5111
31.1001
33.2005
35.8535
39.2323
43.0096
46.8817
50.8949
54.5925
58.1322
61.281
64.2619
66.8095
69.4435
71.6335
73.8125
75.3413
76.4532
76.9445
77.0991
76.7805
76.0592
74.7799
73.1911
71.1356
68.9078
66.5213
64.0895
61.5714
58.985
56.3391
53.6333
50.9561
48.3062
45.7361
43.2516
40.9136
38.7342
36.7981
35.0983
33.467
32.2143
31.0175
30.2604
29.6806
29.5028
29.4904
29.8293
30.3647
31.2531
32.3403
33.6631
35.1454
36.866
38.792
40.8995
43.1628
45.4907
47.824
50.0158
52.0146
53.7167
55.0796
56.1335
56.9183
57.3261
57.3474
56.6719
55.1464
52.8992
50.2655
47.4337
44.541
41.6331
38.7388
35.8758
33.0738
30.337
27.6734
25.0925
22.5999
20.1962
17.8802
15.6538
13.5109
11.4535
9.47538
7.57849
5.7444
4.00614
2.24858
0.869018
54.1207
48.1884
43.7329
39.4952
36.5667
32.9735
31.4056
30.1604
30.3289
30.8731
32.9711
35.6505
39.0767
42.9104
46.8337
50.8819
54.5992
58.1426
61.2839
64.2514
66.785
69.4195
71.6233
73.8232
75.3649
76.4724
76.9478
77.0946
76.7767
76.0588
74.7791
73.1882
71.1311
68.9057
66.5226
64.0926
61.5732
58.9805
56.3243
53.6032
50.9092
48.2412
45.6534
43.1526
40.8015
38.6106
36.6566
34.9266
33.2918
32.0389
30.8419
30.0802
29.4958
29.318
29.3066
29.6439
30.172
31.051
32.1204
33.4214
34.8868
36.6041
38.5388
40.6667
42.9754
45.3561
47.7476
50.0105
52.0654
53.8081
55.1848
56.2344
56.9997
57.3496
57.3194
56.4809
54.7744
52.4286
49.7439
46.8712
43.9548
41.0392
38.1558
35.3113
32.5295
29.8148
27.1747
24.6192
22.1542
19.7799
17.4959