/*--------------------------------*- C++ -*----------------------------------*\
| =========                 |                                                 |
| \\      /  F ield         | OpenFOAM: The Open Source CFD Toolbox           |
|  \\    /   O peration     | Version:  4.1                                   |
|   \\  /    A nd           | Web:      www.OpenFOAM.org                      |
|    \\/     M anipulation  |                                                 |
\*---------------------------------------------------------------------------*/
FoamFile
{
    version     2.0;
    format      ascii;
    class       surfaceScalarField;
    location    "27";
    object      phi;
}
// * * * * * * * * * * * * * * * * * * * * * * * * * * * * * * * * * * * * * //

dimensions      [0 3 -1 0 0 0 0];

internalField   nonuniform List<scalar> 
52920
(
2425.48
-144.423
2543.53
-148.131
2678.11
-137.539
2787.65
-132.158
2937.98
-118.032
3015.2
-117.363
3125.69
-103.395
3204.25
-96.021
3310.27
-80.1441
3362.36
-72.9499
3445.2
-54.3157
3486.79
-39.7038
3543.17
-25.7833
3569.27
-21.5217
3592.06
-15.0084
3618.8
-11.0003
3634.48
-8.23962
3661.71
-5.2613
3678.62
-5.47566
3700.86
-5.82926
3712.44
-8.72641
3740.67
-11.6589
3756.16
-18.3918
3795.99
-25.3245
3824.6
-37.1461
3889.83
-49.3219
3949.05
-67.3478
4049.87
-84.6575
4148.67
-103.821
4284.12
-118.551
4416.49
-132.316
4579.83
-141.458
4731.89
-148.797
4895.05
-152.689
5047.61
-154.67
5213.15
-154.14
5369.25
-153.622
5527.29
-152.192
5678
-150.597
5829.41
-148.181
5975.05
-145.953
6118.64
-143.358
6256.83
-140.499
6392.41
-137.104
6524.6
-133.273
6652.06
-128.761
6766.29
-124.246
6886.7
-119.082
6986.51
-114.106
7097.38
-108.266
7183.4
-102.835
7281.79
-96.426
7352.58
-90.8069
7437.77
-84.1908
7498.78
-78.4116
7574.34
-71.7551
7624.68
-66.103
7689.33
-59.79
7732.31
-54.5734
7788.55
-49.0371
7823.5
-44.8112
7871.13
-40.7435
7902.73
-38.2081
7946.33
-36.1484
7976.34
-35.7361
8018.37
-36.0958
8052.25
-38.1048
8098.32
-40.9675
8139.34
-45.3542
8193.03
-50.6325
8246.69
-57.3418
8313.55
-64.8142
8383.58
-73.5479
8467.43
-82.8552
8557.23
-93.0927
8661.26
-103.643
8772.5
-114.63
8897.77
-125.458
9030.57
-136.057
9176.09
-145.925
9327.85
-154.987
9490.19
-162.945
9657.07
-169.837
9832.03
-175.548
10009.6
-180.23
10192.9
-183.888
10377.3
-186.718
10565.6
-188.772
10753.9
-190.239
10944.7
-191.177
11134.8
-191.743
11326.6
-191.989
11517.3
-192.043
11709.2
-191.945
11900
-191.817
12091.8
-191.67
12282.8
-191.768
12474.9
-191.868
12667.3
-192.839
-193.762
2432.98
-294.003
2550.64
-293.704
2690.78
-274.912
2800.29
-260.287
2961.08
-239.345
3032.86
-231.357
3147.47
-210.675
3225.38
-191.741
3338.91
-166.627
3388.72
-146.056
3478.07
-115.721
3518.66
-87.5561
3578.83
-63.699
3603.28
-50.8481
3625.26
-38.4089
3652.27
-29.1943
3667
-22.9967
3695.19
-17.9807
3711.47
-17.5318
3733.14
-19.0262
3742.4
-23.6598
3769.29
-29.83
3781.14
-41.4731
3819.06
-55.9519
3843.47
-77.3668
3907.42
-103.215
3963.6
-136.918
4064.36
-172.511
4161.81
-208.677
4298
-239.267
4430.09
-264.455
4594.82
-281.817
4747.09
-293.73
4911.02
-300.219
5063.65
-302.514
5230.05
-301.485
5386.51
-299.76
5545.13
-297.108
5696.14
-293.869
5848.02
-289.767
5993.99
-285.432
6138
-280.437
6276.55
-274.78
6412.6
-268.233
6545.31
-260.83
6673.4
-252.404
6788.12
-243.457
6909.24
-233.676
7009.46
-223.754
7121.18
-212.837
7207.58
-201.784
7306.89
-189.896
7378.06
-178.314
7464.26
-166.078
7525.82
-154.246
7602.57
-141.961
7653.54
-130.318
7719.44
-118.688
7763.19
-108.042
7820.76
-97.9347
7856.49
-89.3217
7905.41
-82.0644
7937.88
-76.887
7982.77
-73.547
8013.68
-72.6322
8056.98
-74.0043
8091.9
-78.0037
8139.32
-84.2794
8181.53
-93.0766
8236.7
-104.06
8291.82
-117.403
8360.39
-132.646
8432.2
-149.942
8518.07
-168.762
8610.01
-189.149
8716.4
-210.448
8830.15
-232.422
8958.12
-254.273
9093.74
-275.528
9242.23
-295.43
9397.03
-313.611
9562.48
-329.645
9732.5
-343.433
9910.6
-354.91
10091.3
-364.217
10277.6
-371.521
10465
-377.068
10656.2
-381.099
10847.3
-383.867
11040.7
-385.601
11233.3
-386.522
11427.4
-386.817
11620.2
-386.674
11814
-386.238
12006.5
-385.701
12199.7
-385.13
12392
-385.004
12584.9
-384.821
12778.4
-386.823
-386.988
2427.82
-448.393
2547.78
-447.006
2688.46
-421.163
2799.6
-397.603
2959.83
-367.82
3033.91
-348.131
3148.85
-318.598
3227.89
-289.185
3341.36
-252.469
3392.28
-218.507
3481.73
-173.356
3522.85
-123.345
3583.07
-87.4831
3607.94
-66.9637
3630.2
-48.6124
3657.43
-36.397
3672.48
-26.8519
3700.83
-19.9845
3717.41
-18.7489
3739.31
-20.3216
3749.05
-26.7778
3776.21
-36.5345
3788.7
-53.5864
3826.89
-76.2583
3852.01
-108.194
3915.79
-148.307
3972.04
-199.044
4071.68
-254.317
4168.24
-308.951
4302.52
-355.953
4433.03
-394.623
4595.46
-423.42
4746.02
-442.594
4908.2
-454.19
5059.58
-458.436
5224.52
-458.062
5379.92
-455.715
5537.57
-451.954
5687.89
-446.923
5839.11
-440.527
5984.63
-433.875
6128.3
-426.485
6266.68
-418.008
6402.68
-408.239
6535.47
-397.108
6663.72
-384.509
6778.9
-370.652
6900.42
-356.113
7001.51
-340.852
7113.93
-324.664
7201.52
-307.724
7301.83
-290.098
7374.47
-272.318
7461.94
-254.13
7525.13
-235.932
7603.3
-217.626
7656.03
-199.672
7723.47
-182.272
7769
-165.747
7828.15
-150.575
7865.66
-137.025
7916.17
-126.072
7950.39
-117.748
7996.84
-112.686
8029.46
-110.822
8074.32
-112.863
8110.92
-118.462
8159.87
-127.906
8203.72
-140.763
8260.36
-157.315
8317.04
-177.206
8386.99
-200.213
8460.22
-226.185
8547.3
-254.578
8640.44
-285.165
8747.82
-317.226
8862.5
-350.127
8991.19
-382.936
9127.45
-414.677
9276.31
-444.474
9431.38
-471.526
9596.83
-495.43
9766.69
-515.859
9944.36
-532.868
10124.4
-546.557
10309.9
-557.272
10496.2
-565.311
10686
-571.093
10875.5
-574.956
11067.1
-577.278
11257.6
-578.363
11449.3
-578.518
11639.5
-578.002
11830.4
-577.05
12019.9
-575.927
12209.7
-574.759
12398.3
-574.192
12587.2
-573.537
12776.3
-576.131
-575.133
2424.75
-596.004
2546.92
-591.634
2688.11
-558.29
2800.76
-525.582
2960.46
-489.567
3036.61
-463.278
3151.85
-427.038
3231.88
-385.608
3345.17
-339.878
3396.92
-292.868
3486.34
-236.032
3527.57
-174.6
3587.51
-128.812
3612.47
-99.4027
3634.63
-75.0562
3661.76
-56.9952
3676.75
-44.1321
3704.86
-35.1997
3721.35
-33.2713
3743.05
-36.265
3752.77
-44.3091
3779.68
-57.371
3792.2
-79.1406
3830.06
-109.062
3855.12
-150.207
3918.11
-203.165
3973.77
-268.72
4071.98
-340.961
4167.3
-411.772
4299.54
-473.902
4428.28
-523.579
4588.48
-559.931
4737.29
-583.539
4897.76
-597.452
5047.82
-602.175
5211.25
-601.408
5365.45
-598.131
5521.97
-593.338
5671.39
-586.95
5821.7
-579.175
5966.47
-570.694
6109.49
-561.115
6247.36
-550.098
6382.93
-537.416
6515.37
-523.023
6643.35
-506.671
6758.45
-488.714
6879.87
-469.773
6981.21
-449.932
7093.77
-428.961
7181.84
-406.785
7282.48
-383.928
7355.8
-360.516
7443.78
-336.861
7507.73
-312.888
7586.49
-289.048
7639.97
-265.341
7708.02
-242.641
7754.22
-220.879
7813.9
-201.101
7851.93
-183.343
7902.81
-169.119
7937.37
-158.268
7984.02
-151.822
8016.76
-149.553
8061.59
-152.479
8098.1
-160.109
8146.78
-172.8
8190.26
-190.049
8246.34
-212.075
8302.32
-238.433
8371.31
-268.885
8443.43
-303.113
8529.1
-340.607
8620.64
-380.975
8726.11
-423.348
8838.69
-466.864
8964.99
-510.26
9098.67
-552.28
9244.68
-591.665
9396.69
-627.433
9558.8
-658.944
9725.12
-685.835
9898.98
-708.134
10075
-726.005
10256.2
-739.894
10438
-750.209
10623.2
-757.503
10807.8
-762.227
10994.3
-764.886
11179.5
-765.884
11365.7
-765.633
11550.3
-764.474
11735.4
-762.73
11918.8
-760.736
12102.3
-758.687
12284.5
-757.318
12466.8
-755.952
12648.5
-758.253
-756.153
2422.96
-752.49
2547.37
-746.448
2689.02
-708.307
2802.94
-665.183
2961.98
-620.46
3039.92
-581.318
3155.29
-535.856
3236.07
-483.901
3349.08
-426.247
3401.57
-365.372
3490.89
-293.262
3532.13
-209.157
3591.72
-150.933
3616.66
-113.591
3638.67
-83.109
3665.58
-62.2673
3680.41
-45.9857
3708.17
-35.2758
3724.4
-32.4748
3745.76
-35.3774
3755.3
-45.1955
3781.8
-61.944
3794.1
-89.0661
3831.35
-127.095
3856
-178.557
3917.78
-245.373
3972.33
-327.598
4068.59
-419.125
4162.21
-508.259
4292.09
-586.672
4418.8
-650.167
4576.51
-698.455
4723.29
-729.902
4881.81
-749.362
5030.28
-756.543
5191.94
-756.859
5344.67
-753.286
5499.79
-747.555
5648.01
-739.522
5797.14
-729.539
5940.85
-718.874
6082.88
-707.052
6219.89
-693.372
6354.65
-677.635
6486.36
-659.612
6613.62
-639.08
6728.15
-616.708
6848.96
-593.187
6949.95
-568.096
7062.09
-541.973
7149.95
-514.021
7250.3
-485.497
7323.51
-455.952
7411.3
-426.318
7475.16
-395.961
7553.73
-365.993
7607.03
-335.89
7674.82
-307.218
7720.69
-279.375
7779.93
-254.244
7817.36
-231.27
7867.54
-212.997
7901.21
-198.664
7946.84
-190.125
7978.35
-186.576
8021.81
-189.804
8056.74
-198.673
8103.68
-214.149
8145.19
-235.065
8199.07
-262.239
8252.63
-294.724
8318.9
-332.465
8388.06
-374.906
8470.42
-421.45
8558.39
-471.515
8659.98
-524.131
8768.45
-578.095
8890.37
-631.976
9019.48
-684.033
9160.7
-732.86
9307.72
-777.061
9464.65
-815.99
9625.61
-849.097
9793.92
-876.496
9964.23
-898.363
10139.6
-915.272
10315.4
-927.737
10494.4
-936.44
10672.7
-941.957
10852.9
-944.898
11031.6
-945.787
11211.3
-945.114
11389.3
-943.325
11567.6
-940.795
11744.1
-937.951
11920.7
-935.028
12095.7
-932.833
12270.8
-930.747
12444.7
-932.376
-929.482
2422.51
-899.789
2548.86
-890.388
2690.71
-844.838
2805.53
-792.595
2963.76
-741.704
3043.11
-696.824
3158.5
-644.593
3239.86
-580.51
3352.48
-513.893
3405.48
-440.232
3494.68
-356.658
3535.65
-263.277
3594.76
-195.318
3619.55
-148.855
3641.27
-112.219
3667.9
-84.8947
3682.43
-65.2863
3709.72
-52.4119
3725.57
-48.8872
3746.42
-53.3408
3755.5
-64.6006
3781.29
-84.454
3792.93
-115.963
3829.15
-160.645
3852.74
-220.687
3912.8
-299.396
3965.68
-395.585
4059.74
-503.038
4151.36
-607.836
4278.75
-701.023
4403.22
-775.25
4558.47
-830.477
4703.16
-866.029
4859.73
-887.411
5006.5
-895.011
5166.32
-894.882
5317.4
-890.474
5470.93
-883.787
5617.71
-874.581
5765.33
-863.44
5907.64
-851.128
6048.33
-837.234
6184.07
-821.161
6317.59
-802.643
6448.11
-781.472
6574.15
-757.551
6687.56
-731.298
6807.21
-703.672
6907.24
-674.261
7018.36
-643.48
7105.33
-610.543
7204.75
-576.876
7277.13
-541.883
7364.05
-506.79
7427.04
-470.774
7504.73
-435.21
7557.04
-399.407
7623.81
-365.296
7668.48
-332.199
7726.48
-302.253
7762.35
-275.005
7810.95
-253.199
7842.7
-236.191
7886.36
-225.967
7915.52
-221.834
7956.56
-225.615
7988.75
-236.279
8032.82
-254.618
8071.1
-279.616
8121.57
-311.79
8171.4
-350.267
8233.67
-394.851
8298.51
-444.923
8376.24
-499.896
8459.29
-559.119
8555.69
-621.453
8658.72
-685.543
8775.04
-749.566
8898.38
-811.548
9033.72
-869.619
9174.73
-922.237
9325.55
-968.467
9480.29
-1007.76
9642.31
-1040.18
9806.25
-1065.99
9975.19
-1085.86
10144.5
-1100.41
10317.1
-1110.45
10488.8
-1116.67
10662.4
-1119.81
10834.6
-1120.47
11007.7
-1119.26
11179.1
-1116.69
11350.7
-1113.24
11520.6
-1109.37
11690.6
-1105.41
11858.8
-1102.15
12027.1
-1099.14
12193.9
-1099.66
-1095.81
2422.52
-1057.14
2550.46
-1047.45
2692.35
-996.456
2807.83
-934.717
2965.11
-874.795
3045.65
-815.942
3160.88
-753.9
3242.57
-679.319
3354.71
-600.101
3408.16
-511.88
3497.14
-412.405
3537.81
-295.067
3596.35
-214.099
3620.92
-159.409
3642.29
-116.283
3668.52
-86.5185
3682.67
-63.3322
3709.4
-48.6811
3724.72
-44.2078
3744.94
-48.2389
3753.46
-61.2528
3778.43
-84.718
3789.27
-121.453
3824.25
-173.926
3846.58
-243.92
3904.63
-335.986
3955.46
-448.626
4046.91
-575.402
4136.19
-698.885
4260.83
-808.639
4382.86
-897.412
4535.43
-965.52
4677.77
-1009.65
4832.13
-1037.14
4976.93
-1047.7
5134.61
-1049.09
5283.75
-1044.64
5435.39
-1037.1
5580.4
-1026.29
5726.22
-1012.9
5866.8
-998.419
6005.79
-982.328
6139.88
-963.641
6271.79
-942.12
6400.7
-917.288
6525.09
-889.305
6636.9
-858.191
6754.94
-825.981
6853.47
-791.305
6963.08
-755.366
7048.58
-716.684
7146.54
-677.308
7217.45
-636.171
7302.95
-594.969
7364.42
-552.466
7440.63
-510.558
7491.25
-468.165
7556.39
-427.758
7599.13
-388.24
7655.23
-352.502
7688.77
-319.58
7735.04
-293.207
7764.06
-272.187
7804.94
-259.328
7830.89
-253.394
7868.64
-256.954
7897.18
-268.322
7937.49
-288.923
7971.64
-317.039
8017.78
-353.816
8062.97
-397.861
8120.34
-449.144
8179.97
-506.868
8252.2
-570.3
8329.48
-638.701
8419.88
-710.814
8516.76
-784.994
8626.84
-859.232
8743.86
-931.043
8872.88
-998.397
9007.54
-1059.31
9152.03
-1112.84
9300.42
-1158.25
9456.12
-1195.68
9613.75
-1225.44
9776.42
-1248.3
9939.54
-1265.01
10105.9
-1276.48
10271.5
-1283.54
10439.1
-1286.99
10605.2
-1287.6
10772.4
-1286.01
10937.8
-1282.86
11103.5
-1278.64
11267.5
-1273.94
11431.6
-1269.09
11593.9
-1264.92
11756.2
-1261.07
11916.9
-1260.51
-1255.85
2422.84
-1203.89
2552.11
-1190.11
2693.87
-1131.72
2809.77
-1061.12
2966.01
-994.942
3047.39
-931.17
3162.37
-862.248
3244.27
-775.565
3355.85
-687.346
3409.52
-586.541
3498.28
-475.687
3538.34
-350.875
3596.2
-260.267
3620.4
-196.247
3641.28
-146.821
3667.06
-109.953
3680.7
-83.3895
3706.76
-66.4018
3721.44
-61.0969
3740.88
-66.6846
3748.57
-80.9056
3772.44
-107.109
3782.07
-147.769
3815.46
-206.115
3835.96
-283.912
3891.55
-386.878
3939.88
-512.769
4028.55
-654.79
4115.26
-793.832
4237.06
-918.452
4356.48
-1018.03
4506.42
-1092.73
4646.39
-1140.82
4798.57
-1169.95
4941.3
-1180.91
5096.77
-1181.77
5243.81
-1176.52
5393.39
-1168.03
5536.41
-1156.12
5680.14
-1141.69
5818.68
-1125.64
5955.67
-1107.51
6087.78
-1086.49
6217.72
-1062.22
6344.64
-1034.37
6467
-1002.86
6576.75
-967.96
6692.76
-931.485
6789.31
-892.613
6896.98
-852.051
6980.51
-808.531
7076.55
-764.036
7145.49
-717.53
7229.09
-670.827
7288.53
-622.674
7362.79
-575.058
7411.2
-526.901
7474.22
-480.853
7514.48
-435.94
7568.18
-395.099
7598.78
-357.692
7642.18
-327.435
7667.82
-303.461
7705.36
-288.536
7727.42
-281.726
7761.3
-285.456
7785.51
-298.312
7821.46
-321.37
7850.79
-353.218
7892.02
-394.522
7931.94
-444.07
7983.84
-501.62
8037.71
-566.358
8103.93
-637.621
8174.98
-714.66
8259.01
-796.09
8349.42
-880.161
8453.06
-964.431
8563.67
-1046.19
8686.39
-1122.84
8814.81
-1192.28
8953.2
-1253.2
9095.56
-1304.9
9245.37
-1347.47
9397.19
-1381.3
9554.2
-1407.26
9711.75
-1426.2
9872.66
-1439.16
10033
-1447.07
10195.3
-1450.86
10356.3
-1451.36
10518.4
-1449.33
10678.8
-1445.49
10839.7
-1440.41
10998.8
-1434.72
11158
-1428.83
11315.5
-1423.55
11472.8
-1418.65
11628.6
-1416.77
-1410.95
2423.13
-1362.68
2553.53
-1347.79
2694.99
-1285.06
2811
-1204.1
2966.01
-1128.51
3048.01
-1050.31
3162.56
-971.135
3244.41
-874.205
3355.32
-772.859
3409.17
-657.084
3497.62
-529.856
3537.08
-380.506
3594.21
-276.46
3617.98
-203.961
3638.33
-147.743
3663.55
-108.565
3676.61
-78.2728
3701.91
-59.4236
3715.82
-53.0531
3734.4
-57.8816
3741.21
-73.736
3763.94
-103.283
3772.28
-148.854
3803.94
-214.403
3822.47
-301.54
3875.4
-417.164
3920.92
-559.207
4006.44
-720.583
4090.29
-878.783
4209.04
-1020.44
4325.7
-1135.31
4472.78
-1223.57
4610.15
-1280.76
4759.88
-1316.33
4900.31
-1330.58
5053.34
-1333.21
5198.04
-1328.06
5345.34
-1318.75
5486.13
-1305.23
5627.58
-1288.49
5763.86
-1270.25
5898.61
-1249.92
6028.51
-1226.29
6156.22
-1199
6280.91
-1167.46
6400.95
-1131.69
6508.33
-1092.23
6621.98
-1051.1
6716.2
-1006.88
6821.58
-961.099
6902.75
-911.812
6996.53
-861.536
7063.08
-808.834
7144.43
-755.875
7201.41
-701.099
7273.37
-646.899
7319.14
-591.91
7379.68
-539.196
7417.01
-487.443
7467.92
-440.306
7495.13
-396.656
7535.23
-361.225
7557
-332.603
7590.73
-314.43
7608.4
-305.221
7637.92
-308.173
7657.31
-321.161
7688.45
-345.975
7712.52
-380.408
7748.43
-425.83
7782.69
-480.45
7828.79
-544.203
7876.58
-616.137
7936.55
-695.419
8001.15
-781.31
8078.69
-872.322
8162.6
-966.454
8259.86
-1061.07
8364.25
-1152.86
8480.98
-1239.09
8603.59
-1317.12
8736.41
-1385.64
8873.38
-1443.75
9018.03
-1491.63
9164.85
-1529.71
9317.07
-1558.96
9469.99
-1580.36
9626.46
-1595.04
9782.46
-1604.06
9940.6
-1608.43
10097.6
-1609.1
10255.7
-1606.89
10412.2
-1602.63
10569.2
-1596.93
10724.6
-1590.5
10880
-1583.78
11033.7
-1577.59
11187.2
-1571.78
11339.1
-1568.76
-1561.86
2423.36
-1508.86
2554.54
-1488.7
2695.48
-1418.38
2811.34
-1328.64
2965.09
-1246.61
3047.41
-1164.34
3161.48
-1078.35
3243.21
-969.5
3353.44
-859.243
3407.25
-731.161
3495.42
-592.843
3534
-437.759
3590.28
-324.344
3613.48
-242.414
3633.15
-179.767
3657.77
-132.901
3670.12
-99.1448
3694.59
-77.7808
3707.65
-70.4538
3725.22
-76.8036
3730.88
-93.5579
3752.19
-125.357
3758.85
-174.219
3788.43
-244.704
3804.46
-338.656
3854.34
-464.087
3896.67
-618.604
3978.93
-794.673
4059.78
-968.464
4175.44
-1125.27
4289.23
-1251
4433.58
-1345.44
4568.4
-1406.23
4715.83
-1443.04
4853.99
-1457.44
5004.64
-1459.34
5147
-1453.27
5291.98
-1442.93
5430.49
-1428.32
5569.52
-1410.61
5703.38
-1390.81
5835.7
-1368.41
5963.15
-1342.41
6088.38
-1312.33
6210.54
-1277.72
6327.92
-1238.66
6432.56
-1195.47
6543.52
-1150.24
6635.01
-1101.89
6737.76
-1051.49
6816.19
-997.439
6907.37
-942.055
6971.16
-884.011
7049.96
-825.514
7104.16
-765.053
7173.55
-705.036
7216.36
-644.168
7274.17
-585.602
7308.27
-528.242
7356.15
-475.698
7379.62
-427.272
7416.17
-387.578
7433.71
-355.661
7463.36
-335.042
7476.27
-324.635
7501.16
-327.413
7515.38
-341.617
7541.45
-368.573
7559.95
-406.476
7590.3
-456.083
7618.69
-515.837
7658.82
-585.425
7700.41
-663.9
7754.06
-750.591
7812.22
-844.818
7883.36
-945.048
7960.94
-1049.21
8052.17
-1154.19
8150.76
-1256.43
8262.1
-1352.51
8379.58
-1439.61
8507.65
-1516.06
8640.12
-1580.95
8780.57
-1634.44
8923.43
-1677.02
9071.94
-1709.77
9221.34
-1733.77
9374.48
-1750.27
9527.3
-1760.42
9682.38
-1765.34
9836.4
-1766.09
9991.62
-1763.59
10145.3
-1758.73
10299.5
-1752.23
10452.1
-1744.84
10604.7
-1737.07
10755.5
-1729.7
10906.1
-1722.7
11055.1
-1718.28
-1709.77
2423.08
-1667.71
2554.87
-1647.26
2695.15
-1571.51
2810.67
-1472.44
2962.99
-1380.66
3045.48
-1283.37
3158.89
-1186.73
3240.27
-1067.72
3349.7
-943.668
3403.45
-799.942
3491.21
-644.673
3528.95
-464.123
3584.35
-336.744
3606.94
-245.963
3625.91
-176.112
3649.82
-127.146
3661.41
-89.4406
3684.95
-66.1083
3697.03
-57.5937
3713.52
-62.8058
3718
-81.0771
3737.88
-115.913
3742.84
-169.301
3770.31
-246.319
3783.86
-348.856
3830.61
-486.199
3869.58
-656.618
3948.28
-852.397
4025.9
-1046.18
4138.32
-1220.77
4249.18
-1362.81
4390.67
-1471.93
4522.82
-1542.52
4667.81
-1586.25
4803.61
-1604.31
4951.79
-1608.28
5091.7
-1602.43
5234.25
-1591.21
5370.31
-1574.88
5506.76
-1554.66
5637.98
-1532.52
5767.62
-1507.79
5892.33
-1479.06
6014.78
-1445.84
6134.08
-1407.45
6248.47
-1364.06
6350.02
-1315.88
6457.96
-1265.9
6546.39
-1212.1
6646.21
-1156.43
6721.59
-1096.6
6809.93
-1035.41
6870.69
-971.153
6946.74
-906.312
6997.92
-839.133
7064.59
-772.342
7104.23
-704.41
7159.17
-638.829
7189.85
-574.174
7234.55
-514.803
7254.07
-459.49
7286.87
-413.966
7299.97
-376.673
7325.32
-352.167
7333.23
-338.715
7353.28
-340.18
7362.13
-353.955
7382.94
-382.244
7395.74
-422.281
7420.46
-475.664
7442.93
-540.131
7477.12
-615.598
7512.57
-700.997
7560.04
-795.485
7611.96
-898.509
7677
-1008.48
7748.69
-1123.08
7834.43
-1239.03
7927.94
-1352.03
8034.69
-1458.47
8147.98
-1554.91
8272.29
-1639.66
8401.31
-1711.59
8538.65
-1770.96
8678.64
-1818.3
8824.52
-1854.81
8971.45
-1881.66
9122.28
-1900.22
9272.89
-1911.75
9425.86
-1917.48
9577.79
-1918.56
9730.96
-1916
9882.61
-1910.81
10034.8
-1903.74
10185.2
-1895.63
10335.8
-1887.01
10484.4
-1878.68
10632.8
-1870.62
10779.5
-1864.99
-1854.93
2422.16
-1812.07
2554.38
-1785.98
2693.9
-1702.43
2808.91
-1594.64
2959.77
-1496.36
3042.15
-1395.7
3154.87
-1292.36
3235.86
-1161.63
3344.49
-1028.78
3398
-872.945
3485.43
-706.725
3522.03
-521.856
3576.42
-385.245
3598.27
-284.905
3616.37
-208.534
3639.55
-151.289
3650.24
-110.029
3672.77
-83.9607
3683.8
-74.2894
3699.08
-80.9335
3702.17
-99.7325
3720.42
-136.303
3723.4
-192.301
3748.53
-273.275
3759.17
-381.566
3802.47
-527.597
3837.74
-709.785
3912.85
-919.945
3987.16
-1129.67
4096.39
-1320.11
4204.33
-1473.45
4343.25
-1588.66
4472.98
-1662.78
4615.83
-1707.52
4749.42
-1725.61
4895.26
-1728.63
5032.73
-1721.68
5172.78
-1709.23
5306.22
-1691.63
5439.81
-1670.31
5568.05
-1646.44
5694.64
-1619.45
5816.22
-1588.19
5935.48
-1552.03
6051.51
-1510.55
6162.54
-1463.63
6260.6
-1411.78
6365.22
-1357.5
6450.28
-1299.65
6546.95
-1239.41
6619.07
-1174.94
6704.43
-1108.73
6762.04
-1039.21
6835.26
-968.87
6883.35
-896.01
6947.27
-823.35
6983.7
-749.425
7035.78
-677.804
7062.98
-607.308
7104.52
-542.203
7120.01
-481.781
7149.07
-431.587
7157.6
-390.619
7178.64
-363.29
7181.43
-348.327
7196.61
-349.321
7200
-364.132
7215.61
-394.373
7222.67
-437.778
7241.85
-495.18
7258.49
-564.607
7286.91
-645.682
7316.47
-737.35
7358.07
-839.064
7404.14
-950.402
7463.57
-1069.85
7529.93
-1195.07
7610.91
-1322.23
7700.1
-1446.69
7803.14
-1563.98
7913.13
-1670.43
8034.59
-1763.9
8161.06
-1843.28
8296.15
-1908.8
8434.05
-1961.09
8578.02
-2001.46
8723.14
-2031.17
8872.24
-2051.74
9021.14
-2064.52
9172.42
-2070.87
9322.67
-2072.04
9474.14
-2069.18
9624.07
-2063.34
9774.5
-2055.41
9923.19
-2046.26
10071.9
-2036.5
10218.8
-2026.88
10365.2
-2017.45
10509.9
-2010.27
-1998.09
2420.64
-1971.57
2553.09
-1944.03
2691.64
-1855.66
2805.9
-1737.79
2955.15
-1629.53
3037.34
-1513.68
3149.27
-1399.52
3229.73
-1258.92
3337.53
-1111.86
3390.84
-939.94
3477.84
-756.346
3513.42
-545.529
3566.82
-394.548
3587.88
-285.039
3605.15
-201.134
3627.47
-141.84
3637.24
-96.438
3658.72
-68.2613
3668.61
-57.2525
3682.67
-62.4255
3684.42
-82.554
3701.1
-121.785
3702.15
-181.803
3724.93
-268.489
3732.7
-384.412
3772.48
-541.427
3803.91
-739.137
3875.16
-969.349
3946.04
-1200.04
4052.07
-1409.3
4157.22
-1580.1
4293.55
-1710.96
4420.83
-1795.42
4561.4
-1847.33
4692.62
-1869.19
4835.86
-1874.28
4970.58
-1867.37
5107.74
-1853.74
5238.12
-1834.09
5368.42
-1809.9
5493.26
-1783.4
5616.39
-1753.86
5734.46
-1719.73
5850.21
-1680.39
5962.74
-1635.04
6070.19
-1583.71
6164.63
-1527.19
6265.82
-1468.26
6347.46
-1404.99
6440.99
-1339.59
6509.86
-1269.44
6592.31
-1197.52
6646.8
-1121.88
6717.32
-1045.23
6762.39
-965.627
6823.7
-886.087
6856.99
-804.882
6906.33
-725.931
6930.13
-647.64
6968.6
-575.15
6980.06
-507.097
7005.41
-450.363
7009.36
-403.19
7026.08
-371.302
7023.72
-352.599
7034.01
-351.787
7031.95
-365.644
7042.37
-396.931
7043.8
-442.145
7057.55
-503.184
7068.57
-577.154
7091.49
-664.016
7115.44
-762.555
7151.51
-872.091
7192.1
-992.443
7246.35
-1122.13
7307.88
-1258.56
7384.6
-1397.74
7470.06
-1534.01
7569.96
-1662.73
7677.19
-1779.4
7796.28
-1881.9
7920.57
-1968.87
8053.67
-2040.7
8189.63
-2098.02
8331.74
-2142.35
8474.97
-2175.03
8622.17
-2197.73
8769.14
-2211.92
8918.48
-2219.09
9066.76
-2220.61
9216.28
-2217.71
9364.26
-2211.56
9512.78
-2203.1
9659.59
-2193.27
9806.49
-2182.7
9951.56
-2172.15
10096.3
-2161.64
10239.1
-2153.17
-2139.14
2418.43
-2114.21
2550.79
-2080.02
2688.28
-1983.58
2801.74
-1857.08
2949.51
-1742.27
3031.39
-1623.77
3142.61
-1503.21
3222.6
-1351.23
3329.63
-1195.59
3382.58
-1011.79
3469.24
-817.537
3503.51
-603.719
3555.8
-443.793
3575.97
-324.697
3592.22
-234.214
3613.69
-166.104
3622.42
-117.054
3642.77
-85.9527
3651.47
-73.6023
3664.17
-80.1222
3664.33
-100.382
3679.16
-140.792
3677.94
-202.642
3698.11
-292.209
3702.56
-412.658
3738.53
-577.124
3765.87
-785.824
3833.38
-1030.25
3900.95
-1277.49
4004
-1503.61
4106.47
-1686.17
4240.56
-1822.9
4365.55
-1910.44
4503.95
-1962.76
4632.7
-1984.03
4773.17
-1987.51
4904.84
-1978.9
5038.76
-1963.55
5165.71
-1942.24
5292.33
-1916.72
5413.42
-1888.31
5532.81
-1856.38
5647.15
-1819.65
5759.24
-1777.37
5868.18
-1728.98
5971.98
-1674.59
6062.77
-1614.68
6160.58
-1551.89
6238.83
-1484.83
6329.31
-1415.03
6395.01
-1340.44
6474.67
-1263.67
6526.17
-1182.89
6594.13
-1100.84
6636.32
-1015.58
6695.19
-930.137
6725.49
-842.805
6772.29
-757.61
6792.79
-673.19
6828.38
-594.6
6835.9
-521.021
6857.67
-459.167
6857.05
-407.885
6869.56
-372.781
6862.02
-352.248
6867.53
-350.74
6860
-365.563
6865.36
-398.762
6861.18
-447.43
6869.67
-512.516
6875.18
-591.48
6892.76
-683.908
6911.29
-788.601
6942.01
-905.302
6977.3
-1034.08
7026.55
-1173.67
7083.4
-1321.54
7156.04
-1472.96
7237.85
-1621.85
7334.63
-1762.43
7438.99
-1889.87
7555.47
-2001.61
7677.14
-2096.32
7807.66
-2174.41
7940.9
-2236.67
8080.22
-2284.74
8220.5
-2320.15
8364.7
-2344.72
8508.61
-2360.06
8654.92
-2367.8
8800.24
-2369.44
8946.92
-2366.31
9092.25
-2359.67
9238.29
-2350.53
9382.85
-2339.86
9527.7
-2328.38
9670.95
-2316.77
9814.01
-2305.1
9955.33
-2295.1
-2278.92
2415.26
-2272.86
2547.46
-2237.77
2683.95
-2135.58
2796.59
-2000.01
2942.81
-1875.04
3024.33
-1741.08
3134.69
-1609.55
3214.01
-1447.7
3320.14
-1277.23
3372.75
-1076.59
3458.92
-864.376
3492.02
-623.874
3543.2
-449.062
3562.46
-320.33
3577.75
-221.86
3598.26
-151.782
3605.93
-98.3162
3625.1
-64.9626
3632.5
-51.1297
3643.82
-55.8665
3642.43
-77.3277
3655.53
-120.058
3652.18
-185.434
3669.85
-279.881
3671.21
-406.899
3703.5
-581.394
3726.82
-805.327
3790.48
-1070.55
3854.76
-1340.23
3954.87
-1586.52
4054.73
-1787.87
4186.32
-1941.37
4308.67
-2039.57
4444.38
-2099.01
4570.13
-2123.81
4707.26
-2129.09
4835.34
-2120.15
4965.56
-2103.2
5088.71
-2079.51
5211.42
-2050.83
5328.61
-2019.67
5444.19
-1985.18
5554.81
-1945.67
5663.3
-1900.37
5768.7
-1848.29
5868.97
-1789.71
5956.19
-1725.08
6050.72
-1657.89
6125.66
-1585.57
6213.18
-1510.79
6275.78
-1430.66
6352.77
-1348.37
6401.33
-1261.61
6466.86
-1173.36
6506.26
-1081.38
6562.84
-989.001
6590.24
-894.176
6634.66
-801.352
6651.98
-708.572
6684.81
-621.997
6688.44
-539.906
6706.71
-470.702
6701.52
-412.236
6709.81
-371.819
6697.05
-346.733
6697.72
-342.935
6684.69
-356.267
6684.93
-390.327
6675.14
-440.536
6678.34
-509.263
6678.35
-592.698
6690.62
-690.93
6703.69
-802.473
6728.98
-927.016
6758.82
-1064.98
6802.82
-1215.29
6854.66
-1375.08
6922.8
-1539.51
7000.44
-1701.1
7093.41
-1853.83
7194
-1991.88
7306.7
-2112.78
7424.34
-2214.9
7550.58
-2298.98
7679.18
-2365.86
7813.6
-2417.5
7948.77
-2455.58
8087.81
-2482.15
8226.63
-2498.99
8368.1
-2507.82
8508.92
-2510.28
8651.56
-2507.7
8793.32
-2501.44
8936.32
-2492.5
9078.34
-2481.92
9221.16
-2470.36
9362.84
-2458.53
9504.77
-2446.44
9645.23
-2435.52
-2417.84
2411.16
-2413.49
2543.43
-2371.09
2678.93
-2260.67
2790.64
-2116.47
2935.27
-1984.93
3016.16
-1848.81
3125.67
-1711.14
3204.34
-1538.24
3309.68
-1359.38
3361.8
-1146.96
3447.61
-924.174
3479.23
-681.686
3529.22
-498.037
3547.43
-359.644
3561.58
-254.573
3581.13
-175.117
3587.61
-117.92
3605.53
-81.4137
3611.61
-65.9988
3621.46
-71.9854
3618.36
-93.1758
3629.59
-136.591
3623.89
-203.077
3638.96
-299.37
3636.91
-429.699
3665.36
-610.444
3684.53
-844.771
3744.54
-1124.39
3805.64
-1411.56
3902.86
-1675.96
3999.92
-1889.53
4128.99
-2048.43
4248.49
-2149.06
4381.33
-2208.09
4503.77
-2231.58
4637.38
-2234.56
4761.7
-2223.45
4888.15
-2204.45
5007.48
-2178.99
5126.27
-2149.01
5239.6
-2116.02
5351.43
-2079.23
5458.35
-2037.24
5563.23
-1989.12
5665.05
-1934.22
5761.66
-1872.61
5845.14
-1804.88
5936.24
-1733.76
6007.67
-1657.86
6092.06
-1578.83
6151.38
-1494.46
6225.57
-1407.49
6271.08
-1315.74
6334.11
-1222.22
6370.67
-1124.64
6424.98
-1026.36
6449.51
-925.306
6491.64
-826.029
6505.82
-726.838
6536.05
-633.74
6535.81
-545.672
6550.7
-470.772
6540.92
-407.709
6545.06
-363.562
6526.98
-336.299
6522.83
-331.538
6504.14
-345.827
6499.26
-381.793
6483.66
-435.628
6481.49
-508.481
6475.82
-596.994
6482.56
-700.714
6489.91
-818.165
6509.4
-949.573
6533.28
-1095.75
6571.4
-1256.07
6617.41
-1427.81
6680.08
-1605.16
6752.29
-1780.03
6839.98
-1944.92
6934.94
-2093.63
7041.65
-2223.22
7152.59
-2332.25
7271.54
-2421.6
7392.2
-2492.51
7518.36
-2547.2
7645.13
-2587.71
7776.05
-2616.28
7907.27
-2634.84
8041.9
-2645.22
8176.82
-2649.01
8314.56
-2647.62
8452.45
-2642.32
8592.55
-2634.17
8732.6
-2624.13
8874.25
-2612.95
9015.48
-2601.19
9157.63
-2589.02
9298.8
-2577.32
-2557.99
2406.63
-2571.48
2538.66
-2527.95
2672.95
-2411.96
2783.5
-2258.04
2926.41
-2116.21
3006.73
-1964.68
3115.38
-1816.13
3193.37
-1633.62
3297.91
-1439.56
3349.66
-1209.74
3435.03
-968.511
3465.39
-698.827
3514.22
-499.846
3531.41
-351.426
3544.49
-238.006
3562.98
-156.574
3568.3
-94.7393
3584.97
-55.8319
3589.67
-38.7935
3598.1
-42.7443
3593.43
-64.9916
3602.95
-110.4
3595.11
-179.888
3607.69
-280.176
3602.53
-415.944
3627.28
-605.714
3642.38
-854.974
3698.54
-1156.1
3756.25
-1467.09
3850.3
-1752.76
3944.25
-1985.89
4070.18
-2161.91
4186.23
-2273.05
4315.6
-2338.89
4434.33
-2365.66
4564.1
-2370.3
4684.52
-2358.75
4807.12
-2338.09
4922.61
-2310.23
5037.53
-2277.05
5146.98
-2241.32
5254.97
-2202
5358.02
-2157.26
5459.04
-2106.16
5556.96
-2047.64
5649.55
-1981.79
5728.93
-1909.74
5816.21
-1834.41
5883.74
-1753.42
5964.66
-1669.59
6020.37
-1579.91
6091.5
-1487.68
6133.69
-1390.22
6194.07
-1290.74
6227.62
-1186.63
6279.63
-1081.5
6301.2
-972.897
6341.08
-865.785
6352.1
-757.748
6379.8
-656.047
6375.65
-558.538
6387.18
-475.365
6372.7
-403.94
6372.6
-353.561
6349.02
-320.734
6339.85
-313.086
6315.29
-325.24
6305.02
-361.841
6283.39
-416.895
6275.56
-493.373
6263.88
-586.197
6264.75
-695.589
6265.86
-819.591
6278.91
-958.435
6295.94
-1113.44
6327.05
-1284.35
6365.85
-1468.08
6421.39
-1658.71
6486.25
-1846.28
6566.26
-2022.9
6652.66
-2181.17
6749.85
-2318.36
6850
-2432.98
6957.21
-2526.62
7065.44
-2600.94
7179.15
-2658.76
7294
-2702.45
7414.12
-2734.36
7536.04
-2756.52
7663.14
-2770.51
7792.33
-2777.92
7926.12
-2779.86
8061.65
-2777.64
8200.81
-2772.08
8341.08
-2764.26
8483.94
-2754.82
8627.18
-2744.39
8772.01
-2733.18
8916.5
-2721.73
-2701.22
2401.36
-2710.69
2532.91
-2658.3
2665.93
-2533.7
2775.4
-2371.28
2916.86
-2222.91
2996.6
-2069.84
3104.58
-1915.6
3182.04
-1722.53
3285.94
-1520.34
3337.2
-1278.8
3422.27
-1027.19
3451.08
-756.41
3498.66
-548.82
3514.72
-390.768
3526.56
-270.769
3544.02
-179.479
3548.07
-113.854
3563.43
-71.627
3566.73
-52.8154
3573.63
-57.9523
3567.15
-79.5511
3574.72
-125.174
3564.43
-195.041
3574.39
-296.143
3565.73
-433.979
3586.63
-628.765
3597.48
-887.705
3649.86
-1203.23
3704.02
-1532.29
3794.62
-1836.82
3884.98
-2082.01
4007.66
-2262.47
4120.13
-2375.09
4246.12
-2439.74
4361.23
-2464.65
4487.41
-2466.59
4604.14
-2452.65
4723.06
-2429.84
4834.78
-2400.14
4945.68
-2365.65
5050.95
-2327.95
5154.64
-2286.12
5253.25
-2238.67
5349.76
-2184.56
5443.08
-2123.11
5530.89
-2054.7
5605.42
-1979.82