/*--------------------------------*- C++ -*----------------------------------*\
| =========                 |                                                 |
| \\      /  F ield         | OpenFOAM: The Open Source CFD Toolbox           |
|  \\    /   O peration     | Version:  4.1                                   |
|   \\  /    A nd           | Web:      www.OpenFOAM.org                      |
|    \\/     M anipulation  |                                                 |
\*---------------------------------------------------------------------------*/
FoamFile
{
    version     2.0;
    format      ascii;
    class       volVectorField;
    location    "27";
    object      U;
}
// * * * * * * * * * * * * * * * * * * * * * * * * * * * * * * * * * * * * * //

dimensions      [0 1 -1 0 0 0 0];

internalField   nonuniform List<vector> 
26785
(
(-5.95636e-16 -0.0223614 19.2423)
(-7.72713e-16 -0.0209301 19.5511)
(2.56454e-16 -0.0164392 19.7936)
(-2.94727e-15 -0.0138401 19.9816)
(-2.67238e-15 -0.00842319 20.2151)
(-4.0924e-15 -0.00743385 20.3487)
(-4.27064e-15 -0.00250437 20.3258)
(-4.43736e-15 0.00023298 20.2977)
(-6.79799e-15 0.00559746 20.2707)
(1.36436e-15 0.00811713 20.1621)
(-1.28943e-16 0.0143217 19.9855)
(-1.68773e-16 0.0192063 19.7934)
(-7.32115e-16 0.0237197 19.5344)
(-9.04505e-16 0.0249944 19.2509)
(-1.11411e-15 0.0268147 18.8918)
(-1.27927e-15 0.0277606 18.5477)
(-1.41829e-15 0.0282882 18.2078)
(-1.5511e-15 0.0287923 17.884)
(-2.69515e-15 0.0282399 17.5754)
(-4.14933e-15 0.0276484 17.2717)
(-3.17909e-15 0.0262266 16.9683)
(-3.07806e-16 0.0247642 16.6882)
(9.99404e-15 0.0220435 16.431)
(-1.49259e-14 0.0192868 16.2105)
(-2.45554e-14 0.0149163 16.0252)
(-2.6821e-15 0.0104533 15.8993)
(-6.82847e-15 0.0041057 15.8425)
(-1.10664e-14 -0.00192722 15.8602)
(-3.65912e-15 -0.00850364 15.9529)
(-1.43514e-14 -0.0135246 16.1111)
(-2.40212e-14 -0.0181693 16.3243)
(-2.40816e-14 -0.0212045 16.5827)
(-7.47485e-15 -0.0235843 16.8663)
(-1.17113e-14 -0.0247194 17.1407)
(-2.3342e-14 -0.0251423 17.4067)
(-1.00801e-14 -0.0246691 17.6685)
(-1.30564e-14 -0.0241883 17.9263)
(-1.22928e-14 -0.0233835 18.1629)
(-1.23108e-14 -0.022526 18.3836)
(-1.18772e-14 -0.0213913 18.5873)
(-4.1141e-15 -0.0203343 18.7761)
(-1.38023e-14 -0.019153 18.9468)
(-1.07615e-14 -0.0178901 19.1012)
(-2.17269e-14 -0.0164576 19.2384)
(-1.19584e-14 -0.014888 19.3624)
(-1.36499e-14 -0.013091 19.4746)
(-1.35062e-14 -0.0113583 19.5551)
(-1.25831e-14 -0.00941117 19.6178)
(-1.23387e-14 -0.00752317 19.6632)
(-1.1555e-14 -0.00536481 19.695)
(-8.05292e-15 -0.00335754 19.7058)
(-1.29354e-14 -0.00104123 19.6996)
(-1.14404e-14 0.000986219 19.6728)
(-1.10967e-14 0.00332902 19.6292)
(-1.08159e-14 0.00536377 19.5736)
(-1.10287e-14 0.00767504 19.5071)
(-1.42844e-14 0.00961931 19.4287)
(-1.04329e-14 0.0117661 19.3383)
(-1.32451e-14 0.0135141 19.2409)
(-1.42957e-14 0.0153496 19.1351)
(-5.38344e-15 0.0167133 19.0221)
(-1.07255e-14 0.0180073 18.9011)
(-1.13576e-14 0.0187531 18.7792)
(-9.3433e-15 0.0193217 18.6548)
(-8.34672e-15 0.0193065 18.5314)
(-1.06479e-14 0.0190203 18.4089)
(-1.0818e-14 0.0181599 18.2938)
(-1.09208e-14 0.0170082 18.1854)
(-1.0356e-14 0.0153331 18.0875)
(-8.59101e-15 0.0133639 17.9999)
(-1.63243e-14 0.0109081 17.9283)
(-1.65084e-14 0.00820709 17.8721)
(-1.18242e-14 0.00508348 17.8347)
(-1.24379e-14 0.00178661 17.816)
(-1.25164e-14 -0.00181192 17.8186)
(-1.07975e-14 -0.00549031 17.842)
(-1.00742e-14 -0.00929383 17.887)
(-9.75934e-15 -0.0130096 17.9529)
(-9.73211e-15 -0.0166163 18.0394)
(-9.27854e-15 -0.0199388 18.1445)
(-6.42518e-15 -0.0229553 18.2664)
(-1.30099e-14 -0.0255633 18.4025)
(-1.51278e-14 -0.0277802 18.5508)
(-1.06179e-14 -0.029568 18.7085)
(-4.59295e-15 -0.0309842 18.8734)
(-1.06069e-14 -0.0320329 19.0431)
(-1.03559e-14 -0.0327856 19.2163)
(-9.43445e-15 -0.0332632 19.3909)
(-9.89076e-15 -0.0335339 19.5659)
(-1.07157e-14 -0.0336198 19.7402)
(-1.0366e-14 -0.0335777 19.913)
(-9.84364e-15 -0.0334268 20.0837)
(-9.72412e-15 -0.033213 20.252)
(-9.44918e-15 -0.0329511 20.4175)
(-9.32961e-15 -0.0326847 20.5801)
(-1.19956e-14 -0.0324163 20.7407)
(-9.17581e-15 -0.0322413 20.8958)
(-8.85448e-15 -0.0320856 21.0584)
(-8.78615e-15 -0.0322039 21.1839)
(-8.66652e-15 -0.0325197 21.416)
(4.32752e-16 -0.0606526 19.2824)
(9.13042e-15 -0.0592887 19.605)
(-3.16996e-15 -0.0468753 19.8704)
(-2.34851e-15 -0.0389167 20.0723)
(-9.94485e-15 -0.0250601 20.3403)
(-1.36342e-15 -0.0213627 20.4879)
(-7.07034e-15 -0.00870031 20.4581)
(5.42609e-15 0.000493642 20.4338)
(1.69479e-15 0.0150812 20.4253)
(4.88147e-16 0.0243058 20.3282)
(1.71675e-17 0.0412582 20.1591)
(-2.91003e-17 0.0557561 19.9779)
(-6.024e-17 0.0683044 19.7219)
(5.15676e-16 0.0732313 19.4397)
(-2.05539e-15 0.0787741 19.0699)
(-3.0485e-15 0.0821632 18.719)
(4.63939e-17 0.0841231 18.3735)
(-2.33162e-16 0.0857441 18.0463)
(-2.19576e-15 0.0846093 17.7343)
(3.8713e-15 0.0828142 17.4247)
(1.55587e-14 0.0790178 17.111)
(-2.3626e-15 0.0748356 16.8196)
(5.44264e-15 0.0674966 16.5485)
(-9.22612e-15 0.0592843 16.3138)
(-8.94579e-15 0.0469756 16.1134)
(-1.59533e-14 0.0331996 15.9745)
(7.67811e-15 0.0146915 15.9074)
(7.95516e-16 -0.00403344 15.9182)
(9.93969e-16 -0.0234699 16.0068)
(-1.4534e-14 -0.0391174 16.1632)
(-1.4901e-14 -0.0523885 16.376)
(-2.55586e-15 -0.0610777 16.6356)
(-1.65367e-15 -0.0671242 16.921)
(-8.21915e-16 -0.0699413 17.1962)
(-1.3977e-14 -0.0705565 17.4627)
(-1.95756e-15 -0.069086 17.7253)
(-2.08844e-15 -0.0674354 17.9841)
(-1.87157e-15 -0.0651673 18.2214)
(-1.70997e-15 -0.0626777 18.4426)
(-1.1145e-15 -0.0596423 18.6467)
(-1.06887e-15 -0.0566761 18.8358)
(1.0277e-14 -0.053417 19.0068)
(1.85113e-16 -0.0499 19.1615)
(2.61378e-15 -0.0459434 19.2991)
(2.90915e-15 -0.0415871 19.4237)
(2.64753e-15 -0.036668 19.5368)
(2.16096e-15 -0.0317165 19.618)
(2.83898e-15 -0.0263094 19.6815)
(-9.57756e-16 -0.0209199 19.7276)
(1.17826e-14 -0.0149253 19.7604)
(-4.11504e-15 -0.00907441 19.772)
(1.44484e-15 -0.00264545 19.7667)
(6.13405e-16 0.00334425 19.7407)
(-8.45259e-16 0.00985935 19.6982)
(7.22347e-15 0.0158847 19.6437)
(1.88883e-16 0.0223311 19.5786)
(3.25884e-16 0.0281459 19.5016)
(4.08943e-16 0.0341411 19.4127)
(2.41779e-15 0.0393564 19.3169)
(2.56112e-15 0.0444557 19.2129)
(1.29752e-15 0.048528 19.1016)
(1.32859e-15 0.0520397 18.9821)
(3.53156e-15 0.0542541 18.8618)
(3.83092e-15 0.0556411 18.739)
(1.98754e-15 0.0555863 18.6173)
(2.08196e-15 0.0544669 18.4962)
(3.18811e-15 0.0518571 18.3829)
(1.98537e-15 0.048176 18.2762)
(-5.33152e-16 0.0431053 18.1801)
(2.19582e-15 0.0370024 18.0945)
(4.91563e-15 0.0296181 18.025)
(-2.55432e-15 0.0213607 17.9713)
(-2.93497e-15 0.0120023 17.9366)
(-1.1842e-15 0.00198693 17.9209)
(1.38729e-16 -0.00882647 17.9268)
(1.64375e-14 -0.0199802 17.9538)
(2.4301e-15 -0.0314359 18.0027)
(3.56396e-15 -0.0426951 18.0728)
(-3.00019e-15 -0.0535718 18.1637)
(-2.4588e-15 -0.0636223 18.2734)
(4.82461e-15 -0.072699 18.4)
(-2.51519e-15 -0.0805515 18.5409)
(-6.9072e-15 -0.0871706 18.694)
(-1.1377e-14 -0.0925025 18.8564)
(4.10323e-15 -0.0966637 19.0259)
(1.88665e-15 -0.0997249 19.2001)
(1.11459e-15 -0.101852 19.3775)
(1.10103e-15 -0.103158 19.5561)
(1.08614e-15 -0.103806 19.7349)
(1.13061e-15 -0.103904 19.9126)
(1.68698e-15 -0.103589 20.0885)
(1.81251e-15 -0.10295 20.262)
(1.72816e-15 -0.1021 20.4327)
(1.03444e-15 -0.101108 20.6002)
(8.16902e-16 -0.100085 20.7644)
(7.37338e-16 -0.099055 20.9261)
(1.74704e-15 -0.0982981 21.0822)
(3.12575e-16 -0.0975081 21.2447)
(1.75472e-16 -0.0979107 21.3709)
(4.22789e-17 -0.0974632 21.6011)
(-2.18485e-15 -0.103362 19.2386)
(-8.35414e-15 -0.100116 19.5744)
(1.04521e-14 -0.0823964 19.8508)
(1.65858e-16 -0.0671539 20.0622)
(-3.90653e-15 -0.0474442 20.3337)
(3.18791e-15 -0.0360307 20.4879)
(1.38815e-14 -0.0173649 20.4661)
(3.85306e-15 -0.000146087 20.4466)
(1.477e-15 0.02159 20.4406)
(1.13777e-15 0.0403658 20.3466)
(1.23724e-15 0.0661767 20.1801)
(1.07751e-15 0.0927195 20.0004)
(9.78168e-16 0.11241 19.7452)
(7.02389e-16 0.122539 19.4637)
(8.86083e-16 0.131629 19.095)
(-3.4733e-15 0.137168 18.7447)
(-1.16229e-14 0.140718 18.3999)
(3.96501e-15 0.14292 18.0732)
(2.54096e-15 0.141471 17.7618)
(3.44046e-15 0.138474 17.4527)
(1.48021e-15 0.132733 17.14)
(1.61965e-14 0.125415 16.8497)
(8.16673e-15 0.113835 16.58)
(1.83839e-14 0.0995552 16.3467)
(-1.26336e-14 0.0798246 16.1476)
(-1.38433e-14 0.0559052 16.0095)
(1.19521e-15 0.0258022 15.9416)
(1.10615e-14 -0.0062231 15.9496)
(4.42292e-15 -0.0379137 16.0338)
(3.91237e-15 -0.0646194 16.1841)
(3.57333e-15 -0.0862379 16.39)
(1.46605e-14 -0.101402 16.6421)
(-1.83207e-14 -0.111079 16.9202)
(-1.15598e-14 -0.116042 17.1892)
(8.63168e-15 -0.11684 17.4506)
(7.07052e-15 -0.114828 17.7087)
(8.73757e-15 -0.111937 17.9636)
(8.17904e-15 -0.108296 18.1978)
(7.95572e-15 -0.104073 18.4167)
(7.9489e-15 -0.099153 18.619)
(8.19974e-15 -0.0941755 18.8068)
(7.9715e-15 -0.0888121 18.977)
(8.0613e-15 -0.0829339 19.1313)
(7.78512e-15 -0.0763923 19.2691)
(7.23173e-15 -0.0691648 19.3942)
(6.68977e-15 -0.0611413 19.508)
(6.42335e-15 -0.0527002 19.5905)
(6.31753e-15 -0.0438743 19.6557)
(6.15989e-15 -0.0347645 19.704)
(6.02295e-15 -0.0250403 19.7392)
(5.82544e-15 -0.015085 19.7537)
(5.84019e-15 -0.00468744 19.7517)
(5.74406e-15 0.00556233 19.7292)
(5.5987e-15 0.0160909 19.6904)
(3.65502e-15 0.0263887 19.6399)
(4.30065e-16 0.0368014 19.5788)
(7.72544e-15 0.0467833 19.5058)
(6.98478e-15 0.0564841 19.421)
(4.1104e-15 0.065452 19.3293)
(1.33695e-14 0.0736798 19.2292)
(6.47628e-15 0.0807457 19.1218)
(6.88607e-15 0.0863648 19.0062)
(6.38136e-15 0.0902834 18.8895)
(4.64219e-15 0.0923793 18.7703)
(-1.64598e-15 0.0924882 18.652)
(8.99423e-15 0.0904287 18.5344)
(1.30649e-14 0.086219 18.4242)
(3.69645e-15 0.0798948 18.3207)
(5.29781e-15 0.071542 18.2277)
(4.96204e-15 0.0611963 18.145)
(4.7064e-15 0.0489337 18.0783)
(8.08754e-15 0.0350044 18.0273)
(1.73914e-14 0.0194179 17.995)
(5.76591e-17 0.00256777 17.9815)
(3.80011e-15 -0.0154747 17.9893)
(5.6695e-15 -0.0342152 18.0179)
(5.68646e-15 -0.0533406 18.0682)
(5.85625e-15 -0.0722345 18.1394)
(5.66394e-15 -0.0903872 18.231)
(5.75176e-15 -0.10723 18.3411)
(5.19214e-15 -0.122357 18.4677)
(6.41144e-15 -0.135491 18.6082)
(5.10619e-16 -0.146495 18.7605)
(-5.00955e-16 -0.155384 18.9218)
(1.93213e-15 -0.162258 19.0897)
(9.92563e-16 -0.167318 19.2619)
(7.51594e-16 -0.170769 19.4369)
(7.05598e-16 -0.172862 19.6127)
(-9.86896e-17 -0.173815 19.7883)
(-6.17518e-15 -0.173856 19.9623)
(2.29863e-16 -0.173178 20.1343)
(-9.89361e-17 -0.171963 20.3034)
(-4.05494e-15 -0.170373 20.4693)
(-1.76776e-15 -0.168547 20.6317)
(-1.71146e-15 -0.16665 20.7905)
(-1.89802e-15 -0.164744 20.9464)
(-3.47634e-15 -0.163263 21.0963)
(-2.26876e-15 -0.161663 21.2518)
(-2.26271e-15 -0.162328 21.3726)
(-2.36854e-15 -0.160169 21.5903)
(-1.84562e-15 -0.145908 19.2115)
(3.82714e-16 -0.140391 19.5597)
(5.09235e-15 -0.116583 19.8464)
(2.82795e-15 -0.0941988 20.0659)
(2.78703e-16 -0.068498 20.3405)
(5.23141e-15 -0.0500075 20.4998)
(5.9604e-15 -0.0255996 20.4848)
(4.59929e-16 -0.000281056 20.4695)
(1.3043e-15 0.0287752 20.465)
(2.59257e-15 0.0567054 20.3723)
(1.85131e-15 0.0914687 20.2071)
(1.85592e-15 0.129236 20.027)
(1.56366e-15 0.156043 19.7705)
(-5.53385e-15 0.171391 19.4877)
(3.45167e-15 0.183934 19.1183)
(3.64932e-15 0.191743 18.767)
(3.54462e-15 0.196803 18.4211)
(5.84657e-15 0.199525 18.0931)
(3.35784e-15 0.19775 17.7805)
(2.96663e-15 0.193392 17.4702)
(-1.20623e-15 0.185641 17.1566)
(-8.92283e-15 0.175175 16.8653)
(1.23134e-14 0.159422 16.5948)
(8.87022e-15 0.139181 16.3607)
(7.7395e-15 0.11208 16.1606)
(6.45986e-15 0.0783084 16.0206)
(5.48585e-15 0.0368064 15.9498)
(5.1491e-15 -0.00820381 15.9538)
(5.42938e-15 -0.0520391 16.0327)
(5.10629e-15 -0.0896661 16.1766)
(1.84377e-14 -0.119589 16.3756)
(2.02881e-14 -0.141003 16.6204)
(7.91145e-15 -0.154275 16.8917)
(8.60606e-15 -0.161284 17.1551)
(-5.69789e-15 -0.162349 17.4118)
(1.12134e-14 -0.159853 17.6656)
(1.20732e-15 -0.155869 17.9167)
(5.87425e-15 -0.150961 18.1478)
(9.23648e-15 -0.145136 18.3642)
(-1.24421e-15 -0.138459 18.5643)
(5.89989e-15 -0.131595 18.7503)
(7.25995e-15 -0.12423 18.9192)
(6.83373e-15 -0.116115 19.0727)
(4.48841e-15 -0.107106 19.2098)
(3.08766e-15 -0.0971494 19.3346)
(3.11612e-15 -0.0860989 19.4484)
(1.70941e-14 -0.0743392 19.5311)
(6.51998e-15 -0.0622074 19.5969)
(1.09534e-15 -0.0495381 19.6462)
(-2.18171e-15 -0.0362293 19.6828)
(2.95628e-15 -0.0223486 19.6989)
(-7.07445e-15 -0.0081197 19.6987)
(6.31678e-15 0.00622576 19.6783)
(4.04196e-15 0.0206661 19.6417)
(-4.27393e-16 0.0350965 19.5935)
(1.10864e-15 0.0494054 19.5346)
(3.44914e-16 0.0634344 19.464)
(9.22776e-16 0.0768009 19.3814)
(8.04293e-16 0.0894175 19.2917)
(1.67729e-15 0.100758 19.1935)
(2.87601e-15 0.110728 19.0878)
(1.21125e-14 0.11846 18.9736)
(2.20953e-15 0.124019 18.8582)
(8.18233e-16 0.126844 18.7399)
(9.61679e-16 0.127065 18.6223)
(1.18357e-14 0.124104 18.5051)
(-3.48923e-15 0.118272 18.3951)
(-3.99394e-15 0.109366 18.2915)
(9.07959e-16 0.097736 18.1981)
(-1.0489e-15 0.0832326 18.1147)
(-1.45159e-14 0.0661505 18.047)
(2.48017e-15 0.0466697 17.9945)
(1.00308e-14 0.0249668 17.9603)
(-1.54917e-14 0.00143699 17.9445)
(-3.39793e-15 -0.0236935 17.9496)
(-7.90023e-16 -0.0498478 17.975)
(-9.98331e-16 -0.0764939 18.0217)
(-5.0679e-16 -0.102846 18.0887)
(2.9239e-15 -0.128123 18.1759)
(-8.56562e-16 -0.151578 18.2811)
(-1.68012e-15 -0.172596 18.4024)
(-2.33902e-15 -0.190826 18.5373)
(-2.59133e-15 -0.206046 18.6836)
(-1.32183e-14 -0.21831 18.8384)
(-1.56882e-15 -0.227736 18.9996)
(-3.20093e-15 -0.234627 19.1649)
(-2.46943e-15 -0.239255 19.3325)
(-2.80036e-15 -0.241984 19.5008)
(-2.75104e-15 -0.24311 19.6686)
(-2.12612e-15 -0.242962 19.8346)
(4.03654e-15 -0.2418 19.9983)
(-1.73044e-16 -0.23989 20.1589)
(-3.96977e-15 -0.23745 20.3162)
(-4.18097e-15 -0.234682 20.4698)
(-3.94427e-15 -0.231804 20.6195)
(-4.84045e-15 -0.228921 20.7662)
(-4.60332e-15 -0.226563 20.9069)
(-2.85915e-15 -0.224115 21.0522)
(-2.77768e-15 -0.224492 21.1651)
(-2.77014e-15 -0.221008 21.3664)
(-1.52057e-15 -0.188985 19.1942)
(1.11781e-15 -0.181381 19.5555)
(-3.50967e-16 -0.152368 19.8522)
(-8.34871e-15 -0.122324 20.0781)
(3.85208e-15 -0.0907865 20.3539)
(-2.44794e-15 -0.0647366 20.5168)
(-4.67536e-15 -0.0342083 20.5072)
(7.39821e-15 -0.000746253 20.4943)
(3.26428e-15 0.0356977 20.4901)
(2.6935e-15 0.0730145 20.3982)
(4.92153e-16 0.116997 20.2339)
(-3.16372e-15 0.166447 20.053)
(5.2848e-15 0.200586 19.7946)
(7.92549e-15 0.221155 19.5101)
(8.57974e-15 0.237197 19.1396)
(3.90057e-15 0.247172 18.7867)
(4.1049e-15 0.253736 18.4394)
(3.1106e-15 0.256943 18.1097)
(2.56092e-15 0.254824 17.7951)
(2.07786e-15 0.249183 17.4831)
(1.79218e-15 0.239447 17.168)
(3.73909e-15 0.225717 16.8752)
(3.91382e-15 0.205708 16.6031)
(3.7029e-15 0.17945 16.3671)
(4.52718e-15 0.144969 16.1648)
(7.13589e-15 0.101359 16.0216)
(-1.15351e-15 0.0484908 15.9462)
(-2.64269e-14 -0.00941747 15.9441)
(4.51039e-15 -0.0653957 16.0162)
(4.57038e-15 -0.113938 16.1526)
(3.78118e-15 -0.152339 16.3437)
(2.20462e-15 -0.180263 16.5808)
(3.53354e-16 -0.197411 16.8447)
(-5.62923e-15 -0.206683 17.1018)
(-7.60811e-15 -0.208227 17.3533)
(-8.7209e-16 -0.205413 17.6023)
(-3.17622e-16 -0.200447 17.8489)
(-3.50091e-16 -0.194317 18.0764)
(-1.22791e-15 -0.186931 18.2897)
(-1.47767e-15 -0.178515 18.4871)
(-1.09461e-15 -0.169796 18.6707)
(-7.78173e-16 -0.160465 18.8377)
(-1.74369e-15 -0.150151 18.9895)
(-2.29528e-15 -0.138716 19.1253)
(-2.73717e-15 -0.126041 19.249)
(-2.97775e-15 -0.111952 19.3619)
(-2.96646e-15 -0.0970305 19.4439)
(-2.53209e-15 -0.0816218 19.5093)
(-1.36146e-15 -0.0653864 19.5584)
(-6.27102e-15 -0.0485057 19.595)
(-6.5745e-15 -0.0307002 19.6115)
(-4.48035e-15 -0.0126295 19.6117)
(-4.71533e-15 0.00583356 19.5919)
(-4.89467e-15 0.0242393 19.556)
(-4.40073e-15 0.0428605 19.5085)
(-5.25233e-16 0.0611492 19.4504)
(-4.9406e-15 0.0793048 19.3803)
(-6.76781e-15 0.0964517 19.2981)
(-2.11293e-14 0.112834 19.2087)
(-3.08585e-15 0.127422 19.1105)
(-9.17196e-15 0.14043 19.0045)
(-1.43048e-15 0.150431 18.8896)
(-4.61662e-15 0.157778 18.7732)
(-2.28858e-15 0.161476 18.6537)
(-1.65148e-15 0.16193 18.5344)
(-2.08954e-14 0.158183 18.4151)
(-5.61184e-15 0.150838 18.3028)
(-6.29015e-15 0.13945 18.1965)
(-3.87635e-15 0.124642 18.0999)
(-1.12107e-14 0.106076 18.013)
(-1.18037e-14 0.0842645 17.9413)
(-8.21498e-15 0.0593274 17.8844)
(-2.39427e-14 0.0315904 17.8453)
(-1.73045e-14 0.00147349 17.824)
(1.6627e-15 -0.030668 17.8231)
(5.32552e-15 -0.064165 17.8421)
(-1.29717e-14 -0.098279 17.8818)
(-1.87882e-14 -0.132044 17.9416)
(-3.13037e-15 -0.164409 18.0212)
(-3.22386e-15 -0.19444 18.1185)
(-2.29419e-15 -0.221317 18.2318)
(-1.97327e-15 -0.244607 18.3583)
(-2.88505e-15 -0.264014 18.496)
(-1.19316e-14 -0.279621 18.6421)
(5.92341e-15 -0.291578 18.7944)
(-1.38307e-15 -0.300276 18.9506)
(-8.7008e-16 -0.306068 19.1091)
(-1.02967e-15 -0.309418 19.2681)
(-1.73844e-15 -0.310711 19.4265)
(-4.57001e-15 -0.310362 19.5831)
(6.76501e-16 -0.308713 19.7375)
(-1.25735e-15 -0.306095 19.8887)
(8.88066e-16 -0.302798 20.0365)
(-2.03644e-15 -0.299072 20.1807)
(-2.74072e-15 -0.295197 20.321)
(-5.71558e-15 -0.291314 20.4581)
(-1.195e-15 -0.288014 20.5895)
(-2.76181e-15 -0.284703 20.7246)
(-4.03678e-15 -0.284411 20.8296)
(-4.05819e-15 -0.27984 21.0154)
(2.01115e-16 -0.237469 19.1888)
(8.19239e-15 -0.224139 19.5611)
(-2.39084e-15 -0.188321 19.8648)
(2.67006e-15 -0.150026 20.0944)
(4.13736e-15 -0.112253 20.3697)
(1.4736e-15 -0.0788262 20.5343)
(8.58741e-16 -0.042252 20.5282)
(3.21821e-15 -0.000591288 20.5172)
(3.37164e-15 0.043264 20.5125)
(-7.06092e-16 0.0897434 20.4204)
(-2.7123e-15 0.142671 20.2562)
(5.65562e-16 0.20277 20.0737)
(2.44434e-15 0.244013 19.8125)
(1.4861e-15 0.269891 19.5258)
(1.21371e-15 0.289447 19.1536)
(1.34432e-15 0.301778 18.7989)
(6.12478e-15 0.309833 18.4497)
(1.21779e-14 0.31355 18.1178)
(-1.00436e-14 0.311131 17.801)
(-8.06017e-16 0.304108 17.4868)
(2.58615e-15 0.292419 17.1693)
(-4.37334e-15 0.275583 16.8738)
(-1.41274e-14 0.251533 16.5988)
(2.45376e-14 0.219537 16.3594)
(1.39667e-14 0.177945 16.153)
(-5.72312e-16 0.124911 16.0044)
(3.34796e-15 0.0609838 15.9225)
(2.34547e-15 -0.00952847 15.9134)
(3.86514e-15 -0.07756 15.9778)
(1.33745e-14 -0.136996 16.1063)
(-6.76123e-18 -0.183863 16.2895)
(-1.52528e-14 -0.218129 16.5188)
(-3.56364e-15 -0.239083 16.7756)
(-4.24428e-15 -0.250532 17.0268)
(7.78329e-15 -0.252607 17.2732)
(-1.44504e-15 -0.249532 17.5174)
(-9.98333e-16 -0.243696 17.7595)
(-1.38992e-15 -0.236445 17.9831)
(-1.79262e-15 -0.227625 18.1929)
(-2.53569e-15 -0.217606 18.3871)
(-9.82607e-15 -0.207157 18.5677)
(-7.8665e-18 -0.195965 18.7319)
(-2.02159e-15 -0.18357 18.8813)
(-1.29253e-14 -0.169823 19.0149)
(-3.34156e-15 -0.154548 19.1366)
(-3.41506e-15 -0.137619 19.2474)
(-3.50606e-15 -0.119682 19.3276)
(-3.75521e-15 -0.101168 19.3913)
(-4.0399e-15 -0.0815245 19.4391)
(-4.28388e-15 -0.0611838 19.4745)
(-4.10908e-15 -0.0396123 19.49)
(-4.03143e-15 -0.0177985 19.4893)
(-4.03583e-15 0.00464983 19.4687)
(-4.60868e-15 0.0269511 19.4321)
(-4.43767e-15 0.0496513 19.3839)
(-4.22393e-15 0.071871 19.325)
(-3.74698e-15 0.0940582 19.254)
(-3.94381e-15 0.114957 19.1709)
(-4.79204e-15 0.135034 19.0802)
(-3.26349e-15 0.152867 18.9805)
(-4.1125e-15 0.168856 18.8725)
(-2.81272e-15 0.18114 18.7554)
(-1.06935e-15 0.190255 18.6363)
(-3.06044e-15 0.194865 18.5137)
(4.11607e-16 0.19555 18.3909)
(6.89986e-15 0.191078 18.2678)
(9.39435e-15 0.182251 18.1511)
(-1.60706e-14 0.168472 18.0401)
(-4.00531e-15 0.150552 17.9384)
(-8.89687e-15 0.128054 17.8459)
(-8.12679e-15 0.101645 17.7682)
(-2.43009e-15 0.0714347 17.7047)
(-2.09556e-15 0.03786 17.6586)
(-3.55796e-15 0.0013718 17.6298)
(-2.01321e-15 -0.0375783 17.6209)
(-7.82227e-16 -0.0782237 17.6314)
(2.09595e-15 -0.119649 17.6623)
(1.46691e-15 -0.16069 17.713)
(-9.71829e-16 -0.200039 17.7834)
(-5.03906e-16 -0.236551 17.8714)
(-1.44008e-15 -0.269211 17.9752)
(1.91447e-15 -0.297484 18.0923)
(1.21915e-14 -0.321017 18.2205)
(-7.06048e-16 -0.339908 18.3571)
(-5.46053e-15 -0.354353 18.5)
(-3.04759e-15 -0.364822 18.6467)
(-4.96928e-15 -0.371755 18.7958)
(-6.55693e-15 -0.375709 18.9456)
(-8.04822e-15 -0.377158 19.0949)
(-8.93746e-15 -0.376599 19.2426)
(-1.00781e-14 -0.374456 19.388)
(-1.18012e-14 -0.371127 19.5304)
(-9.84658e-15 -0.366966 19.6696)
(-1.21578e-14 -0.362277 19.8053)
(-1.10319e-14 -0.35739 19.9372)
(-1.57491e-14 -0.352493 20.0659)
(-1.55428e-14 -0.348201 20.1892)
(-1.54548e-14 -0.343988 20.3155)
(-1.64909e-14 -0.342789 20.4138)
(-1.68585e-14 -0.337162 20.5866)
(1.56287e-16 -0.277754 19.1888)
(1.25535e-15 -0.263301 19.5685)
(1.88873e-15 -0.222706 19.8777)
(-4.46995e-15 -0.177509 20.1095)
(4.26174e-15 -0.134036 20.3829)
(1.31564e-15 -0.0931505 20.548)
(-2.19417e-17 -0.0504361 20.5445)
(2.8118e-15 -0.000845232 20.5338)
(7.11324e-15 0.0503782 20.5278)
(-9.91831e-16 0.106206 20.4353)
(-6.32529e-15 0.16837 20.271)
(-2.42909e-15 0.239762 20.0867)
(-2.60642e-15 0.288423 19.8224)
(-2.57603e-15 0.319661 19.5333)
(2.7478e-15 0.342889 19.1594)
(1.09718e-14 0.357495 18.8025)
(-1.1345e-14 0.367127 18.4511)
(-3.36136e-15 0.371365 18.1168)
(-5.33466e-17 0.368629 17.7974)
(-6.18545e-16 0.360385 17.4805)
(7.01199e-15 0.346725 17.1604)
(-6.08781e-15 0.326641 16.8621)
(2.28591e-17 0.298408 16.5838)
(-1.37426e-16 0.260616 16.3404)
(2.16192e-15 0.211875 16.1291)
(2.28814e-15 0.149371 15.9745)
(1.4135e-14 0.0743066 15.8851)
(1.88402e-14 -0.00889245 15.8674)
(-2.52706e-14 -0.089164 15.9232)
(1.36661e-14 -0.159635 16.0429)
(-4.51823e-15 -0.215278 16.2176)
(-2.92139e-15 -0.256295 16.4388)
(-3.46246e-15 -0.281381 16.688)
(-3.64334e-15 -0.29524 16.9327)
(-4.10711e-15 -0.298024 17.1734)
(-2.81275e-15 -0.294822 17.4121)
(-2.15519e-15 -0.288171 17.6491)
(-2.58788e-15 -0.279791 17.8681)
(-2.45125e-15 -0.269523 18.0738)
(-1.56705e-15 -0.257865 18.264)
(-1.33026e-14 -0.245673 18.4409)
(-4.74236e-15 -0.232621 18.6017)
(-2.01821e-15 -0.218152 18.7479)
(-1.89721e-15 -0.202103 18.8786)
(-3.87575e-15 -0.184206 18.9974)
(-3.34644e-15 -0.164462 19.1054)
(-3.01478e-15 -0.14334 19.1828)
(7.79936e-16 -0.121727 19.2439)
(-4.05369e-15 -0.0986669 19.2893)
(9.70626e-15 -0.0748569 19.3225)
(8.28835e-15 -0.0495205 19.3359)
(6.40402e-15 -0.0239359 19.3332)
(-4.65743e-15 0.00251373 19.3107)
(-2.80643e-15 0.0287683 19.2723)
(-3.22576e-15 0.0555941 19.2222)
(-3.35577e-15 0.0818309 19.1614)
(-4.18311e-15 0.10813 19.0884)
(-2.94967e-15 0.132905 19.003)
(-2.87725e-15 0.156809 18.9099)
(-4.21206e-15 0.178052 18.8075)
(-5.11218e-15 0.197186 18.6963)
(-4.8784e-15 0.211937 18.5756)
(-3.27844e-15 0.222996 18.4525)
(2.9364e-15 0.228689 18.3254)
(-5.15741e-15 0.22976 18.1977)
(1.94932e-15 0.224707 18.0692)
(1.29895e-15 0.214536 17.9468)
(8.97334e-15 0.198491 17.8296)
(-6.36961e-15 0.177585 17.7214)
(-1.27137e-14 0.151273 17.6219)
(9.04453e-17 0.120383 17.5368)
(3.54149e-15 0.0850178 17.4654)
(9.77532e-15 0.0457054 17.411)
(4.77304e-15 0.00294916 17.3734)
(3.12779e-15 -0.0427418 17.3552)
(1.59621e-15 -0.0904939 17.3562)
(-1.11227e-14 -0.139232 17.3773)
(-2.33373e-17 -0.18758 17.4182)
(-1.45818e-14 -0.233967 17.4788)
(-1.26849e-14 -0.277026 17.5571)
(-1.15055e-14 -0.315537 17.6514)
(-1.41196e-14 -0.348857 17.7591)
(-2.08711e-14 -0.376578 17.8781)
(2.95042e-15 -0.398812 18.0057)
(-1.5197e-14 -0.415805 18.1397)
(-1.80054e-14 -0.428103 18.2778)
(-1.99966e-14 -0.436236 18.4186)
(-2.1363e-14 -0.440851 18.5602)
(-2.18756e-14 -0.442514 18.7016)
(-2.38686e-14 -0.4418 18.8416)
(-2.93062e-14 -0.439217 18.9796)
(-2.26459e-14 -0.435224 19.1148)
(-2.02551e-14 -0.430246 19.247)
(-2.37735e-14 -0.424633 19.3758)
(-2.36549e-14 -0.418769 19.501)
(-2.0655e-14 -0.412878 19.6232)
(-2.40266e-14 -0.407587 19.7401)
(-2.16683e-14 -0.402456 19.8596)
(-2.25739e-14 -0.40022 19.9527)
(-2.19158e-14 -0.393577 20.1157)
(2.61507e-15 -0.321661 19.1911)
(4.43928e-15 -0.304555 19.5775)
(1.04391e-14 -0.25832 19.8903)
(3.78221e-15 -0.205801 20.1227)
(5.27614e-15 -0.156145 20.3932)
(2.52602e-15 -0.107866 20.5573)
(3.42828e-15 -0.0589244 20.5551)
(1.93703e-15 -0.00123931 20.5443)
(2.19983e-15 0.0575895 20.5366)
(1.59326e-15 0.122736 20.4428)
(1.13068e-15 0.194048 20.278)
(1.05754e-15 0.27592 20.0912)
(9.49123e-16 0.331872 19.823)
(1.02876e-15 0.368624 19.531)
(6.81097e-16 0.395556 19.1547)
(-1.53004e-14 0.412636 18.7954)
(2.61833e-15 0.42384 18.4418)
(2.92541e-15 0.428644 18.1047)
(2.99078e-15 0.42566 17.7824)
(2.77283e-15 0.416107 17.4626)
(2.05747e-15 0.400557 17.1391)
(2.2043e-16 0.377486 16.8369)
(-4.55248e-15 0.345346 16.5542)
(2.10825e-14 0.302103 16.3054)
(-2.1691e-15 0.246515 16.0878)
(1.58944e-15 0.174944 15.9252)
(5.49068e-15 0.0889462 15.8268)
(-6.5026e-16 -0.00684701 15.7999)
(-1.41025e-15 -0.0994702 15.8465)
(-5.20076e-15 -0.181162 15.9574)
(-4.1991e-15 -0.245729 16.1234)
(-4.54357e-15 -0.293442 16.3367)
(-4.78845e-15 -0.322657 16.5787)
(-4.96582e-15 -0.338875 16.8173)
(-5.46412e-15 -0.342419 17.0525)
(-3.63281e-15 -0.339128 17.2859)
(-2.69977e-15 -0.331744 17.5177)
(-2.1423e-15 -0.322311 17.732)
(-2.29433e-15 -0.310686 17.9332)
(-1.64839e-15 -0.297494 18.119)
(-1.28973e-14 -0.283647 18.2916)
(-1.50611e-14 -0.26881 18.4484)
(-5.84878e-15 -0.252352 18.5907)
(-4.1726e-15 -0.234076 18.7177)
(-4.82101e-15 -0.213673 18.8329)
(-5.30539e-15 -0.191138 18.9373)
(-4.99469e-15 -0.166946 19.0111)
(-4.70171e-15 -0.142249 19.0686)
(7.81196e-15 -0.115896 19.1108)
(-3.31199e-15 -0.0887009 19.1409)
(-7.9546e-15 -0.0597251 19.1513)
(-6.64702e-16 -0.0304526 19.1457)
(-6.60767e-15 -0.000106852 19.1205)
(-8.96558e-15 0.0300383 19.0793)
(-9.01765e-15 0.0609078 19.0265)
(-1.04009e-14 0.0911235 18.9629)
(-1.28855e-14 0.121478 18.8871)
(-2.13081e-15 0.150118 18.7986)
(-1.28074e-14 0.177811 18.7022)
(-1.34655e-14 0.202482 18.5961)
(-1.35711e-14 0.224748 18.4809)
(-1.17126e-14 0.241999 18.3556)
(-1.22416e-14 0.255013 18.2275)
(-1.23906e-14 0.261843 18.095)
(-1.21708e-14 0.263332 17.9615)
(-9.16902e-15 0.257772 17.8265)
(-1.92366e-14 0.246311 17.6975)
(-3.28371e-14 0.228095 17.5732)
(-1.17831e-14 0.204285 17.4575)
(-1.60535e-14 0.174284 17.35)
(-1.52239e-14 0.139048 17.2567)
(-1.60536e-14 0.0986953 17.1766)
(-1.67294e-14 0.0538283 17.1132)
(-1.57147e-14 0.0049821 17.0662)
(-2.29185e-14 -0.0472942 17.0383)
(-2.7313e-14 -0.102037 17.0293)
(-2.50751e-14 -0.158028 17.0405)
(-2.47092e-14 -0.213665 17.0716)
(-2.45454e-14 -0.267116 17.1226)
(-2.70363e-14 -0.316759 17.1916)
(-3.7305e-14 -0.361168 17.277)
(-2.6144e-14 -0.399581 17.3761)
(-2.36427e-14 -0.431535 17.4869)
(-2.2678e-14 -0.45716 17.6066)
(-3.30597e-14 -0.476752 17.7331)
(-2.76539e-14 -0.490935 17.8641)
(-2.6618e-14 -0.50033 17.9981)
(-2.54818e-14 -0.505668 18.1332)
(-2.40972e-14 -0.507608 18.2685)
(-1.93184e-14 -0.506798 18.4027)
(-2.36871e-14 -0.503827 18.5351)
(-2.68996e-14 -0.499216 18.6651)
(-1.77249e-14 -0.493458 18.7922)
(-1.80418e-14 -0.48695 18.9161)
(-1.87848e-14 -0.480122 19.0367)
(-1.94495e-14 -0.47324 19.1543)
(-1.70634e-14 -0.466929 19.2668)
(-1.49211e-14 -0.460829 19.3816)
(-1.44319e-14 -0.457483 19.4712)
(-1.3309e-14 -0.449736 19.6274)
(2.02874e-15 -0.365119 19.1937)
(2.62261e-15 -0.34488 19.5856)
(2.46283e-15 -0.293716 19.9006)
(4.04275e-15 -0.23376 20.1319)
(-5.97641e-15 -0.177918 20.3978)
(-1.5095e-15 -0.122138 20.5598)
(-4.60103e-15 -0.0667919 20.5578)
(4.61525e-15 -0.00121411 20.5455)
(-6.70906e-16 0.0652262 20.5353)
(-7.20897e-15 0.139809 20.4401)
(2.15974e-15 0.220486 20.2746)
(2.68845e-15 0.313198 20.0854)
(3.21296e-15 0.376657 19.8134)
(2.8932e-15 0.418875 19.5184)
(2.85578e-15 0.449578 19.1398)
(2.42477e-15 0.469025 18.778)
(2.71367e-15 0.481779 18.4218)
(1.66456e-15 0.487084 18.0818)
(-8.74577e-16 0.483743 17.7564)
(3.42026e-18 0.472984 17.4332)
(-6.26178e-16 0.455445 17.1064)
(-1.10758e-16 0.429191 16.8004)
(1.82136e-14 0.392995 16.5132)
(-1.44809e-15 0.344285 16.2589)
(3.05187e-15 0.281881 16.0344)
(-1.93563e-14 0.201278 15.8636)
(1.14653e-14 0.104358 15.7554)
(-1.20928e-14 -0.00402431 15.718)
(-9.56358e-15 -0.109157 15.7547)
(-5.92484e-15 -0.202212 15.8559)
(-7.36551e-15 -0.275962 16.013)
(-6.29976e-15 -0.33064 16.218)
(-1.69972e-14 -0.364207 16.4523)
(-1.70407e-14 -0.382924 16.6842)
(-5.535e-15 -0.38736 16.9135)
(1.64751e-15 -0.384072 17.141)
(3.02711e-15 -0.376009 17.3671)
(1.05111e-15 -0.365533 17.5761)
(7.0995e-16 -0.352569 17.7724)
(8.22811e-17 -0.33785 17.9535)
(-6.4818e-16 -0.322376 18.1215)
(-1.82384e-15 -0.30579 18.2738)
(-4.60633e-15 -0.28738 18.4119)
(-5.16416e-15 -0.266908 18.5348)
(-4.43642e-15 -0.244017 18.6459)
(-4.62064e-15 -0.218651 18.7463)
(-5.94243e-15 -0.191519 18.8158)
(-7.42181e-15 -0.16372 18.8693)
(-8.77712e-15 -0.134051 18.9076)
(-1.00255e-14 -0.103461 18.9339)
(-1.10144e-14 -0.0708472 18.9407)
(-1.17967e-14 -0.0378723 18.9315)
(-1.22099e-14 -0.00362169 18.9028)
(-1.28973e-14 0.0304581 18.8582)
(-1.36779e-14 0.0654129 18.802)
(-1.37395e-14 0.0996875 18.7351)
(-1.43686e-14 0.134175 18.6557)
(-1.37452e-14 0.16681 18.5635)
(-1.53655e-14 0.198431 18.4631)
(-1.6621e-14 0.226701 18.3528)
(-1.66725e-14 0.252293 18.2328)
(-1.63732e-14 0.272243 18.1022)
(-1.61028e-14 0.287418 17.9685)
(-1.61087e-14 0.295581 17.8298)
(-1.7594e-14 0.297665 17.6896)
(-1.81935e-14 0.291751 17.5476)
(-2.78755e-14 0.279146 17.411)
(-3.07195e-14 0.258875 17.279)
(-1.50471e-14 0.232278 17.1552)
(-2.15014e-14 0.198689 17.0393)
(-2.08357e-14 0.159199 16.9372)
(-2.05425e-14 0.113947 16.8481)
(-1.99719e-14 0.0635913 16.7753)
(-2.58345e-14 0.00871269 16.7188)
(-2.96251e-14 -0.0501389 16.681)
(-4.06171e-14 -0.111909 16.6623)
(-1.43008e-14 -0.175245 16.6637)
(-2.60322e-14 -0.238315 16.6854)
(-2.019e-14 -0.298994 16.7274)
(-2.05948e-14 -0.355403 16.788)
(-2.49704e-14 -0.405887 16.8656)
(-2.43676e-14 -0.449558 16.9574)
(-1.78177e-14 -0.485899 17.0615)
(-8.23052e-15 -0.515056 17.175)
(-1.68305e-14 -0.53738 17.2957)
(-2.11565e-14 -0.553573 17.4214)
(-1.93002e-14 -0.564341 17.5506)
(-1.75116e-14 -0.570503 17.6813)
(-1.59379e-14 -0.572805 17.8125)
(-1.40965e-14 -0.571972 17.9429)
(-1.30274e-14 -0.568671 18.072)
(-1.70333e-14 -0.563488 18.1987)
(-8.09293e-15 -0.556981 18.3229)
(-1.01714e-14 -0.549595 18.444)
(-8.76676e-15 -0.54181 18.5618)
(-8.72452e-15 -0.533927 18.6768)
(-7.72767e-15 -0.526571 18.7869)
(-6.17811e-15 -0.519449 18.899)
(-5.81558e-15 -0.514948 18.9865)