# vtk DataFile Version 2.0
track0
ASCII
DATASET POLYDATA
POINTS 6430 float
-0.0205 0.001 1e-05
-0.0204727 0.00100011 1e-05
-0.0204454 0.00100021 1e-05
-0.0204181 0.00100032 1e-05
-0.0203908 0.00100042 1e-05
-0.0203635 0.00100053 1e-05
-0.0200299 0.00100181 1e-05
-0.0196963 0.00100312 1e-05
-0.0193627 0.00100443 1e-05
-0.0190291 0.00100573 1e-05
-0.0186954 0.00100701 1e-05
-0.018369 0.00100821 1e-05
-0.0180425 0.00100944 1e-05
-0.017716 0.00101066 1e-05
-0.0173896 0.00101187 1e-05
-0.0170631 0.00101307 1e-05
-0.0167436 0.00101419 1e-05
-0.0164242 0.00101534 1e-05
-0.0161047 0.00101648 1e-05
-0.0157852 0.00101761 1e-05
-0.0154657 0.00101873 1e-05
-0.0151531 0.00101977 1e-05
-0.0148405 0.00102084 1e-05
-0.0145279 0.00102191 1e-05
-0.0142152 0.00102297 1e-05
-0.0139026 0.00102401 1e-05
-0.0135967 0.00102498 1e-05
-0.0132908 0.00102598 1e-05
-0.0129848 0.00102698 1e-05
-0.0126789 0.00102797 1e-05
-0.012373 0.00102894 1e-05
-0.0120736 0.00102984 1e-05
-0.0117742 0.00103077 1e-05
-0.0114749 0.0010317 1e-05
-0.0111755 0.00103263 1e-05
-0.0108761 0.00103353 1e-05
-0.0105832 0.00103437 1e-05
-0.0102902 0.00103524 1e-05
-0.00999724 0.0010361 1e-05
-0.00970429 0.00103696 1e-05
-0.00941133 0.0010378 1e-05
-0.00912465 0.00103858 1e-05
-0.00883797 0.00103938 1e-05
-0.00855129 0.00104019 1e-05
-0.00826461 0.00104098 1e-05
-0.00797793 0.00104176 1e-05
-0.00769739 0.00104248 1e-05
-0.00741686 0.00104322 1e-05
-0.00713632 0.00104397 1e-05
-0.00685578 0.0010447 1e-05
-0.00657525 0.00104542 1e-05
-0.00630072 0.00104608 1e-05
-0.0060262 0.00104676 1e-05
-0.00575167 0.00104745 1e-05
-0.00547714 0.00104813 1e-05
-0.00520262 0.00104878 1e-05
-0.00493398 0.00104938 1e-05
-0.00466533 0.00105001 1e-05
-0.00439669 0.00105063 1e-05
-0.00412805 0.00105125 1e-05
-0.0038594 0.00105184 1e-05
-0.00359652 0.00105239 1e-05
-0.00333363 0.00105295 1e-05
-0.00307074 0.00105353 1e-05
-0.00280786 0.00105409 1e-05
-0.00254497 0.00105463 1e-05
-0.00228772 0.00105512 1e-05
-0.00203046 0.00105562 1e-05
-0.00177321 0.00105612 1e-05
-0.00151596 0.0010566 1e-05
-0.0012587 0.00105705 1e-05
-0.00100696 0.00105746 1e-05
-0.000755223 0.00105792 1e-05
-0.000503482 0.00105832 1e-05
-0.000251741 0.00105859 1e-05
0 0.00105868 1e-05
0.000329256 0.0010585 1e-05
0.000658511 0.00105848 1e-05
0.000987767 0.00105839 1e-05
0.00131702 0.00105808 1e-05
0.00164628 0.00105746 1e-05
0.00197921 0.00105638 1e-05
0.00231214 0.00105582 1e-05
0.00264507 0.00105541 1e-05
0.002978 0.0010549 1e-05
0.00331093 0.00105411 1e-05
0.00364757 0.00105265 1e-05
0.00398422 0.00105186 1e-05
0.00432087 0.00105127 1e-05
0.00465751 0.00105062 1e-05
0.00499415 0.00104969 1e-05
0.00533455 0.00104796 1e-05
0.00567496 0.00104689 1e-05
0.00601536 0.001046 1e-05
0.00635577 0.00104506 1e-05
0.00669616 0.00104385 1e-05
0.00704036 0.00104182 1e-05
0.00738456 0.00104038 1e-05
0.00772877 0.00103908 1e-05
0.00807297 0.00103772 1e-05
0.00841716 0.00103612 1e-05
0.0087652 0.00103374 1e-05
0.00911324 0.00103186 1e-05
0.00946129 0.00103005 1e-05
0.00980933 0.00102818 1e-05
0.0101574 0.0010261 1e-05
0.0105093 0.00102333 1e-05
0.0108612 0.00102094 1e-05
0.0112131 0.00101856 1e-05
0.0115651 0.00101609 1e-05
0.011917 0.00101348 1e-05
0.0122728 0.00101025 1e-05
0.0126287 0.00100731 1e-05
0.0129845 0.00100432 1e-05
0.0133404 0.00100125 1e-05
0.0136962 0.000998055 1e-05
0.0140561 0.000994353 1e-05
0.0144159 0.000990839 1e-05
0.0147757 0.000987241 1e-05
0.0151355 0.000983553 1e-05
0.0154954 0.000979773 1e-05
0.0158592 0.000975585 1e-05
0.016223 0.000971487 1e-05
0.0165869 0.000967303 1e-05
0.0169507 0.000963032 1e-05
0.0173145 0.000958674 1e-05
0.0176824 0.00095401 1e-05
0.0180503 0.000949359 1e-05
0.0184182 0.000944629 1e-05
0.0187861 0.00093982 1e-05
0.019154 0.00093493 1e-05
0.019526 0.000929815 1e-05
0.019898 0.00092466 1e-05
0.02027 0.000919435 1e-05
0.020642 0.00091414 1e-05
0.0210141 0.000908773 1e-05
0.0213902 0.000903237 1e-05
0.0217664 0.000897632 1e-05
0.0221425 0.000891966 1e-05
0.0225187 0.000886238 1e-05
0.0228948 0.000880448 1e-05
0.0232752 0.000874523 1e-05
0.0236555 0.000868521 1e-05
0.0240359 0.000862466 1e-05
0.0244162 0.000856355 1e-05
0.0247966 0.00085019 1e-05
0.025143 0.000844528 1e-05
0.0254895 0.00083881 1e-05
0.0258359 0.000833052 1e-05
0.0261824 0.000827255 1e-05
0.0265013 0.00082188 1e-05
0.026545 0.00082114 1e-05
0.0265886 0.000820399 1e-05
0.0266323 0.000819658 1e-05
0.0266759 0.000818916 1e-05
0.0267196 0.000818173 1e-05
0.0271085 0.000811556 1e-05
0.0274973 0.000804887 1e-05
0.0278862 0.000798171 1e-05
0.0282751 0.000791409 1e-05
0.028664 0.000784598 1e-05
0.0290572 0.000777725 1e-05
0.0294505 0.000770761 1e-05
0.0298437 0.00076375 1e-05
0.0302369 0.000756692 1e-05
0.0306301 0.000749586 1e-05
0.0310278 0.000742456 1e-05
0.0314254 0.000735203 1e-05
0.031823 0.0007279 1e-05
0.0322206 0.000720548 1e-05
0.0326182 0.000713146 1e-05
0.0330203 0.000705744 1e-05
0.0334223 0.000698192 1e-05
0.0338244 0.000690585 1e-05
0.0342264 0.000682923 1e-05
0.0346285 0.000675205 1e-05
0.035035 0.000667502 1e-05
0.0354416 0.000659623 1e-05
0.0358481 0.000651682 1e-05
0.0362546 0.000643677 1e-05
0.0366612 0.000635621 1e-05
0.0370722 0.000627574 1e-05
0.0374833 0.000619345 1e-05
0.0378944 0.000611023 1e-05
0.0383055 0.000602627 1e-05
0.0387166 0.000594202 1e-05
0.0391322 0.000585754 1e-05
0.0395479 0.000577122 1e-05
0.0399635 0.000568358 1e-05
0.0403792 0.000559508 1e-05
0.0407949 0.000550644 1e-05
0.0412152 0.000541725 1e-05
0.0416355 0.000532616 1e-05
0.0420558 0.000523338 1e-05
0.042476 0.000513958 1e-05
0.0428964 0.000504575 1e-05
0.0433214 0.000495106 1e-05
0.0437463 0.000485436 1e-05
0.0441713 0.000475564 1e-05
0.0445963 0.000465581 1e-05
0.0450213 0.000455589 1e-05
0.0454511 0.000445478 1e-05
0.0458808 0.000435154 1e-05
0.0463105 0.000424617 1e-05
0.0467402 0.000413953 1e-05
0.04717 0.000403255 1e-05
0.0476045 0.000392403 1e-05
0.048039 0.000381324 1e-05
0.0484736 0.000370018 1e-05
0.0489081 0.000358571 1e-05
0.0493426 0.000347061 1e-05
0.049782 0.000335361 1e-05
0.0502214 0.000323419 1e-05
0.0506607 0.000311237 1e-05
0.0511001 0.000298903 1e-05
0.0515395 0.000286471 1e-05
0.0519838 0.000273809 1e-05
0.0524281 0.000260889 1e-05
0.0528723 0.000247742 1e-05
0.0533166 0.000234421 1e-05
0.0537609 0.000220947 1e-05
0.0542102 0.000207204 1e-05
0.0546594 0.000193185 1e-05
0.0551086 0.000178949 1e-05
0.0555578 0.000164514 1e-05
0.0560071 0.000149877 1e-05
0.0564614 0.000134927 1e-05
0.0569156 0.000119694 1e-05
0.0573698 0.000104239 1e-05
0.0578241 8.8559e-05 1e-05
0.0582784 7.26517e-05 1e-05
0.0586881 5.81214e-05 1e-05
0.0590978 4.33701e-05 1e-05
0.0595075 2.8421e-05 1e-05
0.0599172 1.32735e-05 1e-05
0.0602716 0 1e-05
0.0603323 -2.29843e-06 1e-05
0.0603929 -4.60115e-06 1e-05
0.0604536 -6.90816e-06 1e-05
0.0605143 -9.21945e-06 1e-05
0.060575 -1.15351e-05 1e-05
0.0610394 -2.92886e-05 1e-05
0.0615038 -4.73138e-05 1e-05
0.0619683 -6.56073e-05 1e-05
0.0624327 -8.41699e-05 1e-05
0.0628972 -0.000103007 1e-05
0.0633668 -0.000122288 1e-05
0.0638364 -0.000141895 1e-05
0.064306 -0.000161796 1e-05
0.0647756 -0.000181991 1e-05
0.0652453 -0.000202488 1e-05
0.0657202 -0.000223444 1e-05
0.0661951 -0.000244771 1e-05
0.0666699 -0.000266423 1e-05
0.0671447 -0.000288396 1e-05
0.0676197 -0.000310674 1e-05
0.0680998 -0.000333456 1e-05
0.06858 -0.000356629 1e-05
0.0690601 -0.000380182 1e-05
0.0695402 -0.000404082 1e-05
0.0700205 -0.000428288 1e-05
0.070506 -0.000453052 1e-05
0.0709916 -0.000478229 1e-05
0.071477 -0.000503821 1e-05
0.0719625 -0.00052978 1e-05
0.0724481 -0.000556072 1e-05
0.0729391 -0.00058298 1e-05
0.07343 -0.000610323 1e-05
0.0739209 -0.000638104 1e-05
0.0744118 -0.000666272 1e-05
0.0749029 -0.000694815 1e-05
0.0753993 -0.000724032 1e-05
0.0758957 -0.000753709 1e-05
0.0763921 -0.00078382 1e-05
0.0768884 -0.000814348 1e-05
0.077385 -0.00084531 1e-05
0.0778869 -0.000877008 1e-05
0.0783889 -0.000909182 1e-05
0.0788908 -0.0009418 1e-05
0.0793927 -0.000974866 1e-05
0.0798948 -0.0010084 1e-05
0.0799389 -0.00101139 1e-05
0.0799831 -0.00101438 1e-05
0.0800272 -0.00101738 1e-05
0.0800713 -0.00102037 1e-05
0.0801149 -0.00102334 1e-05
0.0805785 -0.00105491 1e-05
0.081042 -0.00108686 1e-05
0.0815055 -0.00111921 1e-05
0.0819689 -0.00115195 1e-05
0.0824326 -0.00118511 1e-05
0.0829458 -0.00122221 1e-05
0.083459 -0.00125984 1e-05
0.0839722 -0.00129797 1e-05
0.0844853 -0.00133661 1e-05
0.0849987 -0.00137575 1e-05
0.0855177 -0.00141576 1e-05
0.0860366 -0.00145635 1e-05
0.0865555 -0.0014975 1e-05
0.0870743 -0.00153918 1e-05
0.0875935 -0.00158137 1e-05
0.0881183 -0.0016245 1e-05
0.088643 -0.00166822 1e-05
0.0891676 -0.00171255 1e-05
0.0896922 -0.00175743 1e-05
0.0902172 -0.00180286 1e-05
0.0907478 -0.0018493 1e-05
0.0912784 -0.00189637 1e-05
0.0918089 -0.00194403 1e-05
0.0923393 -0.00199227 1e-05
0.0928702 -0.00204114 1e-05
0.0930795 -0.00206063 1e-05
0.0932887 -0.00208021 1e-05
0.093498 -0.00209989 1e-05
0.0937072 -0.00211967 1e-05
0.0939064 -0.00213858 1e-05
0.0942357 -0.00216999 1e-05
0.094565 -0.00220162 1e-05
0.0948942 -0.00223348 1e-05
0.0952234 -0.00226557 1e-05
0.0955528 -0.00229791 1e-05
0.0960954 -0.00235151 1e-05
0.0966378 -0.00240577 1e-05
0.0971802 -0.00246067 1e-05
0.0977225 -0.0025162 1e-05
0.0982654 -0.00257241 1e-05
0.098814 -0.00262979 1e-05
0.0993624 -0.00268788 1e-05
0.0999109 -0.00274668 1e-05
0.100459 -0.00280613 1e-05
0.101008 -0.00286628 1e-05
0.101563 -0.00292768 1e-05
0.102117 -0.00298982 1e-05
0.102672 -0.00305268 1e-05
0.103226 -0.00311622 1e-05
0.103782 -0.00318054 1e-05
0.104078 -0.00321523 1e-05
0.104374 -0.00325013 1e-05
0.10467 -0.00328523 1e-05
0.104967 -0.00332054 1e-05
0.105245 -0.00335397 1e-05
0.105514 -0.00338629 1e-05
0.105782 -0.00341876 1e-05
0.10605 -0.00345141 1e-05
0.106318 -0.00348421 1e-05
0.106586 -0.0035172 1e-05
0.107153 -0.00358728 1e-05
0.10772 -0.00365812 1e-05
0.108287 -0.00372969 1e-05
0.108854 -0.00380202 1e-05
0.109422 -0.00387517 1e-05
0.109995 -0.00394976 1e-05
0.110568 -0.00402517 1e-05
0.111142 -0.0041014 1e-05
0.111715 -0.00417841 1e-05
0.112289 -0.00425627 1e-05
[...]
POINT_DATA 6430
 FIELD attributes 1
U 3 6430 float
6.81885 	0.0266707 	0 6.80787 	0.026517 	0 6.79689 	0.0263632 	0 6.78591 	0.0262095 	0 6.77493 	0.0260558 	0 6.76395 	0.0259021 	0 6.8948 	0.027224 	0 6.8991 	0.0270748 	0 6.89463 	0.0268236 	0 6.87861 	0.0264403 	0 6.74117 	0.0246684 	0 6.8721 	0.0258881 	0 6.88176 	0.0257956 	0 6.87751 	0.0255525 	0 6.8569 	0.025135 	0 6.71954 	0.0234745 	0 6.85021 	0.0246184 	0 6.86482 	0.0245748 	0 6.86079 	0.0243404 	0 6.83593 	0.0238957 	0 6.69903 	0.02232 	0 6.82913 	0.0234065 	0 6.84829 	0.0234058 	0 6.84447 	0.0231798 	0 6.81572 	0.0227121 	0 6.67956 	0.0212018 	0 6.80886 	0.022243 	0 6.83216 	0.0222799 	0 6.82853 	0.0220615 	0 6.79627 	0.021573 	0 6.66111 	0.0201138 	0 6.78939 	0.0211176 	0 6.81643 	0.0211868 	0 6.813 	0.0209746 	0 6.77757 	0.0204665 	0 6.64362 	0.0190476 	0 6.77071 	0.0200178 	0 6.80112 	0.020114 	0 6.79788 	0.0199061 	0 6.75962 	0.0193789 	0 6.62709 	0.0179924 	0 6.75283 	0.0189305 	0 6.78623 	0.0190478 	0 6.78318 	0.018841 	0 6.74244 	0.0182939 	0 6.61147 	0.0169317 	0 6.73573 	0.0178348 	0 6.77179 	0.0179677 	0 6.76892 	0.0177607 	0 6.72604 	0.0171955 	0 6.59677 	0.015857 	0 6.71946 	0.0167285 	0 6.75782 	0.0168689 	0 6.75513 	0.0166532 	0 6.71041 	0.01606 	0 6.58295 	0.0147234 	0 6.70395 	0.0155347 	0 6.74432 	0.0156773 	0 6.74186 	0.0154648 	0 6.69569 	0.0148716 	0 6.57023 	0.013588 	0 6.68952 	0.0144393 	0 6.73149 	0.0146297 	0 6.7291 	0.0144409 	0 6.68159 	0.0138125 	0 6.55801 	0.0124427 	0 6.67565 	0.0129949 	0 6.71937 	0.0129435 	0 6.71764 	0.0125208 	0 6.66971 	0.0117793 	0 6.54868 	0.0105331 	0 6.66507 	0.0122181 	0 6.70899 	0.0107108 	0 6.70555 	0.00712091 	0 6.65468 	0.00252849 	0 6.53264 	-0.00356764 	0 6.64611 	-0.000426814 	0 6.68618 	-0.00186203 	0 6.67717 	-0.00634991 	0 6.62134 	-0.0124485 	0 6.49488 	-0.0209765 	0 6.60659 	-0.0111044 	0 6.6421 	-0.00834525 	0 6.62966 	-0.0100522 	0 6.57274 	-0.0156926 	0 6.44299 	-0.0277676 	0 6.55582 	-0.0154991 	0 6.58779 	-0.0116211 	0 6.57358 	-0.0125236 	0 6.51715 	-0.0181426 	0 6.38357 	-0.0323623 	0 6.49661 	-0.0204776 	0 6.52374 	-0.0170566 	0 6.50753 	-0.017895 	0 6.45253 	-0.0230372 	0 6.31559 	-0.0372494 	0 6.42717 	-0.026842 	0 6.44813 	-0.0244123 	0 6.43051 	-0.0253712 	0 6.37928 	-0.0296731 	0 6.2411 	-0.042614 	0 6.34904 	-0.0342702 	0 6.36238 	-0.0330487 	0 6.34406 	-0.0342058 	0 6.29937 	-0.0375683 	0 6.16286 	-0.0486136 	0 6.26427 	-0.0425024 	0 6.26838 	-0.0424135 	0 6.24973 	-0.0437299 	0 6.21392 	-0.046197 	0 6.08225 	-0.0551042 	0 6.17412 	-0.0510455 	0 6.16787 	-0.0518061 	0 6.14907 	-0.0531809 	0 6.1236 	-0.0548995 	0 5.9999 	-0.0617217 	0 6.07974 	-0.0593767 	0 6.06305 	-0.0606281 	0 6.04425 	-0.0619573 	0 6.02526 	-0.0632922 	0 5.91635 	-0.0680976 	0 5.97503 	-0.067303 	0 5.95654 	-0.068499 	0 5.93788 	-0.0696998 	0 5.91905 	-0.0709052 	0 5.83221 	-0.0739355 	0 5.86925 	-0.0741989 	0 5.85105 	-0.07522 	0 5.83271 	-0.0762448 	0 5.81422 	-0.0772733 	0 5.74829 	-0.0790511 	0 5.7668 	-0.0799084 	0 5.74908 	-0.0807441 	0 5.73124 	-0.0815827 	0 5.71327 	-0.082424 	0 5.66555 	-0.0833892 	0 5.66965 	-0.0844751 	0 5.65259 	-0.0851432 	0 5.63544 	-0.0858134 	0 5.61818 	-0.0864856 	0 5.58508 	-0.087002 	0 5.57915 	-0.0880341 	0 5.56292 	-0.088569 	0 5.54662 	-0.0891054 	0 5.53022 	-0.0896433 	0 5.50794 	-0.0900145 	0 5.49757 	-0.0907356 	0 5.48382 	-0.0911356 	0 5.47001 	-0.0915365 	0 5.45615 	-0.0919383 	0 5.44333 	-0.092309 	0 5.44153 	-0.0923605 	0 5.43974 	-0.092412 	0 5.43794 	-0.0924635 	0 5.43614 	-0.092515 	0 5.43446 	-0.0924707 	0 5.42017 	-0.0929465 	0 5.40562 	-0.0933473 	0 5.391 	-0.0937489 	0 5.37631 	-0.0941514 	0 5.36252 	-0.0937341 	0 5.35096 	-0.0947698 	0 5.33743 	-0.0951638 	0 5.32384 	-0.0955584 	0 5.31019 	-0.0959537 	0 5.29797 	-0.0950042 	0 5.289 	-0.0964801 	0 5.27646 	-0.0969057 	0 5.26385 	-0.0973318 	0 5.25118 	-0.0977583 	0 5.24026 	-0.0964739 	0 5.2337 	-0.0983125 	0 5.22206 	-0.0988039 	0 5.21035 	-0.0992957 	0 5.19857 	-0.0997877 	0 5.18867 	-0.0983124 	0 5.18435 	-0.100477 	0 5.1735 	-0.101064 	0 5.16257 	-0.101652 	0 5.15171 	-0.102079 	0 5.14242 	-0.100668 	0 5.13897 	-0.102867 	0 5.13005 	-0.103862 	0 5.11978 	-0.104571 	0 5.10984 	-0.104722 	0 5.10076 	-0.103671 	0 5.09768 	-0.105866 	0 5.09099 	-0.107338 	0 5.08125 	-0.108192 	0 5.07189 	-0.108153 	0 5.06289 	-0.107429 	0 5.06011 	-0.109671 	0 5.05555 	-0.111599 	0 5.04621 	-0.112617 	0 5.0371 	-0.112448 	0 5.02806 	-0.112029 	0 5.02549 	-0.11435 	0 5.02272 	-0.116669 	0 5.01397 	-0.117787 	0 5.00479 	-0.117662 	0 4.9956 	-0.117536 	0 4.99315 	-0.119957 	0 4.99049 	-0.122375 	0 4.98372 	-0.123669 	0 4.97432 	-0.123831 	0 4.96489 	-0.123992 	0 4.96245 	-0.126524 	0 4.9598 	-0.129054 	0 4.95477 	-0.130532 	0 4.94507 	-0.130976 	0 4.93532 	-0.131419 	0 4.93278 	-0.134071 	0 4.93 	-0.136688 	0 4.92584 	-0.138284 	0 4.91645 	-0.139106 	0 4.9063 	-0.139826 	0 4.90357 	-0.142601 	0 4.90003 	-0.145 	0 4.89537 	-0.146795 	0 4.88792 	-0.148217 	0 4.87731 	-0.149208 	0 4.87428 	-0.152108 	0 4.86965 	-0.15432 	0 4.86439 	-0.156311 	0 4.85897 	-0.158299 	0 4.84782 	-0.159551 	0 4.84405 	-0.162442 	0 4.83831 	-0.164628 	0 4.83239 	-0.166812 	0 4.82629 	-0.168991 	0 4.81733 	-0.170838 	0 4.81269 	-0.173272 	0 4.80695 	-0.175389 	0 4.80104 	-0.177502 	0 4.79497 	-0.179613 	0 4.78959 	-0.181435 	0 4.78901 	-0.181752 	0 4.78842 	-0.182069 	0 4.78784 	-0.182385 	0 4.78725 	-0.182702 	0 4.78648 	-0.182964 	0 4.78253 	-0.185615 	0 4.77803 	-0.188205 	0 4.77337 	-0.190792 	0 4.76853 	-0.193374 	0 4.76181 	-0.195507 	0 4.76026 	-0.198744 	0 4.75507 	-0.201508 	0 4.7497 	-0.204268 	0 4.74415 	-0.207023 	0 4.7348 	-0.208949 	0 4.73527 	-0.212672 	0 4.72997 	-0.21568 	0 4.72384 	-0.218603 	0 4.71593 	-0.221199 	0 4.70512 	-0.223239 	0 4.70479 	-0.227067 	0 4.70244 	-0.230673 	0 4.6955 	-0.233747 	0 4.68437 	-0.236088 	0 4.67248 	-0.238319 	0 4.67128 	-0.242244 	0 4.66984 	-0.246162 	0 4.66241 	-0.249314 	0 4.64959 	-0.251719 	0 4.63658 	-0.25412 	0 4.63445 	-0.258132 	0 4.63206 	-0.262138 	0 4.62446 	-0.265372 	0 4.61133 	-0.268017 	0 4.59715 	-0.270567 	0 4.59402 	-0.274655 	0 4.5875 	-0.278287 	0 4.57861 	-0.281606 	0 4.56933 	-0.284901 	0 4.55395 	-0.28758 	0 4.54841 	-0.291548 	0 4.53851 	-0.294953 	0 4.52835 	-0.29835 	0 4.51793 	-0.301738 	0 4.50672 	-0.305067 	0 4.50612 	-0.305414 	0 4.50517 	-0.305716 	0 4.50421 	-0.306018 	0 4.50325 	-0.306319 	0 4.50231 	-0.306617 	0 4.49371 	-0.309821 	0 4.48491 	-0.313017 	0 4.47591 	-0.316206 	0 4.46669 	-0.319389 	0 4.45712 	-0.32217 	0 4.44835 	-0.326202 	0 4.43756 	-0.329747 	0 4.4265 	-0.333284 	0 4.41501 	-0.336594 	0 4.40294 	-0.339484 	0 4.39328 	-0.343593 	0 4.38316 	-0.347652 	0 4.37072 	-0.351142 	0 4.35733 	-0.354059 	0 4.34368 	-0.35697 	0 4.3328 	-0.361063 	0 4.32161 	-0.365144 	0 4.30919 	-0.368641 	0 4.29446 	-0.371613 	0 4.2792 	-0.374519 	0 4.26703 	-0.378574 	0 4.2536 	-0.38214 	0 4.23957 	-0.385538 	0 4.22525 	-0.388924 	0 4.20934 	-0.392021 	0 4.20402 	-0.393558 	0 4.19812 	-0.394865 	0 4.19217 	-0.39617 	0 4.18618 	-0.397473 	0 4.18043 	-0.398712 	0 4.17216 	-0.400813 	0 4.16379 	-0.40291 	0 4.15531 	-0.405002 	0 4.14673 	-0.40709 	0 4.13785 	-0.408844 	0 4.12477 	-0.412634 	0 4.11007 	-0.415985 	0 4.09508 	-0.419325 	0 4.07954 	-0.422371 	0 4.06338 	-0.425063 	0 4.04917 	-0.428823 	0 4.03464 	-0.432569 	0 4.01834 	-0.435713 	0 4.00067 	-0.43829 	0 3.98271 	-0.440859 	0 3.96705 	-0.444482 	0 3.95063 	-0.447827 	0 3.93323 	-0.450762 	0 3.91553 	-0.453682 	0 3.89576 	-0.456113 	0 3.88668 	-0.45794 	0 3.87686 	-0.459427 	0 3.86691 	-0.460888 	0 3.85686 	-0.462344 	0 3.84732 	-0.463712 	0 3.83926 	-0.465095 	0 3.83114 	-0.466475 	0 3.82295 	-0.467852 	0 3.81469 	-0.469219 	0 3.80616 	-0.470281 	0 3.78954 	-0.473435 	0 3.77153 	-0.476152 	0 3.75321 	-0.478856 	0 3.73425 	-0.481181 	0 3.71466 	-0.483187 	0 3.69674 	-0.486203 	0 3.67848 	-0.489201 	0 3.65898 	-0.491611 	0 3.63779 	-0.493375 	0 3.61628 	-0.495128 	0 3.59676 	-0.497894 	0 3.57605 	-0.500079 	0 3.55477 	-0.502082 	0 3.53316 	-0.504068 	0 3.51105 	-0.505994 	0 3.5102 	-0.506093 	0 3.50931 	-0.506168 	0 3.50842 	-0.506237 	0 3.50752 	-0.506306 	0 3.50662 	-0.506375 	0 3.48765 	-0.508245 	0 3.4684 	-0.510101 	0 3.44889 	-0.511944 	0 3.42902 	-0.51367 	0 3.40841 	-0.514781 	0 3.38821 	-0.51694 	0 3.36769 	-0.519081 	0 3.34555 	-0.520515 	0 3.32249 	-0.521337 	0 3.2991 	-0.522146 	0 3.27728 	-0.523975 	0 3.25465 	-0.525378 	0 3.23125 	-0.526364 	0 3.20753 	-0.527332 	0 3.18283 	-0.528042 	0 3.17866 	-0.528303 	0 3.17435 	-0.528459 	0 3.16996 	-0.52857 	0 3.16557 	-0.528682 	0 3.16124 	-0.52879 	0 3.14322 	-0.529531 	0 3.12501 	-0.530262 	0 3.1066 	-0.530981 	0 3.08793 	-0.531534 	0 3.06879 	-0.531549 	0 3.04652 	-0.532618 	0 3.02393 	-0.533667 	0 2.99991 	-0.533947 	0 2.97519 	-0.533559 	0 2.95013 	-0.533154 	0 2.92628 	-0.533829 	0 2.90171 	-0.533966 	0 2.87653 	-0.533696 	0 2.85106 	-0.533406 	0 2.82498 	-0.53299 	0 2.8233 	-0.533007 	0 2.82158 	-0.532986 	0 2.81984 	-0.532941 	0 2.8181 	-0.532896 	0 2.81636 	-0.532852 	0 2.79465 	-0.532529 	0 2.7727 	-0.532192 	0 2.75052 	-0.53184 	0 2.72808 	-0.531214 	0 2.70532 	-0.529946 	0 2.68149 	-0.529744 	0 2.65735 	-0.52952 	0 2.63246 	-0.528514 	0 2.60674 	-0.526712 	0 2.5807 	-0.524889 	0 2.56046 	-0.524382 	0 2.53987 	-0.523357 	0 2.51901 	-0.522014 	0 2.49798 	-0.520657 	0 2.47803 	-0.519369 	0 2.47311 	-0.519086 	0 2.46818 	-0.518802 	0 2.46324 	-0.518517 	0 2.45833 	-0.518161 	0 2.45347 	-0.517658 	0 2.42994 	-0.516287 	0 2.40584 	-0.514547 	0 2.3815 	-0.51279 	0 2.35719 	-0.510354 	0 2.33276 	-0.50749 	0 2.3083 	-0.505936 	0 2.28357 	-0.50436 	0 2.25889 	-0.501672 	0 2.23377 	-0.498747 	0 2.20797 	-0.495427 	0 2.1972 	-0.494598 	0 2.18645 	-0.493496 	0 2.17569 	-0.492194 	0 2.1649 	-0.490888 	0 2.15435 	-0.489614 	0 2.14116 	-0.488028 	0 2.1279 	-0.486438 	0 2.11457 	-0.484844 	0 2.10143 	-0.483007 	0 2.08867 	-0.48073 	0 2.06579 	-0.478276 	0 2.04262 	-0.475642 	0 2.0192 	-0.472335 	0 1.99654 	-0.468037 	0 1.97374 	-0.463721 	0 1.95013 	-0.460897 	0 1.92689 	-0.457398 	0 1.90393 	-0.453366 	0 1.88086 	-0.449323 	0 1.8576 	-0.445225 	0 1.85721 	-0.445175 	0 1.85683 	-0.445114 	0 1.85646 	-0.445044 	0 1.85608 	-0.444975 	0 1.85571 	-0.444905 	0 1.83575 	-0.441033 	0 1.81572 	-0.437154 	0 1.79562 	-0.433268 	0 1.77614 	-0.42895 	0 1.75788 	-0.423841 	0 1.73737 	-0.420312 	0 1.71674 	-0.41677 	0 1.69733 	-0.412323 	0 1.67848 	-0.406865 	0 1.65967 	-0.401408 	0 1.64585 	-0.398873 	0 1.63275 	-0.395832 	0 1.6201 	-0.392481 	0 1.60747 	-0.389132 	0 1.59494 	-0.385807 	0 1.58969 	-0.384303 	0 1.58445 	-0.382801 	0 1.57922 	-0.381299 	0 1.57428 	-0.37967 	0 1.57002 	-0.377742 	0 1.55379 	-0.373682 	0 1.53799 	-0.368938 	0 1.52226 	-0.364201 	0 1.50866 	-0.358541 	0 1.49605 	-0.35256 	0 1.48044 	-0.348504 	0 1.46492 	-0.344428 	0 1.45208 	-0.339124 	0 1.4396 	-0.33351 	0 1.4276 	-0.327485 	0 1.41954 	-0.325251 	0 1.41251 	-0.322538 	0 1.40592 	-0.319647 	0 1.3994 	-0.316765 	0 1.39277 	-0.313815 	0 1.38854 	-0.311613 	0 1.38435 	-0.309417 	0 1.38021 	-0.307227 	0 1.37639 	-0.304941 	0 1.37389 	-0.302192 	0 1.36419 	-0.298186 	0 1.35547 	-0.293315 	0 1.34701 	-0.288477 	0 1.34106 	-0.282809 	0 1.3365 	-0.276839 	0 1.3282 	-0.272982 	0 1.32008 	-0.269151 	0 1.31471 	-0.26436 	0 1.31091 	-0.258563 	0 1.3076 	-0.252777 	0 1.30079 	-0.249083 	0 1.29688 	-0.244375 	0 1.29355 	-0.239623 	0 1.29056 	-0.234927 	0 1.28798 	-0.23025 	0 1.28779 	-0.230121 	0 1.2877 	-0.229954 	0 1.28761 	-0.229786 	0 1.28751 	-0.229618 	0 1.28742 	-0.229449 	0 1.2866 	-0.225299 	0 1.28606 	-0.221197 	0 1.28583 	-0.217141 	0 1.2859 	-0.213133 	0 1.28807 	-0.209149 	0 1.28823 	-0.205443 	0 1.28886 	-0.201576 	0 1.28991 	-0.197623 	0 1.29268 	-0.19365 	0 1.29616 	-0.18973 	0 1.29774 	-0.186344 	0 1.29959 	-0.183003 	0 1.30272 	-0.179497 	0 1.3069 	-0.175741 	0 1.31137 	-0.172051 	0 1.31426 	-0.168973 	0 1.3179 	-0.165883 	0 1.32265 	-0.162747 	0 1.3277 	-0.159538 	0 1.33304 	-0.156078 	0 1.33719 	-0.153275 	0 1.34262 	-0.150363 	0 1.34831 	-0.147493 	0 1.35425 	-0.144663 	0 1.36039 	-0.141725 	0 1.36258 	-0.140681 	0 1.36505 	-0.139598 	0 1.36755 	-0.138521 	0 1.3701 	-0.13745 	0 1.37292 	-0.136284 	0 1.3772 	-0.134811 	0 1.38155 	-0.133349 	0 1.38598 	-0.131899 	0 1.39047 	-0.13046 	0 1.39211 	-0.129271 	0 1.40277 	-0.12681 	0 1.4104 	-0.124481 	0 1.41822 	-0.122183 	0 1.42622 	-0.119914 	0 1.42665 	-0.118252 	0 1.44268 	-0.115873 	0 1.45116 	-0.113729 	0 1.45942 	-0.111621 	0 1.46485 	-0.109742 	0 1.46402 	-0.108319 	0 1.48071 	-0.106144 	0 1.49424 	-0.104072 	0 1.50284 	-0.102138 	0 1.50434 	-0.100676 	0 1.50359 	-0.0993752 	0 1.52085 	-0.097385 	0 1.53831 	-0.095421 	0 1.54644 	-0.0937168 	0 1.54562 	-0.0925174 	0 1.54486 	-0.0913284 	0 1.5626 	-0.089506 	0 1.58053 	-0.0877064 	0 1.58909 	-0.0862709 	0 1.5882 	-0.0851768 	0 1.58738 	-0.0840915 	0 1.60554 	-0.0824216 	0 1.62386 	-0.0807716 	0 1.63274 	-0.0795738 	0 1.63173 	-0.0785772 	0 1.63078 	-0.077588 	0 1.64931 	-0.0760571 	0 1.66623 	-0.0746206 	0 1.67462 	-0.0735834 	0 1.6759 	-0.0726457 	0 1.67477 	-0.0717461 	0 1.69362 	-0.0703423 	0 1.70778 	-0.0691494 	0 1.71623 	-0.0682054 	0 1.72046 	-0.0673186 	0 1.71912 	-0.0665028 	0 1.73825 	-0.0652161 	0 1.74974 	-0.0642331 	0 1.75822 	-0.0633749 	0 1.76523 	-0.0625403 	0 1.76366 	-0.0618039 	0 1.78305 	-0.0606259 	0 1.79194 	-0.0598246 	0 1.80044 	-0.0590461 	0 1.80901 	-0.0582738 	0 1.80826 	-0.0576022 	0 1.82583 	-0.0565916 	0 1.83427 	-0.0558828 	0 1.84276 	-0.0551795 	0 1.85132 	-0.0544816 	0 1.85284 	-0.0538591 	0 1.8682 	-0.0530124 	0 1.87664 	-0.0523766 	0 1.88514 	-0.0517454 	0 1.89369 	-0.051119 	0 1.89738 	-0.0505459 	0 1.91062 	-0.0498486 	0 1.91906 	-0.0492867 	0 1.92755 	-0.0487289 	0 1.93608 	-0.0481751 	0 1.94187 	-0.0476547 	0 1.95307 	-0.0470987 	0 1.96157 	-0.0466138 	0 1.9701 	-0.0461322 	0 1.97868 	-0.0456541 	0 1.98655 	-0.0451878 	0 1.99044 	-0.0450265 	0 1.99359 	-0.0448828 	0 1.99674 	-0.0447395 	0 1.9999 	-0.0445966 	0 2.00322 	-0.0444467 	0 2.00866 	-0.044217 	0 2.01411 	-0.0439884 	0 2.01957 	-0.0437607 	0 2.02504 	-0.043534 	0 1.99982 	-0.0431045 	0 2.0395 	-0.0430676 	0 2.04858 	-0.0428288 	0 2.05768 	-0.0425919 	0 2.06681 	-0.042357 	0 1.99485 	-0.0416081 	0 2.0848 	-0.0420727 	0 2.09314 	-0.042051 	0 2.1015 	-0.0420301 	0 2.10987 	-0.04201 	0 1.984 	-0.0411402 	0 2.12715 	-0.0425133 	0 2.13876 	-0.0434897 	0 2.15033 	-0.0444622 	0 2.16186 	-0.0454308 	0 1.98381 	-0.0451972 	0 2.19047 	-0.0480241 	0 2.19779 	-0.0488701 	0 2.20508 	-0.0497132 	0 2.21234 	-0.0505535 	0 2.10016 	-0.0507215 	0