# vtk DataFile Version 2.0
track0
ASCII
DATASET POLYDATA
POINTS 6430 float
-0.0205 0.001 1e-05
-0.0204727 0.00100011 1e-05
-0.0204454 0.00100021 1e-05
-0.0204181 0.00100032 1e-05
-0.0203908 0.00100042 1e-05
-0.0203635 0.00100053 1e-05
-0.0200299 0.00100181 1e-05
-0.0196963 0.00100312 1e-05
-0.0193627 0.00100443 1e-05
-0.0190291 0.00100573 1e-05
-0.0186954 0.00100701 1e-05
-0.018369 0.00100821 1e-05
-0.0180425 0.00100944 1e-05
-0.017716 0.00101066 1e-05
-0.0173896 0.00101187 1e-05
-0.0170631 0.00101307 1e-05
-0.0167436 0.00101419 1e-05
-0.0164242 0.00101534 1e-05
-0.0161047 0.00101648 1e-05
-0.0157852 0.00101761 1e-05
-0.0154657 0.00101873 1e-05
-0.0151531 0.00101977 1e-05
-0.0148405 0.00102084 1e-05
-0.0145279 0.00102191 1e-05
-0.0142152 0.00102297 1e-05
-0.0139026 0.00102401 1e-05
-0.0135967 0.00102498 1e-05
-0.0132908 0.00102598 1e-05
-0.0129848 0.00102698 1e-05
-0.0126789 0.00102797 1e-05
-0.012373 0.00102894 1e-05
-0.0120736 0.00102984 1e-05
-0.0117742 0.00103077 1e-05
-0.0114749 0.0010317 1e-05
-0.0111755 0.00103263 1e-05
-0.0108761 0.00103353 1e-05
-0.0105832 0.00103437 1e-05
-0.0102902 0.00103524 1e-05
-0.00999724 0.0010361 1e-05
-0.00970429 0.00103696 1e-05
-0.00941133 0.0010378 1e-05
-0.00912465 0.00103858 1e-05
-0.00883797 0.00103938 1e-05
-0.00855129 0.00104019 1e-05
-0.00826461 0.00104098 1e-05
-0.00797793 0.00104176 1e-05
-0.00769739 0.00104248 1e-05
-0.00741686 0.00104322 1e-05
-0.00713632 0.00104397 1e-05
-0.00685578 0.0010447 1e-05
-0.00657525 0.00104542 1e-05
-0.00630072 0.00104608 1e-05
-0.0060262 0.00104676 1e-05
-0.00575167 0.00104745 1e-05
-0.00547714 0.00104813 1e-05
-0.00520262 0.00104878 1e-05
-0.00493398 0.00104938 1e-05
-0.00466533 0.00105001 1e-05
-0.00439669 0.00105063 1e-05
-0.00412805 0.00105125 1e-05
-0.0038594 0.00105184 1e-05
-0.00359652 0.00105239 1e-05
-0.00333363 0.00105295 1e-05
-0.00307074 0.00105353 1e-05
-0.00280786 0.00105409 1e-05
-0.00254497 0.00105463 1e-05
-0.00228772 0.00105512 1e-05
-0.00203046 0.00105562 1e-05
-0.00177321 0.00105612 1e-05
-0.00151596 0.0010566 1e-05
-0.0012587 0.00105705 1e-05
-0.00100696 0.00105746 1e-05
-0.000755223 0.00105792 1e-05
-0.000503482 0.00105832 1e-05
-0.000251741 0.00105859 1e-05
0 0.00105868 1e-05
0.000329256 0.0010585 1e-05
0.000658511 0.00105848 1e-05
0.000987767 0.00105839 1e-05
0.00131702 0.00105808 1e-05
0.00164628 0.00105746 1e-05
0.00197921 0.00105638 1e-05
0.00231214 0.00105582 1e-05
0.00264507 0.00105541 1e-05
0.002978 0.0010549 1e-05
0.00331093 0.00105411 1e-05
0.00364757 0.00105265 1e-05
0.00398422 0.00105186 1e-05
0.00432087 0.00105127 1e-05
0.00465751 0.00105062 1e-05
0.00499415 0.00104969 1e-05
0.00533455 0.00104796 1e-05
0.00567496 0.00104689 1e-05
0.00601536 0.001046 1e-05
0.00635577 0.00104506 1e-05
0.00669616 0.00104385 1e-05
0.00704036 0.00104182 1e-05
0.00738456 0.00104038 1e-05
0.00772877 0.00103908 1e-05
0.00807297 0.00103772 1e-05
0.00841716 0.00103612 1e-05
0.0087652 0.00103374 1e-05
0.00911324 0.00103186 1e-05
0.00946129 0.00103005 1e-05
0.00980933 0.00102818 1e-05
0.0101574 0.0010261 1e-05
0.0105093 0.00102333 1e-05
0.0108612 0.00102094 1e-05
0.0112131 0.00101856 1e-05
0.0115651 0.00101609 1e-05
0.011917 0.00101348 1e-05
0.0122728 0.00101025 1e-05
0.0126287 0.00100731 1e-05
0.0129845 0.00100432 1e-05
0.0133404 0.00100125 1e-05
0.0136962 0.000998055 1e-05
0.0140561 0.000994353 1e-05
0.0144159 0.000990839 1e-05
0.0147757 0.000987241 1e-05
0.0151355 0.000983553 1e-05
0.0154954 0.000979773 1e-05
0.0158592 0.000975585 1e-05
0.016223 0.000971487 1e-05
0.0165869 0.000967303 1e-05
0.0169507 0.000963032 1e-05
0.0173145 0.000958674 1e-05
0.0176824 0.00095401 1e-05
0.0180503 0.000949359 1e-05
0.0184182 0.000944629 1e-05
0.0187861 0.00093982 1e-05
0.019154 0.00093493 1e-05
0.019526 0.000929815 1e-05
0.019898 0.00092466 1e-05
0.02027 0.000919435 1e-05
0.020642 0.00091414 1e-05
0.0210141 0.000908773 1e-05
0.0213902 0.000903237 1e-05
0.0217664 0.000897632 1e-05
0.0221425 0.000891966 1e-05
0.0225187 0.000886238 1e-05
0.0228948 0.000880448 1e-05
0.0232752 0.000874523 1e-05
0.0236555 0.000868521 1e-05
0.0240359 0.000862466 1e-05
0.0244162 0.000856355 1e-05
0.0247966 0.00085019 1e-05
0.025143 0.000844528 1e-05
0.0254895 0.00083881 1e-05
0.0258359 0.000833052 1e-05
0.0261824 0.000827255 1e-05
0.0265013 0.00082188 1e-05
0.026545 0.00082114 1e-05
0.0265886 0.000820399 1e-05
0.0266323 0.000819658 1e-05
0.0266759 0.000818916 1e-05
0.0267196 0.000818173 1e-05
0.0271085 0.000811556 1e-05
0.0274973 0.000804887 1e-05
0.0278862 0.000798171 1e-05
0.0282751 0.000791409 1e-05
0.028664 0.000784598 1e-05
0.0290572 0.000777725 1e-05
0.0294505 0.000770761 1e-05
0.0298437 0.00076375 1e-05
0.0302369 0.000756692 1e-05
0.0306301 0.000749586 1e-05
0.0310278 0.000742456 1e-05
0.0314254 0.000735203 1e-05
0.031823 0.0007279 1e-05
0.0322206 0.000720548 1e-05
0.0326182 0.000713146 1e-05
0.0330203 0.000705744 1e-05
0.0334223 0.000698192 1e-05
0.0338244 0.000690585 1e-05
0.0342264 0.000682923 1e-05
0.0346285 0.000675205 1e-05
0.035035 0.000667502 1e-05
0.0354416 0.000659623 1e-05
0.0358481 0.000651682 1e-05
0.0362546 0.000643677 1e-05
0.0366612 0.000635621 1e-05
0.0370722 0.000627574 1e-05
0.0374833 0.000619345 1e-05
0.0378944 0.000611023 1e-05
0.0383055 0.000602627 1e-05
0.0387166 0.000594202 1e-05
0.0391322 0.000585754 1e-05
0.0395479 0.000577122 1e-05
0.0399635 0.000568358 1e-05
0.0403792 0.000559508 1e-05
0.0407949 0.000550644 1e-05
0.0412152 0.000541725 1e-05
0.0416355 0.000532616 1e-05
0.0420558 0.000523338 1e-05
0.042476 0.000513958 1e-05
0.0428964 0.000504575 1e-05
0.0433214 0.000495106 1e-05
0.0437463 0.000485436 1e-05
0.0441713 0.000475564 1e-05
0.0445963 0.000465581 1e-05
0.0450213 0.000455589 1e-05
0.0454511 0.000445478 1e-05
0.0458808 0.000435154 1e-05
0.0463105 0.000424617 1e-05
0.0467402 0.000413953 1e-05
0.04717 0.000403255 1e-05
0.0476045 0.000392403 1e-05
0.048039 0.000381324 1e-05
0.0484736 0.000370018 1e-05
0.0489081 0.000358571 1e-05
0.0493426 0.000347061 1e-05
0.049782 0.000335361 1e-05
0.0502214 0.000323419 1e-05
0.0506607 0.000311237 1e-05
0.0511001 0.000298903 1e-05
0.0515395 0.000286471 1e-05
0.0519838 0.000273809 1e-05
0.0524281 0.000260889 1e-05
0.0528723 0.000247742 1e-05
0.0533166 0.000234421 1e-05
0.0537609 0.000220947 1e-05
0.0542102 0.000207204 1e-05
0.0546594 0.000193185 1e-05
0.0551086 0.000178949 1e-05
0.0555578 0.000164514 1e-05
0.0560071 0.000149877 1e-05
0.0564614 0.000134927 1e-05
0.0569156 0.000119694 1e-05
0.0573698 0.000104239 1e-05
0.0578241 8.8559e-05 1e-05
0.0582784 7.26517e-05 1e-05
0.0586881 5.81214e-05 1e-05
0.0590978 4.33701e-05 1e-05
0.0595075 2.8421e-05 1e-05
0.0599172 1.32735e-05 1e-05
0.0602716 0 1e-05
0.0603323 -2.29843e-06 1e-05
0.0603929 -4.60115e-06 1e-05
0.0604536 -6.90816e-06 1e-05
0.0605143 -9.21945e-06 1e-05
0.060575 -1.15351e-05 1e-05
0.0610394 -2.92886e-05 1e-05
0.0615038 -4.73138e-05 1e-05
0.0619683 -6.56073e-05 1e-05
0.0624327 -8.41699e-05 1e-05
0.0628972 -0.000103007 1e-05
0.0633668 -0.000122288 1e-05
0.0638364 -0.000141895 1e-05
0.064306 -0.000161796 1e-05
0.0647756 -0.000181991 1e-05
0.0652453 -0.000202488 1e-05
0.0657202 -0.000223444 1e-05
0.0661951 -0.000244771 1e-05
0.0666699 -0.000266423 1e-05
0.0671447 -0.000288396 1e-05
0.0676197 -0.000310674 1e-05
0.0680998 -0.000333456 1e-05
0.06858 -0.000356629 1e-05
0.0690601 -0.000380182 1e-05
0.0695402 -0.000404082 1e-05
0.0700205 -0.000428288 1e-05
0.070506 -0.000453052 1e-05
0.0709916 -0.000478229 1e-05
0.071477 -0.000503821 1e-05
0.0719625 -0.00052978 1e-05
0.0724481 -0.000556072 1e-05
0.0729391 -0.00058298 1e-05
0.07343 -0.000610323 1e-05
0.0739209 -0.000638104 1e-05
0.0744118 -0.000666272 1e-05
0.0749029 -0.000694815 1e-05
0.0753993 -0.000724032 1e-05
0.0758957 -0.000753709 1e-05
0.0763921 -0.00078382 1e-05
0.0768884 -0.000814348 1e-05
0.077385 -0.00084531 1e-05
0.0778869 -0.000877008 1e-05
0.0783889 -0.000909182 1e-05
0.0788908 -0.0009418 1e-05
0.0793927 -0.000974866 1e-05
0.0798948 -0.0010084 1e-05
0.0799389 -0.00101139 1e-05
0.0799831 -0.00101438 1e-05
0.0800272 -0.00101738 1e-05
0.0800713 -0.00102037 1e-05
0.0801149 -0.00102334 1e-05
0.0805785 -0.00105491 1e-05
0.081042 -0.00108686 1e-05
0.0815055 -0.00111921 1e-05
0.0819689 -0.00115195 1e-05
0.0824326 -0.00118511 1e-05
0.0829458 -0.00122221 1e-05
0.083459 -0.00125984 1e-05
0.0839722 -0.00129797 1e-05
0.0844853 -0.00133661 1e-05
0.0849987 -0.00137575 1e-05
0.0855177 -0.00141576 1e-05
0.0860366 -0.00145635 1e-05
0.0865555 -0.0014975 1e-05
0.0870743 -0.00153918 1e-05
0.0875935 -0.00158137 1e-05
0.0881183 -0.0016245 1e-05
0.088643 -0.00166822 1e-05
0.0891676 -0.00171255 1e-05
0.0896922 -0.00175743 1e-05
0.0902172 -0.00180286 1e-05
0.0907478 -0.0018493 1e-05
0.0912784 -0.00189637 1e-05
0.0918089 -0.00194403 1e-05
0.0923393 -0.00199227 1e-05
0.0928702 -0.00204114 1e-05
0.0930795 -0.00206063 1e-05
0.0932887 -0.00208021 1e-05
0.093498 -0.00209989 1e-05
0.0937072 -0.00211967 1e-05
0.0939064 -0.00213858 1e-05
0.0942357 -0.00216999 1e-05
0.094565 -0.00220162 1e-05
0.0948942 -0.00223348 1e-05
0.0952234 -0.00226557 1e-05
0.0955528 -0.00229791 1e-05
0.0960954 -0.00235151 1e-05
0.0966378 -0.00240577 1e-05
0.0971802 -0.00246067 1e-05
0.0977225 -0.0025162 1e-05
0.0982654 -0.00257241 1e-05
0.098814 -0.00262979 1e-05
0.0993624 -0.00268788 1e-05
0.0999109 -0.00274668 1e-05
0.100459 -0.00280613 1e-05
0.101008 -0.00286628 1e-05
0.101563 -0.00292768 1e-05
0.102117 -0.00298982 1e-05
0.102672 -0.00305268 1e-05
0.103226 -0.00311622 1e-05
0.103782 -0.00318054 1e-05
0.104078 -0.00321523 1e-05
0.104374 -0.00325013 1e-05
0.10467 -0.00328523 1e-05
0.104967 -0.00332054 1e-05
0.105245 -0.00335397 1e-05
0.105514 -0.00338629 1e-05
0.105782 -0.00341876 1e-05
0.10605 -0.00345141 1e-05
0.106318 -0.00348421 1e-05
0.106586 -0.0035172 1e-05
0.107153 -0.00358728 1e-05
0.10772 -0.00365812 1e-05
0.108287 -0.00372969 1e-05
0.108854 -0.00380202 1e-05
0.109422 -0.00387517 1e-05
0.109995 -0.00394976 1e-05
0.110568 -0.00402517 1e-05
0.111142 -0.0041014 1e-05
0.111715 -0.00417841 1e-05
0.112289 -0.00425627 1e-05
[...]
POINT_DATA 6430
 FIELD attributes 2
p 1 6430 float
-9.94012 -9.94051 -9.94089 -9.94127 -9.94165 -9.94203 -9.94576 -9.94995 -9.95418 -9.95846 -9.96322 -9.96686 -9.97098 -9.97517 -9.97942 -9.98417 -9.98777 -9.99186 -9.99603 -10.0003 -10.005 -10.0086 -10.0127 -10.0169 -10.0212 -10.0259 -10.0296 -10.0337 -10.0379 -10.0422 -10.047 -10.0507 -10.0549 -10.0591 -10.0636 -10.0684 -10.0722 -10.0765 -10.0809 -10.0854 -10.0904 -10.0943 -10.0987 -10.1033 -10.108 -10.1131 -10.1172 -10.1218 -10.1265 -10.1315 -10.1367 -10.1411 -10.146 -10.151 -10.1562 -10.1618 -10.1666 -10.1717 -10.177 -10.1825 -10.1883 -10.1936 -10.1994 -10.2055 -10.2118 -10.2185 -10.2251 -10.2314 -10.2376 -10.2439 -10.2504 -10.2605 -10.2708 -10.2813 -10.2913 -10.3006 -10.3174 -10.3256 -10.3281 -10.326 -10.317 -10.3237 -10.3255 -10.3242 -10.3209 -10.3145 -10.3321 -10.3433 -10.3509 -10.3534 -10.3466 -10.3612 -10.3692 -10.3739 -10.3744 -10.3663 -10.3728 -10.3756 -10.3768 -10.3763 -10.3711 -10.3725 -10.3732 -10.3737 -10.3738 -10.3725 -10.3709 -10.3707 -10.3709 -10.3712 -10.3727 -10.3687 -10.368 -10.3677 -10.3676 -10.3709 -10.3653 -10.3647 -10.3641 -10.3636 -10.3678 -10.3622 -10.3617 -10.3612 -10.3607 -10.3648 -10.3603 -10.3601 -10.3599 -10.3597 -10.3632 -10.3603 -10.3607 -10.361 -10.3614 -10.3644 -10.3633 -10.3645 -10.3656 -10.3667 -10.3694 -10.3702 -10.3723 -10.3744 -10.3764 -10.3791 -10.3815 -10.3843 -10.3871 -10.3899 -10.3925 -10.3928 -10.3932 -10.3935 -10.3939 -10.3942 -10.3984 -10.4026 -10.4067 -10.4109 -10.4151 -10.4202 -10.4255 -10.4307 -10.436 -10.4415 -10.4474 -10.4536 -10.4599 -10.4662 -10.4728 -10.4794 -10.4866 -10.4937 -10.5009 -10.5087 -10.5159 -10.5237 -10.5316 -10.5395 -10.5481 -10.5559 -10.5641 -10.5725 -10.581 -10.5901 -10.5984 -10.6068 -10.6155 -10.6244 -10.6336 -10.6421 -10.6507 -10.6594 -10.6684 -10.6776 -10.6861 -10.6946 -10.7032 -10.712 -10.7209 -10.7291 -10.7375 -10.7457 -10.7541 -10.7624 -10.7703 -10.7781 -10.7859 -10.7936 -10.8012 -10.8084 -10.8157 -10.8228 -10.8296 -10.8364 -10.8428 -10.8491 -10.8552 -10.8612 -10.867 -10.8723 -10.8774 -10.8825 -10.8875 -10.8921 -10.8962 -10.9 -10.9037 -10.9075 -10.9111 -10.9133 -10.9154 -10.9175 -10.9196 -10.9214 -10.9217 -10.922 -10.9223 -10.9226 -10.9229 -10.9236 -10.9244 -10.9251 -10.9258 -10.9264 -10.9257 -10.9247 -10.9237 -10.9227 -10.9213 -10.9191 -10.9162 -10.9134 -10.9103 -10.9068 -10.9026 -10.8982 -10.8934 -10.8879 -10.8824 -10.876 -10.8697 -10.8627 -10.8549 -10.8472 -10.8386 -10.83 -10.8207 -10.8107 -10.8006 -10.7896 -10.7782 -10.7664 -10.7545 -10.742 -10.7283 -10.7139 -10.6996 -10.6852 -10.6708 -10.6694 -10.6679 -10.6665 -10.665 -10.6635 -10.6482 -10.633 -10.6177 -10.6025 -10.5864 -10.5679 -10.5485 -10.5292 -10.5093 -10.4884 -10.4673 -10.4462 -10.4239 -10.4002 -10.3765 -10.3526 -10.3288 -10.3034 -10.277 -10.2504 -10.2237 -10.1957 -10.1673 -10.1389 -10.1099 -10.0984 -10.0861 -10.0739 -10.0617 -10.0501 -10.0311 -10.0122 -9.99328 -9.97439 -9.95443 -9.92157 -9.88784 -9.85414 -9.81959 -9.78393 -9.74835 -9.7128 -9.67583 -9.63736 -9.59888 -9.56044 -9.52126 -9.48092 -9.44062 -9.3994 -9.37763 -9.35491 -9.33214 -9.30938 -9.28795 -9.2676 -9.24726 -9.22693 -9.20658 -9.18523 -9.14071 -9.09547 -9.05026 -9.00397 -8.9567 -8.9097 -8.86274 -8.81437 -8.76472 -8.71502 -8.66556 -8.61469 -8.56344 -8.51221 -8.46086 -8.4588 -8.45668 -8.45454 -8.45241 -8.45028 -8.39935 -8.34845 -8.29758 -8.24648 -8.19373 -8.13927 -8.08484 -8.02944 -7.97277 -7.916 -7.85965 -7.80254 -7.74471 -7.6869 -7.62879 -7.61851 -7.60807 -7.59756 -7.58705 -7.57672 -7.52808 -7.47947 -7.43088 -7.38202 -7.33212 -7.27211 -7.21213 -7.15156 -7.09007 -7.02844 -6.96735 -6.9057 -6.84365 -6.78162 -6.71941 -6.71533 -6.71121 -6.70708 -6.70294 -6.69883 -6.64031 -6.58181 -6.52334 -6.46463 -6.40517 -6.34221 -6.27927 -6.21601 -6.15246 -6.08875 -6.03823 -5.98754 -5.93674 -5.88597 -5.83824 -5.82491 -5.81158 -5.79825 -5.78488 -5.77142 -5.70798 -5.64463 -5.58131 -5.51782 -5.45407 -5.39108 -5.32811 -5.26516 -5.20231 -5.13945 -5.11334 -5.0873 -5.0613 -5.03531 -5.01001 -4.97363 -4.93726 -4.90089 -4.86454 -4.82816 -4.76658 -4.70511 -4.64397 -4.58308 -4.52204 -4.46185 -4.40197 -4.34234 -4.28272 -4.22298 -4.22205 -4.22112 -4.2202 -4.21927 -4.21835 -4.1607 -4.10306 -4.04542 -3.98797 -3.93078 -3.87367 -3.81657 -3.76 -3.70408 -3.64808 -3.61107 -3.57443 -3.53801 -3.50159 -3.46541 -3.44733 -3.42925 -3.41117 -3.39315 -3.37526 -3.3222 -3.26953 -3.21685 -3.16468 -3.11276 -3.06203 -3.01132 -2.96142 -2.91172 -2.86235 -2.836 -2.81002 -2.78417 -2.75831 -2.73176 -2.71009 -2.68842 -2.66675 -2.64504 -2.62319 -2.57792 -2.53244 -2.48696 -2.44121 -2.39553 -2.35283 -2.31013 -2.26721 -2.2241 -2.18116 -2.14101 -2.10074 -2.06046 -2.02018 -1.9801 -1.97873 -1.97735 -1.97596 -1.97458 -1.9732 -1.93651 -1.89984 -1.86319 -1.82656 -1.7872 -1.75403 -1.71953 -1.68416 -1.64652 -1.60844 -1.57775 -1.54709 -1.51411 -1.4787 -1.44348 -1.41515 -1.38598 -1.35533 -1.32415 -1.29163 -1.26537 -1.23716 -1.20898 -1.18084 -1.15215 -1.14218 -1.13171 -1.12125 -1.1108 -1.09936 -1.08407 -1.06879 -1.05353 -1.03827 -1.02318 -0.999402 -0.975539 -0.951708 -0.927909 -0.904444 -0.882897 -0.861054 -0.839224 -0.817492 -0.795969 -0.776319 -0.756544 -0.736558 -0.716709 -0.69694 -0.679029 -0.661149 -0.642913 -0.624734 -0.606586 -0.590269 -0.573978 -0.557512 -0.540836 -0.524185 -0.509327 -0.494493 -0.479636 -0.464347 -0.449077 -0.435558 -0.422053 -0.408537 -0.394656 -0.380663 -0.368375 -0.356075 -0.343754 -0.331221 -0.318412 -0.307261 -0.296063 -0.284849 -0.273566 -0.261861 -0.251769 -0.241588 -0.23141 -0.221239 -0.210622 -0.201504 -0.192299 -0.1831 -0.173907 -0.16439 -0.156194 -0.147927 -0.139666 -0.131409 -0.122939 -0.115645 -0.108306 -0.100973 -0.0936438 -0.0862035 -0.0798091 -0.0733856 -0.0669658 -0.0605499 -0.0541061 -0.0521111 -0.0501182 -0.0481257 -0.0461337 -0.0440396 -0.0406943 -0.0373503 -0.0340074 -0.0306658 -0.0277455 -0.0229168 -0.0184453 -0.0139759 -0.00950871 -0.00599731 -0.0025426 -0.000365523 0.00181044 0.0039853 0.00401652 0.00725518 0.0108387 0.0144233 0.018009 0.0215761 0.0243155 0.0206824 0.0170558 0.0134355 0.00307803
-9.93325 -9.93359 -9.93393 -9.93427 -9.93461 -9.93495 -9.93902 -9.94313 -9.94726 -9.9514 -9.95555 -9.9596 -9.96368 -9.96777 -9.97186 -9.97594 -9.98 -9.98406 -9.98813 -9.99219 -9.99623 -10.0003 -10.0044 -10.0084 -10.0125 -10.0165 -10.0206 -10.0247 -10.0288 -10.0329 -10.0369 -10.0411 -10.0452 -10.0493 -10.0534 -10.0575 -10.0617 -10.0659 -10.0701 -10.0743 -10.0784 -10.0827 -10.087 -10.0913 -10.0956 -10.0998 -10.1042 -10.1086 -10.1131 -10.1174 -10.1217 -10.1263 -10.1308 -10.1354 -10.1399 -10.1443 -10.149 -10.1538 -10.1585 -10.1632 -10.1677 -10.1725 -10.1774 -10.1824 -10.1872 -10.1919 -10.1968 -10.2018 -10.2068 -10.2116 -10.2162 -10.221 -10.2259 -10.2312 -10.2365 -10.2417 -10.2468 -10.2518 -10.2565 -10.2606 -10.2645 -10.2683 -10.2718 -10.2748 -10.2774 -10.2798 -10.2823 -10.2849 -10.2876 -10.2903 -10.293 -10.2956 -10.2982 -10.3008 -10.3032 -10.3056 -10.3072 -10.3087 -10.3103 -10.3119 -10.3135 -10.3138 -10.3141 -10.3148 -10.316 -10.3173 -10.3169 -10.3166 -10.3169 -10.3178 -10.3191 -10.3184 -10.3179 -10.3179 -10.3186 -10.3196 -10.3188 -10.3183 -10.3181 -10.3185 -10.3192 -10.3185 -10.318 -10.3178 -10.3182 -10.3187 -10.3184 -10.3182 -10.3182 -10.3186 -10.3193 -10.3194 -10.3196 -10.32 -10.3207 -10.3217 -10.3223 -10.3231 -10.3241 -10.3254 -10.3268 -10.3281 -10.3296 -10.3313 -10.3332 -10.3353 -10.3373 -10.3395 -10.342 -10.3447 -10.3476 -10.3504 -10.3535 -10.3568 -10.3603 -10.364 -10.3676 -10.3716 -10.3758 -10.3801 -10.3846 -10.389 -10.3938 -10.3988 -10.4038 -10.4091 -10.4142 -10.4198 -10.4255 -10.4312 -10.4371 -10.4429 -10.4491 -10.4554 -10.4617 -10.468 -10.4744 -10.4811 -10.4878 -10.4945 -10.5011 -10.5079 -10.5149 -10.5219 -10.5289 -10.5355 -10.5425 -10.5496 -10.5566 -10.5637 -10.5703 -10.5773 -10.5843 -10.5912 -10.5981 -10.6046 -10.6113 -10.618 -10.6246 -10.6312 -10.6374 -10.6437 -10.6498 -10.6559 -10.662 -10.6678 -10.6734 -10.6788 -10.6842 -10.6897 -10.6949 -10.6995 -10.7041 -10.7087 -10.7133 -10.7178 -10.718 -10.7182 -10.7184 -10.7185 -10.7187 -10.7221 -10.7256 -10.729 -10.7324 -10.7359 -10.7385 -10.7409 -10.7433 -10.7458 -10.7482 -10.7496 -10.7507 -10.7519 -10.753 -10.7538 -10.7542 -10.7538 -10.7534 -10.753 -10.752 -10.7511 -10.7493 -10.7474 -10.745 -10.7421 -10.7395 -10.7366 -10.7328 -10.7282 -10.7233 -10.7189 -10.7146 -10.7089 -10.7019 -10.695 -10.6887 -10.6824 -10.6747 -10.6656 -10.6565 -10.6481 -10.6394 -10.6294 -10.6185 -10.6072 -10.5966 -10.5847 -10.5724 -10.5601 -10.5465 -10.533 -10.5182 -10.5035 -10.4888 -10.4738 -10.4709 -10.4678 -10.4646 -10.4615 -10.4584 -10.4446 -10.4309 -10.4171 -10.4033 -10.3885 -10.3702 -10.3508 -10.3315 -10.3117 -10.2904 -10.2697 -10.2488 -10.2269 -10.203 -10.179 -10.1557 -10.1325 -10.1075 -10.0809 -10.0543 -10.0283 -10.001 -9.97292 -9.94486 -9.91583 -9.89926 -9.88158 -9.86391 -9.84624 -9.82977 -9.81668 -9.8036 -9.79052 -9.77745 -9.76349 -9.73136 -9.69852 -9.6657 -9.63207 -9.59711 -9.56261 -9.52813 -9.49213 -9.45452 -9.41691 -9.3797 -9.3415 -9.30221 -9.26294 -9.22296 -9.20828 -9.19292 -9.17747 -9.16202 -9.14715 -9.1211 -9.09507 -9.06905 -9.04287 -9.01591 -8.97275 -8.92936 -8.88581 -8.84089 -8.79591 -8.75029 -8.70439 -8.65744 -8.6105 -8.56319 -8.54573 -8.52795 -8.51002 -8.49209 -8.47475 -8.44348 -8.41222 -8.38097 -8.34962 -8.31765 -8.26667 -8.21561 -8.16453 -8.11253 -8.06041 -8.00744 -7.9544 -7.90054 -7.84669 -7.79277 -7.76458 -7.73609 -7.70749 -7.6789 -7.65138 -7.62439 -7.59741 -7.57043 -7.54335 -7.51583 -7.45913 -7.40244 -7.34577 -7.28836 -7.23074 -7.17273 -7.11468 -7.05596 -6.99729 -6.93865 -6.91055 -6.88228 -6.85394 -6.8256 -6.79811 -6.76673 -6.73536 -6.704 -6.67256 -6.64087 -6.58041 -6.52014 -6.45999 -6.39951 -6.33895 -6.27803 -6.21708 -6.15604 -6.09502 -6.03431 -6.01412 -5.99395 -5.97379 -5.95364 -5.93381 -5.89276 -5.85171 -5.81067 -5.76963 -5.72859 -5.66707 -5.60569 -5.54478 -5.4841 -5.42337 -5.36231 -5.30149 -5.24093 -5.18037 -5.12005 -5.11115 -5.10232 -5.09352 -5.08473 -5.07598 -5.02472 -4.97347 -4.92223 -4.87113 -4.82039 -4.76062 -4.70086 -4.642 -4.58385 -4.52566 -4.4676 -4.41022 -4.35317 -4.29613 -4.24031 -4.23966 -4.239 -4.23835 -4.23771 -4.23707 -4.1806 -4.12417 -4.06773 -4.01159 -3.95625 -3.9007 -3.84515 -3.79067 -3.7373 -3.68393 -3.63439 -3.58578 -3.53752 -3.48926 -3.44108 -3.43704 -3.433 -3.42895 -3.42493 -3.42099 -3.37001 -3.31921 -3.26841 -3.21803 -3.16862 -3.11908 -3.06954 -3.02122 -2.97414 -2.92706 -2.87984 -2.83371 -2.788 -2.74229 -2.69672 -2.69442 -2.69218 -2.68996 -2.68774 -2.68551 -2.64375 -2.60198 -2.56021 -2.51863 -2.47826 -2.43568 -2.39315 -2.35183 -2.31168 -2.27156 -2.23139 -2.19169 -2.15299 -2.11432 -2.07661 -2.05683 -2.03773 -2.01872 -1.9997 -1.98015 -1.96269 -1.94523 -1.92777 -1.91032 -1.8935 -1.85827 -1.82373 -1.7892 -1.75531 -1.72213 -1.68906 -1.65598 -1.62397 -1.59301 -1.56209 -1.53125 -1.50098 -1.47138 -1.44178 -1.41299 -1.39484 -1.37739 -1.35995 -1.34251 -1.32411 -1.31411 -1.30412 -1.29412 -1.28413 -1.27446 -1.2483 -1.22243 -1.19657 -1.17087 -1.14606 -1.1215 -1.09713 -1.07318 -1.05015 -1.02719 -1.00448 -0.98177 -0.959808 -0.938548 -0.917317 -0.896329 -0.875789 -0.85564 -0.83551 -0.815898 -0.796981 -0.778629 -0.760281 -0.741938 -0.722398 -0.72223 -0.722066 -0.721903 -0.721739 -0.721576 -0.704422 -0.687275 -0.670136 -0.653003 -0.636253 -0.620076 -0.604135 -0.588201 -0.572406 -0.557023 -0.542116 -0.527298 -0.512638 -0.498396 -0.484245 -0.470559 -0.456878 -0.443513 -0.430498 -0.417496 -0.404951 -0.392411 -0.380276 -0.368324 -0.356398 -0.344925 -0.333645 -0.32257 -0.311539 -0.300627 -0.290164 -0.280071 -0.269987 -0.259905 -0.249912 -0.240579 -0.231436 -0.222295 -0.213158 -0.204034 -0.20289 -0.201768 -0.200647 -0.199525 -0.198388 -0.191238 -0.18409 -0.176945 -0.169803 -0.162686 -0.15537 -0.147962 -0.140556 -0.133153 -0.125782 -0.119416 -0.112958 -0.106503 -0.100084 -0.0938751 -0.0886639 -0.0829963 -0.0770841 -0.0710051 -0.0647746 -0.0594936 -0.0544373 -0.0502075 -0.0476781 -0.0453564 -0.0438929 -0.0424293 -0.0344482 -0.0205155 -0.00658256 0.0070402 0.0206631 0.0219047 0.0109528 0
-9.92812 -9.92843 -9.92875 -9.92906 -9.92937 -9.92969 -9.93365 -9.93761 -9.94157 -9.94554 -9.94946 -9.95338 -9.9573 -9.96121 -9.96513 -9.96901 -9.9729 -9.97679 -9.98068 -9.98457 -9.98841 -9.99229 -9.99616 -10 -10.0039 -10.0077 -10.0116 -10.0155 -10.0193 -10.0232 -10.027 -10.0309 -10.0348 -10.0386 -10.0425 -10.0463 -10.0502 -10.0541 -10.058 -10.0619 -10.0657 -10.0696 -10.0735 -10.0774 -10.0813 -10.0852 -10.0891 -10.093 -10.0969 -10.1008 -10.1047 -10.1086 -10.1125 -10.1165 -10.1204 -10.1242 -10.1281 -10.132 -10.1359 -10.1399 -10.1437 -10.1475 -10.1513 -10.1552 -10.159 -10.1627 -10.1664 -10.1701 -10.1738 -10.1775 -10.181 -10.1845 -10.1882 -10.192 -10.1957 -10.1994 -10.203 -10.2068 -10.2106 -10.2143 -10.218 -10.2214 -10.2247 -10.228 -10.2313 -10.2343 -10.2371 -10.2397 -10.2424 -10.245 -10.2476 -10.2499 -10.2522 -10.2544 -10.2567 -10.2588 -10.2608 -10.2626 -10.2644 -10.2662 -10.2679 -10.2694 -10.2707 -10.272 -10.2733 -10.2745 -10.2756 -10.2765 -10.2775 -10.2784 -10.2794 -10.2802 -10.2809 -10.2817 -10.2824 -10.2831 -10.2838 -10.2844 -10.285 -10.2856 -10.2862 -10.2868 -10.2874 -10.288 -10.2885 -10.2892 -10.2899 -10.2905 -10.2912 -10.2919 -10.2926 -10.2935 -10.2945 -10.2954 -10.2963 -10.2973 -10.2985 -10.2998 -10.3011 -10.3024 -10.3037 -10.3054 -10.3071 -10.3088 -10.3106 -10.3124 -10.3145 -10.3168 -10.3191 -10.3213 -10.3237 -10.3264 -10.3292 -10.3321 -10.3349 -10.3378 -10.3411 -10.3445 -10.3479 -10.3513 -10.3548 -10.3586 -10.3626 -10.3665 -10.3705 -10.3745 -10.3788 -10.3833 -10.3877 -10.3922 -10.3966 -10.4014 -10.4062 -10.4111 -10.4159 -10.4208 -10.4258 -10.431 -10.4361 -10.4412 -10.4463 -10.4495 -10.4526 -10.4558 -10.4589 -10.4617 -10.4639 -10.4661 -10.4683 -10.4704 -10.4726 -10.4779 -10.4831 -10.4884 -10.4936 -10.4989 -10.5041 -10.5091 -10.5142 -10.5193 -10.5245 -10.5293 -10.5341 -10.5389 -10.5436 -10.5484 -10.5529 -10.5572 -10.5615 -10.5658 -10.57 -10.574 -10.5777 -10.5813 -10.5849 -10.5885 -10.5918 -10.5947 -10.5975 -10.6003 -10.603 -10.6056 -10.6075 -10.6094 -10.6112 -10.6129 -10.6145 -10.6153 -10.6161 -10.6168 -10.6173 -10.6177 -10.6176 -10.6171 -10.6164 -10.6156 -10.6146 -10.6134 -10.6116 -10.6093 -10.607 -10.6046 -10.6022 -10.5988 -10.5949 -10.5909 -10.5869 -10.5829 -10.578 -10.5723 -10.5666 -10.5609 -10.5552 -10.5486 -10.541 -10.5335 -10.5259 -10.5184 -10.5099 -10.5004 -10.4909 -10.4814 -10.4715 -10.4609 -10.4499 -10.4383 -10.4267 -10.4142 -10.4015 -10.3888 -10.3751 -10.361 -10.3461 -10.3311 -10.3161 -10.3008 -10.2922 -10.2832 -10.2742 -10.2652 -10.2568 -10.2485 -10.2403 -10.232 -10.2237 -10.215 -10.196 -10.1767 -10.1573 -10.138 -10.1173 -10.0967 -10.075 -10.0532 -10.0307 -10.0072 -9.98412 -9.96096 -9.93661 -9.91055 -9.88451 -9.85893 -9.83336 -9.80621 -9.77761 -9.74902 -9.7209 -9.69195 -9.66192 -9.6317 -9.60057 -9.56956 -9.53693 -9.50433 -9.47174 -9.43908 -9.43695 -9.43473 -9.43251 -9.43029 -9.42808 -9.39562 -9.36319 -9.33078 -9.29839 -9.26434 -9.22824 -9.19133 -9.15426 -9.11582 -9.07662 -9.03804 -8.99947 -8.95935 -8.91775 -8.87616 -8.83516 -8.79315 -8.75009 -8.70705 -8.66326 -8.63994 -8.61554 -8.59115 -8.56676 -8.54341 -8.52256 -8.5017 -8.48085 -8.45997 -8.43819 -8.39183 -8.34495 -8.29809 -8.25019 -8.20143 -8.15308 -8.10475 -8.05514 -8.00451 -7.95386 -7.9036 -7.85203 -7.80012 -7.74823 -7.69627 -7.6941 -7.69188 -7.68964 -7.68741 -7.68518 -7.63433 -7.5835 -7.53268 -7.48158 -7.42943 -7.3751 -7.32077 -7.26585 -7.2102 -7.15452 -7.09927 -7.04332 -6.98708 -6.93085 -6.8778 -6.87678 -6.87576 -6.87473 -6.8737 -6.87267 -6.81538 -6.75811 -6.70084 -6.64331 -6.58532 -6.52717 -6.46904 -6.41052 -6.35206 -6.29361 -6.26155 -6.22941 -6.19722 -6.16503 -6.13362 -6.10675 -6.07988 -6.053 -6.02612 -5.99921 -5.93976 -5.88043 -5.8214 -5.76247 -5.70352 -5.65341 -5.60342 -5.55358 -5.50373 -5.45544 -5.44587 -5.4363 -5.42673 -5.41718 -5.40767 -5.3485 -5.28961 -5.23073 -5.17212 -5.11371 -5.0549 -4.9961 -4.93789 -4.88011 -4.82259 -4.79337 -4.7644 -4.73558 -4.70675 -4.6782 -4.64965 -4.6211 -4.59256 -4.56415 -4.53602 -4.47888 -4.42225 -4.36592 -4.31059 -4.25527 -4.19956 -4.14421 -4.08964 -4.03508 -3.98114 -3.96753 -3.95412 -3.94083 -3.92753 -3.91425 -3.87423 -3.8342 -3.79418 -3.75442 -3.71536 -3.66277 -3.61022 -3.55892 -3.50868 -3.45844 -3.40782 -3.35798 -3.30883 -3.25969 -3.2109 -3.20431 -3.19787 -3.1915 -3.18512 -3.17873 -3.13749 -3.09626 -3.05502 -3.01407 -2.97416 -2.92764 -2.88111 -2.83595 -2.79199 -2.74804 -2.70376 -2.66027 -2.61757 -2.57487 -2.53273 -2.52297 -2.51349 -2.5041 -2.49471 -2.48526 -2.45374 -2.42222 -2.3907 -2.35936 -2.32905 -2.28928 -2.24989 -2.21111 -2.17387 -2.13664 -2.09915 -2.06189 -2.02593 -1.99028 -1.95527 -1.93222 -1.91002 -1.88794 -1.86586 -1.84313 -1.83141 -1.81969 -1.80797 -1.79626 -1.78504 -1.75239 -1.72027 -1.68815 -1.65659 -1.62591 -1.59505 -1.56419 -1.53444 -1.50577 -1.47712 -1.44831 -1.42005 -1.39254 -1.36503 -1.3383 -1.32241 -1.30724 -1.29206 -1.27689 -1.26115 -1.25067 -1.24019 -1.22972 -1.21925 -1.20922 -1.18465 -1.16048 -1.13632 -1.11247 -1.08946 -1.06637 -1.0433 -1.02102 -0.99964 -0.978282 -0.956846 -0.935433 -0.91501 -0.895007 -0.875189 -0.855307 -0.836247 -0.817314 -0.798385 -0.779709 -0.773083 -0.76672 -0.760358 -0.753997 -0.747454 -0.736187 -0.724922 -0.71366 -0.702399 -0.691551 -0.674824 -0.658405 -0.64199 -0.625756 -0.610152 -0.594561 -0.579086 -0.563903 -0.549426 -0.535002 -0.520601 -0.506204 -0.492369 -0.479037 -0.465714 -0.452427 -0.439365 -0.426739 -0.414229 -0.401937 -0.389701 -0.378078 -0.366458 -0.354841 -0.343359 -0.337759 -0.332353 -0.326947 -0.321542 -0.315923 -0.310652 -0.305382 -0.300113 -0.294844 -0.289735 -0.279786 -0.269918 -0.260052 -0.250189 -0.240786 -0.231595 -0.22256 -0.213551 -0.20477 -0.196278 -0.187941 -0.17962 -0.171398 -0.163633 -0.15587 -0.148267 -0.140664 -0.133461 -0.126624 -0.119789 -0.113117 -0.10644 -0.0997128 -0.0927236 -0.0856508 -0.0787087 -0.0730216 -0.0681094 -0.0632925 -0.0595505 -0.0550349 -0.0452212 -0.0354099 -0.0256012 -0.0137485 -0.00851897 -0.00768375 -0.00684742 -0.00600996 -0.00515808 -0.00359838 -0.00203922 -0.000480586 0.00107752 0