/*--------------------------------*- C++ -*----------------------------------*\
| =========                 |                                                 |
| \\      /  F ield         | OpenFOAM: The Open Source CFD Toolbox           |
|  \\    /   O peration     | Version:  4.1                                   |
|   \\  /    A nd           | Web:      www.OpenFOAM.org                      |
|    \\/     M anipulation  |                                                 |
\*---------------------------------------------------------------------------*/
FoamFile
{
    version     2.0;
    format      ascii;
    class       volVectorField;
    location    "8";
    object      U;
}
// * * * * * * * * * * * * * * * * * * * * * * * * * * * * * * * * * * * * * //

dimensions      [0 1 -1 0 0 0 0];

internalField   nonuniform List<vector> 
26785
(
(1.12469e-15 -0.0062317 14.2038)
(1.14322e-15 -0.00159004 14.2555)
(1.10461e-15 -0.000237054 14.2398)
(1.01638e-15 0.000167977 14.2242)
(1.52102e-15 0.000371586 14.2196)
(1.59179e-15 -2.17698e-05 14.2296)
(8.54925e-16 -0.000266745 14.2511)
(7.3464e-16 -0.000728957 14.2817)
(4.6219e-16 -0.00133335 14.3183)
(1.73469e-15 -0.00228613 14.3705)
(9.57014e-16 -0.00409464 14.4345)
(9.82304e-16 -0.00637542 14.5306)
(1.04902e-15 -0.00811673 14.6693)
(1.09728e-15 -0.00823216 14.8074)
(1.13003e-15 -0.00717658 14.9312)
(1.15973e-15 -0.00555063 15.0333)
(1.17861e-15 -0.00409933 15.1064)
(1.20718e-15 -0.00312443 15.1616)
(1.28103e-15 -0.00296047 15.2112)
(9.6695e-16 -0.00316924 15.2587)
(1.14627e-15 -0.0035006 15.3117)
(1.19199e-15 -0.00365351 15.3636)
(1.03557e-15 -0.00343767 15.4138)
(1.44099e-15 -0.00299667 15.4592)
(1.3866e-15 -0.00246766 15.4988)
(1.19196e-15 -0.00189971 15.5316)
(1.42579e-15 -0.00133729 15.5589)
(1.30303e-15 -0.000589148 15.5818)
(1.30059e-15 0.000443984 15.5975)
(1.39273e-15 0.00194871 15.6002)
(2.20406e-15 0.00370881 15.5877)
(2.01688e-15 0.0056014 15.5587)
(1.93279e-15 0.0075342 15.5153)
(1.85955e-16 0.00945445 15.4604)
(1.47822e-15 0.0111713 15.3944)
(2.33851e-15 0.0125778 15.3202)
(1.94233e-15 0.0137714 15.2399)
(1.79493e-15 0.0150085 15.155)
(1.7534e-15 0.0163301 15.0639)
(2.02841e-15 0.0174259 14.9666)
(5.6706e-16 0.0180142 14.8664)
(1.18614e-15 0.0179299 14.7689)
(1.26315e-15 0.0170948 14.6783)
(2.62189e-15 0.0155101 14.5989)
(1.43093e-15 0.0133003 14.5364)
(2.95182e-15 0.010786 14.492)
(2.25746e-15 0.00829874 14.4722)
(1.54349e-15 0.00579513 14.4728)
(1.49023e-15 0.0031356 14.4904)
(1.44002e-15 0.000796115 14.5218)
(7.92425e-16 -0.0015536 14.5683)
(1.46951e-15 -0.00357626 14.626)
(1.53672e-15 -0.00558235 14.6943)
(1.54691e-15 -0.00718539 14.7706)
(1.46435e-15 -0.00868465 14.852)
(1.53971e-15 -0.00972745 14.9362)
(2.13835e-15 -0.0105577 15.0224)
(1.32308e-15 -0.011196 15.1098)
(1.3049e-15 -0.0118635 15.196)
(2.44466e-15 -0.0124628 15.2823)
(1.13724e-15 -0.0129904 15.3675)
(1.07336e-15 -0.0132863 15.4532)
(1.25865e-15 -0.0134239 15.5351)
(1.17104e-15 -0.0131843 15.6137)
(9.57519e-16 -0.0129017 15.687)
(9.74202e-16 -0.012597 15.7561)
(1.06578e-15 -0.0123815 15.8206)
(1.07901e-15 -0.012166 15.8818)
(1.09812e-15 -0.0119617 15.9396)
(1.32469e-15 -0.011647 15.9948)
(1.04793e-15 -0.0112403 16.0461)
(8.4442e-16 -0.0107063 16.0937)
(1.01595e-15 -0.0101131 16.1368)
(1.0897e-15 -0.00948333 16.1758)
(1.12319e-15 -0.00888198 16.2103)
(1.7072e-15 -0.00833254 16.241)
(1.23924e-15 -0.00785578 16.2681)
(1.27411e-15 -0.00745287 16.2924)
(1.30843e-15 -0.00711815 16.3141)
(1.35463e-15 -0.00685239 16.3338)
(1.49608e-15 -0.00664363 16.3518)
(1.74461e-15 -0.00649309 16.3685)
(1.20607e-15 -0.00637871 16.3841)
(1.4473e-15 -0.00629384 16.3987)
(1.34547e-15 -0.00621063 16.4125)
(1.33553e-15 -0.00612897 16.4254)
(1.44678e-15 -0.00603286 16.4374)
(1.47754e-15 -0.00593893 16.4486)
(1.68452e-15 -0.00584527 16.4589)
(1.49115e-15 -0.00577253 16.4685)
(1.53193e-15 -0.00571647 16.4774)
(1.55367e-15 -0.00568695 16.4857)
(1.57135e-15 -0.00567488 16.4936)
(1.58962e-15 -0.00567662 16.5012)
(1.58397e-15 -0.00568898 16.5085)
(1.63716e-15 -0.00569484 16.5156)
(1.6733e-15 -0.00571344 16.5227)
(1.65891e-15 -0.00547736 16.5297)
(1.66667e-15 -0.0073747 16.5356)
(1.68121e-15 -0.00735338 16.5576)
(1.15908e-15 -0.0139617 15.2838)
(1.49459e-15 0.00180153 15.3602)
(1.67155e-15 0.00641776 15.3598)
(1.23318e-15 0.00680698 15.3639)
(9.3743e-16 0.00631276 15.3871)
(1.60493e-15 0.00417549 15.433)
(7.26307e-16 0.00252799 15.4939)
(1.74028e-15 -0.000103845 15.5663)
(2.40484e-15 -0.00255582 15.6442)
(1.37464e-15 -0.00650075 15.7406)
(1.4911e-15 -0.0128892 15.8508)
(1.57167e-15 -0.0208234 15.996)
(1.60288e-15 -0.0264451 16.1831)
(1.60907e-15 -0.02666 16.3609)
(1.06977e-15 -0.0226965 16.5152)
(1.584e-15 -0.0169993 16.6403)
(2.02628e-15 -0.0120639 16.7313)
(1.76473e-15 -0.00907666 16.8036)
(1.64867e-15 -0.00868871 16.8725)
(2.02725e-15 -0.00963263 16.9423)
(1.44684e-15 -0.0105173 17.0194)
(1.92112e-15 -0.0106412 17.0953)
(1.55318e-15 -0.00966613 17.1688)
(1.53246e-15 -0.00815053 17.2375)
(1.58332e-15 -0.00641961 17.3014)
(1.50955e-15 -0.00461251 17.3601)
(1.85859e-15 -0.00285306 17.4147)
(1.83086e-15 -0.000747469 17.4657)
(1.76885e-15 0.00207601 17.5102)
(2.80153e-15 0.00626835 17.5416)
(1.86684e-15 0.0111936 17.5577)
(1.67701e-15 0.0163961 17.5571)
(1.72666e-15 0.0214231 17.5426)
(1.57315e-15 0.0261618 17.5174)
(2.79941e-15 0.0300777 17.4823)
(2.18376e-15 0.0330694 17.4399)
(2.02673e-15 0.0355007 17.3915)
(2.05357e-15 0.0381709 17.3377)
(2.06723e-15 0.041137 17.2763)
(2.08483e-15 0.0435364 17.2061)
(2.33806e-15 0.0445557 17.129)
(8.99664e-16 0.0439027 17.0487)
(1.99207e-15 0.0414066 16.968)
(6.7045e-16 0.0370454 16.8899)
(2.05674e-15 0.0310737 16.8185)
(2.33176e-15 0.0245758 16.7541)
(3.84775e-15 0.0183218 16.7017)
(2.43457e-15 0.0119199 16.6576)
(3.67991e-15 0.00536905 16.619)
(8.05994e-16 -0.000459155 16.583)
(2.66423e-15 -0.00596089 16.5513)
(2.42192e-15 -0.010873 16.5209)
(2.58838e-15 -0.0153978 16.4924)
(4.22805e-15 -0.019295 16.4642)
(2.16274e-15 -0.0226345 16.4351)
(2.42755e-15 -0.02514 16.4046)
(3.1212e-15 -0.026852 16.3731)
(2.23635e-15 -0.028345 16.3413)
(2.23333e-15 -0.0296374 16.307)
(2.39693e-15 -0.0309107 16.272)
(2.64063e-15 -0.0317402 16.235)
(2.12185e-15 -0.0322264 16.1981)
(1.82915e-15 -0.0322088 16.1578)
(2.60961e-15 -0.0315485 16.1164)
(2.72952e-15 -0.03071 16.073)
(2.47947e-15 -0.029985 16.0302)
(2.46109e-15 -0.0293631 15.9883)
(2.45374e-15 -0.0288226 15.9493)
(1.53811e-15 -0.0281637 15.9133)
(2.55764e-15 -0.0272499 15.881)
(2.47235e-15 -0.0259612 15.851)
(2.28295e-15 -0.0243326 15.8232)
(2.18743e-15 -0.022452 15.7964)
(2.18997e-15 -0.0204612 15.7707)
(2.87835e-15 -0.0185041 15.7454)
(2.99549e-15 -0.0166734 15.7208)
(2.3642e-15 -0.0150384 15.6967)
(2.37702e-15 -0.0135955 15.6734)
(1.72232e-15 -0.0123567 15.6509)
(2.21362e-15 -0.0112934 15.6294)
(2.31542e-15 -0.0104121 15.6087)
(2.47746e-15 -0.00967848 15.5889)
(2.42373e-15 -0.00907421 15.5697)
(2.40084e-15 -0.0085445 15.5509)
(2.51134e-15 -0.00805698 15.5324)
(2.02777e-15 -0.00757273 15.5137)
(2.59212e-15 -0.00708718 15.4947)
(2.60592e-15 -0.00660431 15.4749)
(2.79712e-15 -0.00615206 15.4541)
(2.55799e-15 -0.00574857 15.4322)
(2.57141e-15 -0.00541433 15.4089)
(2.56621e-15 -0.00514923 15.3843)
(2.55962e-15 -0.00495713 15.3583)
(2.5328e-15 -0.00481708 15.3308)
(2.52832e-15 -0.00471335 15.3018)
(2.51221e-15 -0.00465588 15.2712)
(2.39068e-15 -0.00460178 15.2397)
(2.51057e-15 -0.00395545 15.2054)
(2.49804e-15 -0.00665507 15.173)
(2.47059e-15 -0.00977085 15.1217)
(1.48117e-15 -0.0212951 16.5176)
(1.36081e-15 0.00331554 16.6296)
(2.02312e-15 0.0104089 16.6868)
(1.38884e-15 0.0110021 16.7525)
(2.11393e-15 0.00955679 16.833)
(2.24659e-15 0.00614124 16.9309)
(1.68279e-15 0.0032719 17.0369)
(1.93817e-15 -0.000816721 17.1492)
(2.12663e-15 -0.00470285 17.2597)
(2.12968e-15 -0.0113127 17.3814)
(2.17088e-15 -0.0211795 17.5086)
(2.21388e-15 -0.0340598 17.6596)
(2.21799e-15 -0.0420572 17.8387)
(2.21805e-15 -0.0413984 18.0022)
(2.34564e-15 -0.0340681 18.1392)
(1.90826e-15 -0.0243829 18.2476)
(2.52433e-15 -0.0160648 18.325)
(1.80312e-15 -0.0115173 18.3872)
(2.75889e-15 -0.0110633 18.4485)
(2.14986e-15 -0.0129729 18.5127)
(2.11735e-15 -0.0145475 18.5849)
(2.74029e-15 -0.0149105 18.6567)
(2.42503e-15 -0.0135954 18.7268)
(2.03664e-15 -0.0115125 18.7924)
(2.20543e-15 -0.00911158 18.8529)
(2.02924e-15 -0.0066218 18.9069)
(2.31711e-15 -0.00416005 18.9548)
(2.47235e-15 -0.00114562 18.9964)
(2.49529e-15 0.0032042 19.0284)
(2.4262e-15 0.00979475 19.0446)
(2.74697e-15 0.017555 19.0425)
(3.09588e-15 0.0256406 19.0202)
(2.11625e-15 0.033339 18.9799)
(2.34492e-15 0.0405456 18.9239)
(2.46914e-15 0.0466223 18.8512)
(2.51146e-15 0.0514556 18.7623)
(2.4743e-15 0.0557282 18.6568)
(2.48925e-15 0.0606857 18.534)
(2.51272e-15 0.0664982 18.3897)
(2.54573e-15 0.0718364 18.2208)
(2.55666e-15 0.0754444 18.027)
(2.60825e-15 0.0767719 17.8116)
(2.57184e-15 0.0755416 17.5774)
(2.57209e-15 0.0716465 17.3279)
(2.63328e-15 0.0653897 17.0676)
(2.68013e-15 0.0582979 16.7977)
(2.62198e-15 0.0520128 16.5272)
(2.54487e-15 0.0447421 16.2508)
(2.55892e-15 0.0378274 15.9684)
(2.737e-15 0.0310755 15.6766)
(2.85695e-15 0.0258938 15.3808)
(2.86246e-15 0.0200183 15.0763)
(2.75629e-15 0.0160356 14.7686)
(2.50612e-15 0.0107503 14.4555)
(2.32532e-15 0.00767761 14.1406)
(3.61364e-15 0.0033136 13.8239)
(2.38347e-15 0.00205896 13.5102)
(1.85081e-15 -0.00154588 13.1988)
(1.86224e-15 -0.00264287 12.8891)
(2.04222e-15 -0.00611507 12.5801)
(2.24481e-15 -0.00667821 12.2722)
(2.3299e-15 -0.00927079 11.9675)
(2.24564e-15 -0.0097795 11.6658)
(2.32613e-15 -0.0114833 11.3721)
(2.10672e-15 -0.012164 11.0887)
(1.78447e-15 -0.0148207 10.8209)
(2.11421e-15 -0.0171016 10.5711)
(2.23285e-15 -0.0207833 10.3436)
(1.95736e-15 -0.0236431 10.1397)
(1.81011e-15 -0.0268693 9.96115)
(1.80722e-15 -0.0289003 9.80604)
(1.64382e-15 -0.0307448 9.6745)
(2.05066e-15 -0.0316779 9.56429)
(2.98935e-15 -0.0325334 9.47504)
(2.0481e-15 -0.0330425 9.40442)
(2.01599e-15 -0.0336587 9.3519)
(1.96407e-15 -0.0342604 9.31559)
(1.94902e-15 -0.0349506 9.2948)
(1.96809e-15 -0.0356608 9.28775)
(1.98536e-15 -0.0363159 9.2934)
(1.96067e-15 -0.0369463 9.30988)
(1.9575e-15 -0.0374178 9.33582)
(1.89588e-15 -0.0377914 9.36935)
(1.9058e-15 -0.037878 9.409)
(1.89025e-15 -0.0377615 9.45302)
(1.86841e-15 -0.0372713 9.49998)
(1.88226e-15 -0.0365509 9.54829)
(1.8978e-15 -0.035497 9.59668)
(1.91854e-15 -0.0343032 9.64388)
(1.55e-15 -0.0328975 9.68887)
(1.87462e-15 -0.0314574 9.73077)
(1.83653e-15 -0.0299036 9.76886)
(1.81647e-15 -0.028373 9.80254)
(1.88313e-15 -0.026787 9.83126)
(1.89133e-15 -0.0251903 9.8548)
(1.85398e-15 -0.0236274 9.87249)
(1.98318e-15 -0.0219642 9.88498)
(1.81149e-15 -0.0198778 9.88893)
(1.80549e-15 -0.0173225 9.89743)
(1.78625e-15 -0.0239304 9.85627)
(1.92796e-15 -0.02471 17.7289)
(1.58849e-15 0.00571008 17.8605)
(1.70996e-15 0.0143411 17.9488)
(2.28598e-15 0.0149318 18.0374)
(2.05976e-15 0.0129118 18.1262)
(1.71798e-15 0.00868826 18.218)
(2.73885e-15 0.0050456 18.3046)
(3.07206e-15 -8.8101e-05 18.3841)
(2.24625e-15 -0.0050529 18.4489)
(2.58324e-15 -0.0136759 18.5094)
(2.71064e-15 -0.0266419 18.5584)
(2.76002e-15 -0.0437079 18.6138)
(2.61488e-15 -0.054317 18.6876)
(2.8344e-15 -0.0533942 18.7486)
(3.04619e-15 -0.0439611 18.7945)
(3.00395e-15 -0.0316034 18.825)
(2.83583e-15 -0.0212773 18.8359)
(3.23781e-15 -0.0161496 18.8371)
(2.56835e-15 -0.0163701 18.8379)
(2.72822e-15 -0.019795 18.841)
(2.76418e-15 -0.0227047 18.8531)
(3.12046e-15 -0.0238169 18.8692)
(2.85747e-15 -0.0225685 18.8878)
(2.8119e-15 -0.0201037 18.9047)
(2.81823e-15 -0.0169745 18.9172)
(2.77973e-15 -0.0134799 18.9231)
(2.74295e-15 -0.0097072 18.9218)
(2.74283e-15 -0.00511081 18.9137)
(2.7148e-15 0.00148602 18.896)
(2.86446e-15 0.0112581 18.863)
(2.96553e-15 0.0230354 18.8106)
(2.45905e-15 0.0353813 18.7362)
(2.20305e-15 0.0474435 18.6419)
(2.19582e-15 0.059091 18.5294)
(2.76432e-15 0.0698967 18.3962)
(1.30588e-15 0.0794883 18.2403)
(2.9582e-15 0.0889426 18.0595)
(3.4282e-15 0.099988 17.8517)
(6.11082e-16 0.113292 17.6109)
(3.58192e-15 0.126902 17.3315)
(3.49861e-15 0.138774 17.0107)
(1.07045e-15 0.147563 16.6522)
(1.87209e-15 0.152742 16.2605)
(3.99706e-15 0.154052 15.8412)
(3.02646e-15 0.151827 15.4009)
(3.04435e-15 0.147574 14.9419)
(1.00715e-16 0.145289 14.486)
(-8.64642e-16 0.140431 14.0164)
(1.66984e-15 0.136444 13.542)
(5.34149e-15 0.131178 13.0489)
(3.67851e-15 0.129324 12.557)
(3.49929e-15 0.124098 12.0455)
(6.5377e-16 0.122965 11.5357)
(4.9279e-16 0.116408 11.0113)
(1.61381e-15 0.114296 10.4904)
(2.73432e-15 0.105834 9.96435)
(5.86041e-15 0.104669 9.44933)
(-7.76479e-16 0.0951832 8.94307)
(1.99458e-16 0.093218 8.44329)
(1.67914e-15 0.082574 7.95206)
(9.15565e-16 0.0811183 7.47169)
(2.13697e-15 0.0711073 7.01068)
(2.23414e-15 0.0673341 6.56623)
(1.33735e-15 0.0574545 6.14946)
(1.19402e-15 0.0510722 5.75754)
(1.45114e-15 0.0377983 5.3964)
(1.17755e-15 0.0260335 5.06481)
(3.11274e-15 0.00892163 4.76908)
(-1.44466e-15 -0.00605624 4.51156)
(-1.43112e-15 -0.0233377 4.2965)
(-6.34236e-16 -0.0375501 4.12103)
(-6.91855e-16 -0.0519172 3.98534)
(1.5029e-16 -0.0636063 3.88518)
(3.0087e-15 -0.0749694 3.81905)
(7.13023e-16 -0.0846821 3.78223)
(-2.03969e-15 -0.0939878 3.77288)
(-6.41454e-16 -0.102299 3.78729)
(1.39014e-15 -0.110004 3.82368)
(2.52484e-16 -0.116844 3.87895)
(5.01306e-17 -0.122732 3.95128)
(1.78261e-16 -0.127731 4.03785)
(2.5602e-16 -0.131615 4.13666)
(3.26158e-16 -0.134592 4.24508)
(2.30184e-16 -0.13633 4.36115)
(2.46605e-16 -0.137115 4.48253)
(1.59449e-16 -0.136645 4.60736)
(5.33163e-16 -0.135305 4.73364)
(7.1101e-16 -0.132894 4.85981)
(6.82941e-16 -0.129856 4.98432)
(2.10888e-16 -0.12604 5.10597)
(6.39024e-16 -0.121844 5.22372)
(2.36347e-16 -0.117122 5.33667)
(5.58528e-16 -0.112186 5.44406)
(1.04689e-15 -0.106909 5.54518)
(1.00753e-15 -0.101454 5.63957)
(9.67099e-16 -0.0958271 5.72672)
(9.55253e-16 -0.0898705 5.80632)
(1.06037e-15 -0.0843171 5.8764)
(1.08928e-15 -0.0724788 5.94647)
(1.13638e-15 -0.0732214 5.99281)
(2.23516e-15 -0.0253164 18.6902)
(1.91205e-15 0.00822379 18.7878)
(2.29143e-15 0.0182032 18.8306)
(2.06262e-15 0.0190612 18.8538)
(2.66313e-15 0.0169744 18.8598)
(3.64028e-15 0.0124638 18.8511)
(2.37696e-15 0.0085352 18.8201)
(2.42325e-15 0.00301341 18.7603)
(2.90661e-15 -0.00238163 18.6649)
(3.11193e-15 -0.011788 18.5381)
(2.89832e-15 -0.0270649 18.3685)
(3.35483e-15 -0.0480259 18.1772)
(2.80956e-15 -0.0631847 17.997)
(2.97473e-15 -0.0653616 17.8202)
(3.15334e-15 -0.057781 17.6604)
(2.71335e-15 -0.0461207 17.5189)
(2.85679e-15 -0.0363234 17.384)
(2.83794e-15 -0.0319137 17.255)
(2.81337e-15 -0.0337451 17.1335)
(2.78586e-15 -0.0396247 17.0219)
(2.83869e-15 -0.0453669 16.9329)
(3.03202e-15 -0.048756 16.8672)
(2.99782e-15 -0.0486913 16.8254)
(2.86851e-15 -0.0465854 16.8008)
(2.88128e-15 -0.0430723 16.7872)
(2.76518e-15 -0.0386648 16.7804)
(2.66831e-15 -0.0333745 16.7776)
(2.51752e-15 -0.026988 16.7792)
(2.96417e-15 -0.0179219 16.7822)
(2.81085e-15 -0.00467005 16.7791)
(2.79533e-15 0.0118672 16.7626)
(2.78209e-15 0.0293284 16.7276)
(3.04529e-15 0.046617 16.6766)
(1.05085e-15 0.063742 16.6116)
(1.97246e-15 0.0808327 16.528)
(3.22933e-15 0.0970877 16.4227)
(3.05693e-15 0.114387 16.2932)
(2.91655e-15 0.134411 16.1264)
(2.84761e-15 0.157849 15.9175)
(2.82088e-15 0.182732 15.6633)
(2.72527e-15 0.206235 15.3606)
(2.21771e-15 0.225484 15.0135)
(4.56985e-15 0.239397 14.63)
(3.42076e-15 0.248347 14.2165)
(2.76689e-15 0.252731 13.7786)
(2.61249e-15 0.25269 13.3178)
(2.497e-15 0.254464 12.8635)
(2.3186e-15 0.253692 12.4081)
(2.28339e-15 0.253359 11.9465)
(3.74257e-15 0.250772 11.479)
(8.76396e-16 0.252708 11.0148)
(3.7357e-15 0.251008 10.5464)
(1.68922e-15 0.252767 10.0782)
(8.21094e-17 0.248274 9.61416)
(9.38972e-17 0.246581 9.15195)
(-1.33118e-15 0.238019 8.6975)
(1.26723e-15 0.235243 8.2526)
(1.89474e-15 0.225084 7.82239)
(1.30387e-15 0.221524 7.39541)
(1.01366e-15 0.209135 6.97952)
(4.99965e-15 0.204563 6.56745)
(-2.1799e-16 0.190167 6.17915)
(3.70349e-16 0.181785 5.78837)
(3.9359e-16 0.166175 5.41047)
(6.82412e-16 0.153123 5.04088)
(-1.01364e-15 0.132364 4.69346)
(-1.78908e-15 0.112471 4.36115)
(-3.80599e-15 0.0853551 4.05092)
(-4.78626e-15 0.0586765 3.76583)
(-9.283e-15 0.0283737 3.51458)
(-3.72435e-15 0.000977208 3.29679)
(-3.61728e-15 -0.0263093 3.11531)
(-1.64622e-15 -0.0500252 2.96698)
(-2.24302e-15 -0.0725908 2.85101)
(1.8917e-16 -0.0925205 2.76258)
(-3.33348e-15 -0.111261 2.70011)
(-3.25176e-15 -0.12823 2.65993)
(1.03717e-15 -0.143911 2.64081)
(-7.98185e-16 -0.158031 2.64014)
(1.41695e-15 -0.170474 2.65685)
(-3.14155e-16 -0.18134 2.68868)
(-2.13043e-15 -0.190354 2.73426)
(-1.91781e-17 -0.197776 2.79146)
(-2.41461e-16 -0.203196 2.85878)
(-6.09393e-16 -0.206965 2.93424)
(-3.65817e-16 -0.208712 3.01629)
(-2.53908e-16 -0.208928 3.10317)
(-1.68611e-16 -0.207394 3.19349)
(2.24003e-17 -0.204686 3.28586)
(-4.61691e-16 -0.200647 3.37918)
(3.94935e-16 -0.195785 3.47243)
(3.92514e-16 -0.189946 3.56469)
(9.48734e-18 -0.183523 3.65515)
(8.59928e-16 -0.176379 3.743)
(7.70682e-16 -0.168778 3.8276)
(1.20392e-15 -0.16063 3.90869)
(9.14169e-16 -0.151874 3.98497)
(8.65983e-16 -0.143884 4.05708)
(7.74359e-16 -0.127544 4.12499)
(9.7077e-16 -0.11965 4.20005)
(2.70281e-15 -0.0282751 19.1023)
(2.60994e-15 0.00871659 19.058)
(2.66811e-15 0.021737 18.954)
(2.97336e-15 0.0235636 18.8224)
(2.6746e-15 0.0219038 18.6627)
(3.04252e-15 0.017802 18.4671)
(2.88433e-15 0.0144588 18.2215)
(3.37882e-15 0.00974535 17.9099)
(3.22634e-15 0.00531311 17.527)
(2.8891e-15 -0.00244063 17.07)
(2.1624e-15 -0.0180475 16.5227)
(2.74102e-15 -0.0423656 15.918)
(2.39621e-15 -0.0653283 15.3306)
(2.40182e-15 -0.0764651 14.7915)
(2.36444e-15 -0.0778566 14.3391)
(2.30563e-15 -0.0730652 13.9747)
(2.39894e-15 -0.0684636 13.6739)
(1.96259e-15 -0.0678058 13.4219)
(2.08842e-15 -0.0736382 13.2105)
(2.84731e-15 -0.0845216 13.0384)
(2.9315e-15 -0.0963778 12.9205)
(2.48197e-15 -0.10558 12.8598)
(2.42595e-15 -0.109919 12.8567)
(2.69161e-15 -0.110764 12.8996)
(2.11924e-15 -0.108813 12.9751)
(2.34637e-15 -0.104937 13.073)
(2.3937e-15 -0.0992958 13.1875)
(2.46824e-15 -0.0923149 13.3171)
(2.26843e-15 -0.081717 13.4582)
(1.65881e-15 -0.0654295 13.6001)
(2.80701e-15 -0.0440918 13.7338)
(2.96867e-15 -0.0209212 13.8514)
(3.04651e-15 0.00267875 13.9485)
(3.42988e-15 0.0264753 14.0237)
(2.14582e-15 0.0508592 14.075)
(3.8902e-16 0.0751279 14.103)
(2.31296e-15 0.101226 14.0934)
(2.51534e-15 0.131969 14.0487)
(2.61071e-15 0.168368 13.9615)
(1.97404e-15 0.207649 13.8199)
(3.58854e-15 0.245719 13.6217)
(6.19193e-15 0.278336 13.3715)
(3.12673e-15 0.303989 13.0735)
(5.19037e-15 0.32337 12.7325)
(3.1153e-15 0.336501 12.3592)
(2.50084e-15 0.342483 11.9576)
(2.27573e-15 0.346949 11.5585)
(2.10277e-15 0.349252 11.1645)
(1.90069e-15 0.351503 10.7685)
(1.47894e-15 0.351165 10.3652)
(9.30891e-16 0.354445 9.96597)
(7.99286e-16 0.354415 9.56735)
(7.27442e-16 0.356241 9.17587)
(9.45429e-16 0.352171 8.79239)
(1.12807e-15 0.349743 8.4145)
(1.22244e-15 0.342603 8.03658)
(1.36334e-15 0.338766 7.65714)
(2.0089e-15 0.329962 7.2834)
(5.89179e-15 0.324735 6.9084)
(6.9208e-16 0.313083 6.53998)
(5.76564e-18 0.305009 6.17864)
(7.56868e-16 0.290387 5.84915)
(7.54836e-16 0.282229 5.52284)
(5.30814e-16 0.269078 5.20158)
(-3.37959e-16 0.255382 4.86875)
(-5.83982e-16 0.232814 4.54688)
(-1.68927e-15 0.209553 4.23438)
(-4.46923e-15 0.178209 3.93752)
(-4.54401e-15 0.144212 3.65831)
(-4.3502e-16 0.105056 3.40665)
(-9.28989e-15 0.0672192 3.18331)
(-1.78645e-15 0.0296345 2.99207)
(-1.39836e-15 -0.00416273 2.83002)
(-9.47507e-16 -0.0358696 2.69619)
(4.0749e-15 -0.0642153 2.58539)
(1.6963e-15 -0.0905806 2.49591)
(8.06502e-16 -0.114645 2.4241)
(3.2963e-15 -0.136963 2.3693)
(1.8565e-16 -0.157347 2.32948)
(-1.19309e-16 -0.175689 2.30444)
(-6.04898e-17 -0.192144 2.29253)
(1.93837e-15 -0.206411 2.29314)
(-3.41313e-16 -0.218735 2.30468)
(4.88932e-16 -0.228613 2.32639)
(-4.9401e-17 -0.236397 2.35672)
(3.69041e-16 -0.241613 2.39467)
(-1.51238e-15 -0.244794 2.43882)
(-1.02502e-15 -0.245685 2.48816)
(-9.65651e-16 -0.24497 2.54153)
(-9.06994e-16 -0.24246 2.59811)
(1.37148e-16 -0.238768 2.65704)
(-6.90107e-16 -0.233709 2.71757)
(-8.29926e-16 -0.227768 2.77904)
(-8.03484e-16 -0.220768 2.84087)
(-6.46201e-16 -0.213096 2.90249)
(-6.46081e-16 -0.20453 2.96408)
(-6.72411e-16 -0.19527 3.02384)
(-6.69704e-16 -0.186579 3.08551)
(-5.48795e-16 -0.169997 3.13788)
(-5.38143e-16 -0.158165 3.22565)
(2.80857e-15 -0.0302142 18.595)
(2.83091e-15 0.00823162 18.3944)
(2.9015e-15 0.0237873 18.1321)
(2.90347e-15 0.0264251 17.8157)
(2.8481e-15 0.0260403 17.4364)
(3.12494e-15 0.024304 16.9801)
(3.04921e-15 0.0243321 16.4295)
(2.75874e-15 0.0236279 15.7661)
(3.28544e-15 0.0235608 14.9949)
(1.98115e-15 0.0222674 14.1186)
(1.68505e-15 0.00977792 13.1224)
(1.84795e-15 -0.0173095 12.0718)
(1.89821e-15 -0.053281 11.1045)
(1.81787e-15 -0.0823829 10.2899)
(1.89922e-15 -0.103026 9.67687)
(1.68231e-15 -0.114027 9.24829)
(1.53078e-15 -0.121372 8.9519)
(2.3033e-15 -0.128947 8.75363)
(1.92685e-15 -0.142424 8.63223)
(2.17085e-15 -0.161375 8.57607)
(1.55401e-15 -0.1823 8.59373)
(1.7216e-15 -0.200226 8.68177)
(2.18438e-15 -0.21176 8.83659)
(1.9941e-15 -0.217445 9.04124)
(2.13081e-15 -0.217864 9.27595)
(2.06388e-15 -0.214907 9.52784)
(1.67453e-15 -0.209246 9.79296)
(1.49494e-15 -0.201707 10.0697)
(1.52175e-15 -0.189508 10.3516)
(2.6525e-15 -0.17008 10.6302)
(2.51883e-15 -0.143353 10.8984)
(2.50614e-15 -0.113069 11.1426)
(2.43805e-15 -0.0813815 11.3583)
(2.35059e-15 -0.0493416 11.551)
(2.81365e-15 -0.0166116 11.7207)
(1.13002e-15 0.0163084 11.8668)
(1.67433e-15 0.0529811 11.989)
(2.11458e-15 0.095721 12.0832)
(2.18388e-15 0.1471 12.1357)
(1.24066e-15 0.203185 12.129)
(4.6773e-15 0.257935 12.0588)
(2.9398e-15 0.306372 11.9311)
(6.05408e-15 0.346834 11.7505)
(4.04476e-15 0.379535 11.5219)
(2.23065e-15 0.404015 11.2539)
(1.95299e-15 0.41811 10.9447)
(3.25768e-15 0.426373 10.627)
(1.47659e-15 0.431167 10.3157)
(-2.80739e-15 0.436681 10.0029)
(-4.904e-15 0.44033 9.67633)
(-2.62904e-15 0.446171 9.3459)
(-2.08187e-15 0.448924 9.00828)
(2.91018e-15 0.451745 8.66329)
(4.9782e-15 0.448168 8.31664)
(4.2675e-15 0.445297 7.97504)
(4.12724e-15 0.43992 7.63868)
(3.54206e-15 0.43743 7.30108)
(4.07256e-15 0.430812 6.96245)
(3.31227e-15 0.425314 6.61675)
(1.97898e-15 0.413751 6.27156)
(1.6265e-15 0.401586 5.923)
(1.63747e-15 0.383591 5.58722)
(4.08564e-16 0.372536 5.26532)
(2.51262e-16 0.360949 4.96875)
(-4.82072e-16 0.34777 4.66292)
(1.10654e-15 0.322777 4.36641)
(6.73852e-16 0.294998 4.08333)
(-4.12019e-15 0.258984 3.81948)
(-4.24259e-15 0.218108 3.57292)
(-4.34195e-15 0.171341 3.35106)
(-9.58732e-16 0.12473 3.15305)
(-1.1596e-16 0.0790515 2.98169)
(1.2563e-16 0.0374972 2.83374)
(1.7772e-15 -0.000738615 2.70817)
(-1.48845e-15 -0.0350072 2.60007)
(6.76564e-15 -0.0664786 2.50827)
(1.02063e-15 -0.0953775 2.4297)
(3.8286e-15 -0.122223 2.3645)
(6.00681e-16 -0.147011 2.31126)
(1.38968e-16 -0.169597 2.27041)
(-1.58008e-15 -0.19023 2.24064)
(-1.90296e-16 -0.208605 2.22177)
(1.03063e-15 -0.224886 2.21258)
(8.58812e-16 -0.238514 2.21272)
(-1.44837e-15 -0.249723 2.221)
(-1.21696e-15 -0.258032 2.23678)
(-1.40863e-15 -0.263883 2.25884)
(-1.53015e-15 -0.267107 2.28639)
(-4.06674e-16 -0.268366 2.31841)
(-1.7292e-15 -0.267572 2.35424)
(-6.3373e-16 -0.265327 2.39315)
(-1.99772e-15 -0.261551 2.43452)
(-1.15885e-15 -0.256701 2.47784)
(-2.2402e-15 -0.250657 2.52276)
(-2.21779e-15 -0.243803 2.56885)
(-1.97795e-15 -0.235902 2.6166)
(-1.86843e-15 -0.227387 2.66401)
(-1.3348e-15 -0.218894 2.71691)
(-1.74993e-15 -0.205138 2.75637)
(-1.62755e-15 -0.192578 2.84809)
(2.60038e-15 -0.0349992 17.3982)
(2.8032e-15 0.00220335 16.9951)
(2.68387e-15 0.0207733 16.5108)
(3.03986e-15 0.0264836 15.932)
(2.64594e-15 0.0307486 15.2597)
(2.81638e-15 0.035748 14.4955)
(2.67738e-15 0.044031 13.6258)
(3.06723e-15 0.0522181 12.64)
(1.62891e-15 0.0604071 11.5604)
(1.45167e-15 0.0699444 10.4126)
(1.3478e-15 0.0617916 9.19638)
(1.35683e-15 0.0284003 8.02683)
(1.54993e-15 -0.0300107 7.08303)
(1.5121e-15 -0.0873009 6.4039)
(1.29972e-15 -0.134789 5.99138)
(1.58906e-15 -0.16511 5.78536)
(1.63562e-15 -0.185139 5.70516)
(1.28766e-15 -0.199986 5.70948)
(9.94269e-16 -0.21958 5.77522)
(9.94293e-16 -0.244944 5.88593)
(1.19067e-15 -0.273304 6.04876)
(1.35133e-15 -0.298328 6.25958)
(1.83616e-15 -0.315653 6.51535)
(2.16172e-15 -0.325207 6.80129)
(1.81552e-15 -0.327335 7.10245)
(1.71754e-15 -0.325026 7.41071)
(1.78605e-15 -0.319486 7.72392)
(8.97677e-16 -0.311757 8.04236)
(2.00772e-15 -0.298714 8.36272)
(1.73443e-15 -0.27737 8.6787)
(1.88016e-15 -0.246338 8.98384)
(1.97986e-15 -0.209852 9.26869)
(2.07108e-15 -0.171606 9.53162)
(2.00426e-15 -0.13343 9.77649)
(2.55791e-15 -0.0943448 10.0019)
(1.00038e-15 -0.0550462 10.2086)
(1.62102e-15 -0.0116448 10.3965)
(1.94618e-15 0.039675 10.5648)
(1.95801e-15 0.104101 10.702)
(9.85719e-16 0.176624 10.7835)
(3.3825e-15 0.248 10.7982)
(6.3919e-15 0.311593 10.7533)
(6.10003e-15 0.366223 10.658)
(3.4731e-15 0.412468 10.5161)
(2.0807e-15 0.449836 10.3328)
(1.4106e-15 0.474725 10.1042)
(1.71665e-15 0.488627 9.85446)
(1.10806e-15 0.495798 9.60263)
(-2.48193e-15 0.504729 9.3519)
(-2.16844e-15 0.513737 9.08377)
(1.53433e-16 0.524227 8.80174)
(-2.07901e-15 0.531952 8.50614)
(4.79683e-15 0.53847 8.1966)
(4.22618e-15 0.536653 7.87575)
(3.94358e-15 0.532999 7.54843)
(5.06579e-15 0.526664 7.23135)
(7.52974e-15 0.524626 6.92533)
(2.71249e-15 0.520928 6.61991)
(2.30937e-15 0.516733 6.30175)
(2.82637e-15 0.506634 5.98009)
(2.66472e-15 0.493801 5.6522)
(1.49027e-15 0.473159 5.33445)
(4.41975e-17 0.455486 5.021)
(-5.133e-16 0.442235 4.74694)
(-1.22665e-15 0.42829 4.48893)
(-1.83552e-15 0.401121 4.23662)
(-2.91468e-15 0.368622 3.99537)
(1.87306e-15 0.328371 3.77182)
(-5.27574e-15 0.281993 3.56124)
(-5.59152e-15 0.229544 3.3691)
(-2.05313e-15 0.176407 3.19427)
(-3.94433e-16 0.124813 3.03969)
(1.02275e-16 0.0775284 2.90295)
(-5.46443e-16 0.0344834 2.78391)
(-3.94653e-15 -0.00426615 2.67875)
(-1.69814e-15 -0.0397155 2.58713)
(-1.81921e-15 -0.072531 2.50667)
(4.27034e-15 -0.103167 2.43795)
(1.48879e-15 -0.131681 2.3798)
(1.82048e-15 -0.157879 2.33271)
(-1.68701e-15 -0.182045 2.29534)
(9.40038e-17 -0.203937 2.26764)
(1.50093e-15 -0.223596 2.24851)
(-2.15545e-16 -0.240482 2.23792)
(1.92492e-15 -0.254645 2.23489)
(-1.0089e-15 -0.265661 2.23908)
(-9.634e-16 -0.273823 2.24941)
(-1.23647e-15 -0.279082 2.2652)
(-1.21053e-15 -0.282019 2.28547)
(7.09777e-16 -0.28271 2.30959)
(-1.55872e-15 -0.281706 2.33674)
(-2.02817e-15 -0.279085 2.3663)
(-8.4751e-16 -0.275254 2.39771)
(-1.59762e-15 -0.270181 2.43065)
(-1.65796e-15 -0.26421 2.46474)
(-2.08835e-15 -0.257151 2.50052)
(-1.23839e-15 -0.249602 2.53595)
(-1.2661e-15 -0.241537 2.57745)
(-9.71841e-16 -0.231131 2.60465)
(-1.03075e-15 -0.219339 2.68115)
(2.44739e-15 -0.0446396 15.4866)
(2.53049e-15 -0.00750698 14.7863)
(2.36294e-15 0.0172158 14.0252)
(1.88875e-15 0.0292102 13.2)
(2.46421e-15 0.0409197 12.3263)
(2.60967e-15 0.0557862 11.4267)
(1.80112e-15 0.0756341 10.4736)
(1.45959e-15 0.0956379 9.46256)
(1.05926e-15 0.112731 8.41992)
(1.95549e-15 0.132137 7.39855)
(9.92252e-16 0.12317 6.41313)
(1.38014e-15 0.0758407 5.5842)
(1.35736e-15 -0.00988882 5.03513)
(1.42967e-15 -0.0938203 4.70776)
(1.01873e-15 -0.161444 4.56751)
(7.30846e-16 -0.202898 4.55622)
(8.0061e-16 -0.228971 4.60645)
(-1.02584e-16 -0.24735 4.69536)
(-7.91258e-16 -0.27034 4.81466)
(6.98724e-16 -0.300239 4.95359)
(9.24042e-16 -0.334606 5.12272)
(1.06858e-15 -0.366081 5.32228)
(1.68568e-15 -0.389297 5.55573)
(-1.60537e-17 -0.403744 5.81398)
(1.4169e-15 -0.409263 6.0854)
(2.52507e-15 -0.409446 6.36331)
(2.02374e-15 -0.405871 6.64713)
(5.36931e-16 -0.400119 6.93944)
(1.84822e-15 -0.388823 7.23702)
(1.69007e-15 -0.368292 7.53183)
(3.35259e-15 -0.336122 7.81932)
(2.24926e-15 -0.296933 8.09315)
(2.0531e-15 -0.255554 8.35149)
(1.34087e-15 -0.214093 8.59744)
(3.63229e-15 -0.171194 8.82964)
(1.50775e-15 -0.128551 9.04789)
(2.00769e-15 -0.0814932 9.25194)
(2.26748e-15 -0.0246035 9.4439)
(2.32701e-15 0.0498088 9.61286)
(2.17759e-15 0.137253 9.73736)
(2.17363e-15 0.224999 9.7984)
(2.21017e-15 0.302891 9.79668)
(5.28474e-15 0.370013 9.74644)
(3.0448e-15 0.428581 9.656)
(1.94589e-15 0.4781 9.52751)
(1.60734e-15 0.51439 9.35672)
(1.38225e-15 0.536077 9.16002)
(1.19828e-15 0.54629 8.95147)
(7.1379e-16 0.558081 8.74289)
(4.10884e-16 0.57346 8.51765)
(2.08546e-16 0.590054 8.27362)
(8.50179e-16 0.603507 8.01359)
(1.0588e-15 0.615176 7.73791)
(1.41621e-15 0.617813 7.44836)
(1.62163e-15 0.614803 7.14683)
(2.82952e-15 0.606321 6.84617)
(4.26944e-15 0.602591 6.56299)
(1.45269e-15 0.601543 6.29132)
(5.31191e-16 0.600557 6.00245)
(-3.59028e-16 0.592844 5.70533)
(-1.37102e-15 0.580115 5.40211)
(-2.28251e-15 0.558026 5.11079)
(-3.14182e-15 0.533114 4.82611)
(-2.81532e-15 0.513882 4.56948)
(-3.52122e-15 0.496447 4.35284)
(-3.48185e-15 0.467532 4.13887)
(-4.08074e-15 0.431327 3.92974)
(-6.29474e-15 0.387944 3.73329)
(-6.36399e-15 0.337695 3.54445)
(-5.09038e-15 0.281102 3.36841)
(-2.23157e-15 0.223063 3.20492)
(-3.23149e-16 0.166816 3.05772)
(3.62074e-16 0.114857 2.92542)
(-2.19485e-16 0.06766 2.80857)
(-7.89382e-15 0.0249029 2.7041)
(2.0003e-15 -0.0142277 2.61199)
(7.70765e-15 -0.0506772 2.53003)
(2.51442e-15 -0.0847835 2.45866)
(4.43014e-15 -0.116632 2.39663)
(1.71002e-15 -0.145996 2.34426)
(2.25237e-15 -0.173222 2.30027)
(-2.75903e-15 -0.198146 2.26472)
(3.21115e-16 -0.220752 2.23686)
(-8.10569e-16 -0.240533 2.21696)
(-1.17537e-15 -0.257391 2.20443)
(-1.24554e-15 -0.270907 2.19921)
(-9.73974e-16 -0.281226 2.20042)
(-1.1521e-15 -0.288363 2.20746)
(-1.23266e-15 -0.292814 2.21935)
(-9.88846e-16 -0.294784 2.23532)
(-9.98829e-16 -0.294801 2.25439)
(-1.23047e-15 -0.293076 2.27573)
(-2.01608e-15 -0.28999 2.29864)
(-4.08623e-16 -0.285599 2.32274)
(-1.45278e-15 -0.280226 2.34762)
(-1.07023e-15 -0.273758 2.3738)
(-9.22711e-16 -0.266912 2.39938)
(-7.7386e-16 -0.25932 2.43058)
(-4.90883e-16 -0.250918 2.44873)
(-7.75002e-16 -0.240775 2.5067)
(2.17415e-15 -0.0608285 12.7644)
(2.0095e-15 -0.0222934 11.7732)
(1.91905e-15 0.0092962 10.9291)
(1.75726e-15 0.0277237 10.1587)
(1.23344e-15 0.0468295 9.41875)
(1.86352e-15 0.0719822 8.72092)